Title
82315
    1SAPS     N    1   2.993   1.340  11.424 -0.9351 -0.7683  1.2175
    1SAPS   HN1    2   2.951   1.383  11.339 -2.6422 -2.7397  0.9934
    1SAPS   HN2    3   3.066   1.271  11.395 -2.1211 -1.5622 -0.0138
    1SAPS   HN3    4   2.920   1.280  11.468  0.8336 -4.0905  0.0011
    1SAPS   C12    5   3.057   1.433  11.513 -0.2512  0.1659 -0.4204
    1SAPS  H12A    6   2.980   1.474  11.576 -0.0534 -0.0194 -0.0550
    1SAPS   C13    7   3.164   1.373  11.608  0.7719 -0.2598 -0.1906
    1SAPS  O13A    8   3.207   1.257  11.598  0.7287 -0.6384  0.1918
    1SAPS  O13B    9   3.212   1.444  11.701  0.0001  0.3596 -0.1513
    1SAPS   C11   10   3.131   1.549  11.438  0.4854 -0.1098 -0.2022
    1SAPS  H11A   11   3.225   1.514  11.390  0.7710 -0.5108  0.6312
    1SAPS  H11B   12   3.145   1.631  11.511  0.3267 -0.4032  0.1640
    1SAPS     P   13   3.091   1.660  11.204  0.1827  0.1479  0.2107
    1SAPS   O13   14   2.977   1.664  11.109 -0.6360 -0.6078  0.2559
    1SAPS   O14   15   3.164   1.784  11.241 -0.3344  0.6300  0.5962
    1SAPS   O12   16   3.039   1.609  11.342 -0.6580 -0.1160 -0.0028
    1SAPS   O11   17   3.184   1.551  11.161  0.2573 -0.4686 -0.3113
    1SAPS    C1   18   3.319   1.579  11.126 -0.6544 -0.0210  0.1736
    1SAPS    HA   19   3.375   1.642  11.197 -0.1584 -0.8624  0.5468
    1SAPS    HB   20   3.376   1.484  11.113 -1.1295 -0.1510 -1.1842
    1SAPS    C2   21   3.331   1.645  10.988  0.4010  0.5260 -0.4077
    1SAPS    HS   22   3.307   1.753  11.000 -0.6417  0.3223 -0.5918
    1SAPS   O21   23   3.248   1.573  10.888 -0.7848  0.0685 -0.1856
    1SAPS   C21   24   3.218   1.644  10.781 -0.7536  0.4459 -0.0182
    1SAPS   O22   25   3.241   1.760  10.769 -0.0438 -0.1886  0.6500
    1SAPS   C22   26   3.148   1.550  10.678  0.3132 -0.4560 -0.0989
    1SAPS   H2R   27   3.217   1.475  10.633  1.0470 -1.2433  2.1789
    1SAPS   H2S   28   3.072   1.500  10.743 -0.3366  0.0123 -0.4875
    1SAPS    C3   29   3.485   1.636  10.940 -0.0395  0.5495  0.0650
    1SAPS    HX   30   3.493   1.525  10.932  0.3161  0.4871  1.1634
    1SAPS    HY   31   3.540   1.660  11.033 -1.4293  1.8776  0.5853
    1SAPS   O31   32   3.519   1.705  10.821 -0.5268  0.2398 -0.3868
    1SAPS   C31   33   3.537   1.840  10.836  0.0860  0.2952 -0.1439
    1SAPS   O32   34   3.513   1.908  10.938  0.1615  0.0063 -0.4121
    1SAPS   C32   35   3.581   1.887  10.694 -0.1212  0.1101 -0.9444
    1SAPS   H2X   36   3.580   1.797  10.628 -0.4210 -0.8997  0.4107
    1SAPS   H2Y   37   3.685   1.924  10.709 -0.3277 -0.5366  2.9333
    1SAPS   C23   38   3.069   1.620  10.569 -0.0252 -0.5155 -0.0073
    1SAPS   H3R   39   3.017   1.712  10.605 -2.0738 -1.6475  0.0752
    1SAPS   H3S   40   2.990   1.549  10.537 -1.1443  0.6719  0.0684
    1SAPS   C24   41   3.139   1.662  10.436  0.2122 -0.4914  0.9427
    1SAPS   H4R   42   3.204   1.578  10.404 -1.8335 -1.1543 -1.8650
    1SAPS   H4S   43   3.202   1.752  10.455  1.3249 -0.8446 -0.8269
    1SAPS   C25   44   3.035   1.685  10.324 -1.1275 -0.0300 -0.4827
    1SAPS   H5R   45   2.969   1.772  10.338 -0.2562  0.7700 -1.1611
    1SAPS   C26   46   3.028   1.613  10.202  0.7773  0.0396 -0.4687
    1SAPS   H6R   47   2.947   1.642  10.132  0.3617  0.8137  0.3204
    1SAPS   C27   48   3.112   1.499  10.153  0.5471  0.3238  0.0494
    1SAPS   H7R   49   3.189   1.472  10.229 -0.6751  0.6891  1.4866
    1SAPS   H7S   50   3.171   1.551  10.074  0.1554 -1.3253 -1.3726
    1SAPS   C28   51   3.048   1.373  10.098 -0.1370 -0.2780 -0.7185
    1SAPS   H8R   52   3.010   1.307  10.178 -0.6929  0.9520  0.0665
    1SAPS   C29   53   3.037   1.336   9.967 -0.6911 -0.4638  0.5171
    1SAPS   H9R   54   2.988   1.238   9.954 -2.2043 -0.0427  2.4348
    1SAPS  C210   55   3.086   1.413   9.843  0.2734  0.5231 -0.6996
    1SAPS  H10R   56   3.076   1.331   9.769 -0.4487  0.9506 -1.0890
    1SAPS  H10S   57   3.192   1.443   9.857  0.2974  0.2655 -0.2985
    1SAPS  C211   58   3.001   1.532   9.812 -0.6442 -0.0432  0.6370
    1SAPS  H11R   59   2.999   1.615   9.885  0.6301  1.7126 -1.2314
    1SAPS  C212   60   2.910   1.541   9.709  0.0506 -0.1303 -0.3499
    1SAPS  H12R   61   2.849   1.632   9.702  1.0850  0.5224 -1.1751
    1SAPS  C213   62   2.871   1.445   9.598 -0.0718 -0.2905  0.7237
    1SAPS  H13R   63   2.924   1.348   9.593 -0.7253 -0.6814  1.2800
    1SAPS  H13S   64   2.909   1.501   9.510 -0.8923  0.2548  0.6988
    1SAPS  C214   65   2.720   1.430   9.597 -0.2899 -0.5378  0.0029
    1SAPS  H14R   66   2.670   1.418   9.694  1.6121  2.2100  1.4458
    1SAPS  C215   67   2.651   1.453   9.491 -0.3047 -0.3956  0.5982
    1SAPS  H15R   68   2.542   1.442   9.502 -0.1336 -0.5645  2.2958
    1SAPS  C216   69   2.694   1.489   9.349  0.2002  0.0581 -0.5392
    1SAPS  H16R   70   2.796   1.450   9.332 -0.5387 -1.0454 -2.7984
    1SAPS  H16S   71   2.701   1.598   9.329  0.1731 -0.1430 -1.7291
    1SAPS  C217   72   2.601   1.411   9.250  0.2734 -0.3258  0.3413
    1SAPS  H17R   73   2.495   1.440   9.267 -0.0796 -1.6940  0.6317
    1SAPS  H17S   74   2.626   1.303   9.250 -0.0055 -0.3944  0.6685
    1SAPS  C218   75   2.636   1.449   9.101 -0.2051 -0.1341 -0.0311
    1SAPS  H18R   76   2.590   1.377   9.030  1.7134 -2.3367  0.8230
    1SAPS  H18S   77   2.747   1.440   9.098  0.3278  3.3820  2.4694
    1SAPS  C219   78   2.605   1.598   9.052 -0.1330  0.1979 -0.4797
    1SAPS  H19R   79   2.650   1.668   9.126  0.6423 -3.3102  2.6645
    1SAPS  H19S   80   2.495   1.612   9.051 -0.4193 -1.2567  1.7818
    1SAPS  C220   81   2.671   1.632   8.917  0.5538  0.1576 -0.8200
    1SAPS  H20R   82   2.780   1.642   8.933  0.4352  1.5784 -0.7257
    1SAPS  H20S   83   2.627   1.730   8.887 -2.1185 -0.1268  1.7326
    1SAPS  H20T   84   2.660   1.547   8.846 -1.0421 -1.5939  1.3996
    1SAPS   C33   85   3.495   1.994  10.616 -0.8164 -0.7500 -0.7477
    1SAPS   H3X   86   3.500   2.088  10.675  0.5088 -1.7901  0.8799
    1SAPS   H3Y   87   3.393   1.952  10.627 -0.8914 -0.1904  1.0208
    1SAPS   C34   88   3.511   2.014  10.463  0.1494 -0.5443  0.2628
    1SAPS   H4X   89   3.618   2.030  10.440 -0.1400  0.5668 -0.3916
    1SAPS   H4Y   90   3.466   2.111  10.434 -1.7553 -1.8748 -1.5972
    1SAPS   C35   91   3.458   1.896  10.376 -0.4152 -0.3807  0.8241
    1SAPS   H5X   92   3.358   1.866  10.413 -0.8205 -0.3667 -0.2191
    1SAPS   H5Y   93   3.537   1.818  10.374  0.0572  0.0905 -1.2124
    1SAPS   C36   94   3.431   1.951  10.230 -0.1962  0.3074  0.2605
    1SAPS   H6X   95   3.527   1.985  10.186 -1.4372 -0.3901 -3.3454
    1SAPS   H6Y   96   3.351   2.028  10.230  0.1143  0.6381  0.6789
    1SAPS   C37   97   3.387   1.841  10.131  0.3271  0.3439 -0.3239
    1SAPS   H7X   98   3.288   1.804  10.164  0.3580 -0.5048 -1.1424
    1SAPS   H7Y   99   3.452   1.753  10.150 -0.0295  0.2247  0.3445
    1SAPS   C38  100   3.389   1.882   9.982 -0.1118  0.7093 -0.4432
    1SAPS   H8X  101   3.492   1.915   9.958  0.1244 -1.6420 -3.3234
    1SAPS   H8Y  102   3.319   1.966   9.961 -1.2609  0.1136  0.8139
    1SAPS   C39  103   3.351   1.765   9.891  0.2412  0.0437  1.9492
    1SAPS   H9X  104   3.243   1.737   9.900  0.4524 -2.3185 -1.2890
    1SAPS   H9Y  105   3.413   1.674   9.903  0.3066 -0.3708 -0.8561
    1SAPS  C310  106   3.389   1.798   9.745  0.2063  0.5921  0.5788
    1SAPS  H10X  107   3.498   1.820   9.736  0.8983 -2.4157  0.6862
    1SAPS  H10Y  108   3.319   1.883   9.729  0.1803  0.8453  1.9253
    1SAPS  C311  109   3.350   1.687   9.639 -0.9956 -0.2009  0.0352
    1SAPS  H11X  110   3.258   1.640   9.679 -1.5776 -0.5532 -1.6299
    1SAPS  H11Y  111   3.424   1.604   9.636 -1.1082 -0.2692 -1.3041
    1SAPS  C312  112   3.323   1.747   9.494  0.0063  0.0195 -0.4793
    1SAPS  H12X  113   3.408   1.814   9.471  0.3406  0.2980  1.3729
    1SAPS  H12Y  114   3.224   1.799   9.497  0.0783  0.1986 -1.0724
    1SAPS  C313  115   3.312   1.647   9.377  0.0692 -0.0310 -0.5603
    1SAPS  H13X  116   3.406   1.587   9.386 -1.0272 -1.4043  3.8239
    1SAPS  H13Y  117   3.301   1.713   9.288  1.9106  1.5917  0.3490
    1SAPS  C314  118   3.199   1.549   9.394  0.3666 -0.9075  0.6378
    1SAPS  H14X  119   3.106   1.607   9.415  0.8398 -0.0978  0.5459
    1SAPS  H14Y  120   3.224   1.494   9.487  2.1917  0.1839  0.8262
    1SAPS  C315  121   3.196   1.442   9.282  0.0113 -0.2283 -0.8629
    1SAPS  H15X  122   3.126   1.357   9.298 -0.7954  0.4387 -0.8118
    1SAPS  H15Y  123   3.292   1.388   9.294  0.8683  1.4576  0.2161
    1SAPS  C316  124   3.183   1.500   9.143  0.0955  0.4540  1.1733
    1SAPS  H16X  125   3.271   1.563   9.118  0.4341 -0.5602 -0.3655
    1SAPS  H16Y  126   3.095   1.568   9.140 -1.3448 -1.3407 -1.4714
    1SAPS  C317  127   3.189   1.392   9.033  1.0427  0.2228 -0.5797
    1SAPS  H17X  128   3.102   1.328   9.060  1.2374  0.5474  0.8834
    1SAPS  H17Y  129   3.283   1.339   9.057  1.9790  1.7361 -0.7779
    1SAPS  C318  130   3.180   1.429   8.887 -0.1510 -0.3950 -0.2988
    1SAPS  H18X  131   3.088   1.487   8.863 -2.0599 -3.9758 -2.5211
    1SAPS  H18Y  132   3.180   1.348   8.811  2.4936 -0.2129 -0.5623
    1SAPS  H18Z  133   3.273   1.483   8.860 -1.1012  0.6470 -1.6301
    2SAPS     N  134   1.180   0.833  11.304  0.4070  0.7751 -0.4544
    2SAPS   HN1  135   1.093   0.794  11.345 -0.3375  1.1826 -1.5943
    2SAPS   HN2  136   1.256   0.848  11.374  1.9311 -0.9585 -1.6334
    2SAPS   HN3  137   1.170   0.924  11.254 -0.6494  0.4774 -0.8118
    2SAPS   C12  138   1.239   0.727  11.207  0.5376 -0.8419 -0.5765
    2SAPS  H12A  139   1.300   0.664  11.269  1.2092  0.2550 -0.0936
    2SAPS   C13  140   1.131   0.648  11.143 -0.1956  0.7618 -0.1914
    2SAPS  O13A  141   1.010   0.664  11.180  0.1180  0.2174 -0.1034
    2SAPS  O13B  142   1.168   0.541  11.082 -0.3996 -0.2931 -0.2319
    2SAPS   C11  143   1.334   0.805  11.107 -0.3016 -0.1030  0.3139
    2SAPS  H11A  144   1.356   0.734  11.024  2.7599 -1.6682  2.2984
    2SAPS  H11B  145   1.435   0.814  11.150  0.2626 -0.3540 -0.9179
    2SAPS     P  146   1.335   0.986  10.916  0.3759  0.2980  0.1110
    2SAPS   O13  147   1.227   1.069  10.853  0.2684  0.1407 -0.4063
    2SAPS   O14  148   1.461   1.062  10.950  0.3202 -1.2503  0.4754
    2SAPS   O12  149   1.288   0.930  11.056  0.4523  0.3662  0.3638
    2SAPS   O11  150   1.377   0.864  10.826  0.4212  0.1691  0.3195
    2SAPS    C1  151   1.423   0.865  10.692  0.1724  1.0794 -0.6408
    2SAPS    HA  152   1.336   0.867  10.623 -2.0178 -2.3827  1.7677
    2SAPS    HB  153   1.490   0.952  10.672  1.7839 -0.0059 -0.1783
    2SAPS    C2  154   1.501   0.726  10.663 -0.4861 -0.2706 -0.4535
    2SAPS    HS  155   1.607   0.736  10.694 -1.0755 -0.5707  1.8193
    2SAPS   O21  156   1.511   0.692  10.526  0.0160  0.1525  0.2953
    2SAPS   C21  157   1.601   0.762  10.455  0.3018 -0.5467 -0.2182
    2SAPS   O22  158   1.672   0.848  10.495  0.2875 -0.6323  0.0119
    2SAPS   C22  159   1.619   0.705  10.315 -0.1322  0.1077  0.0491
    2SAPS   H2R  160   1.575   0.603  10.306  1.2442 -0.2898 -3.4918
    2SAPS   H2S  161   1.567   0.780  10.252 -0.7233  1.1268  1.6751
    2SAPS    C3  162   1.432   0.597  10.732 -0.2470 -0.1830  0.2558
    2SAPS    HX  163   1.440   0.624  10.839 -0.2791  0.2387  0.1539
    2SAPS    HY  164   1.491   0.504  10.723 -1.4777 -1.0887  1.1782
    2SAPS   O31  165   1.301   0.574  10.692  0.2746  0.6109 -0.8778
    2SAPS   C31  166   1.283   0.504  10.577 -0.2529  0.3466  0.5168
    2SAPS   O32  167   1.374   0.458  10.504 -0.4019 -0.3315  0.0693
    2SAPS   C32  168   1.135   0.473  10.553  0.4038 -0.5062 -0.9255
    2SAPS   H2X  169   1.074   0.565  10.567  0.2333 -0.5942 -1.0821
    2SAPS   H2Y  170   1.103   0.406  10.636 -0.1006  2.3780  1.3832
    2SAPS   C23  171   1.766   0.685  10.288 -0.7127 -0.7332  0.1227
    2SAPS   H3R  172   1.811   0.611  10.357 -0.5428 -1.5263 -0.8085
    2SAPS   H3S  173   1.822   0.777  10.312 -1.0421 -0.3876 -0.4039
    2SAPS   C24  174   1.786   0.646  10.135  0.3964 -0.5008 -0.8225
    2SAPS   H4R  175   1.895   0.646  10.112 -0.0864  0.1295 -3.4209
    2SAPS   H4S  176   1.748   0.731  10.074  1.0534 -2.3113 -3.9993
    2SAPS   C25  177   1.729   0.509  10.095  0.1307 -0.5612 -0.4356
    2SAPS   H5R  178   1.761   0.431  10.166  0.1781  0.0695  0.2466
    2SAPS   C26  179   1.667   0.482   9.983  0.9001  0.0014 -0.0812
    2SAPS   H6R  180   1.635   0.380   9.959  1.5622 -0.4626  0.9486
    2SAPS   C27  181   1.646   0.582   9.874 -0.5554  0.0986  0.6224
    2SAPS   H7R  182   1.620   0.671   9.934  0.6501  0.1157  1.1613
    2SAPS   H7S  183   1.552   0.557   9.822  0.4182  0.0994 -1.2425
    2SAPS   C28  184   1.760   0.597   9.784 -0.5289 -0.3720  0.3476
    2SAPS   H8R  185   1.856   0.611   9.835  0.5484 -2.8209 -0.8667
    2SAPS   C29  186   1.762   0.610   9.648  0.3981  0.4529  0.5217
    2SAPS   H9R  187   1.859   0.636   9.603  1.0787  1.2652  2.3602
    2SAPS  C210  188   1.643   0.584   9.559  0.0900  0.0361 -0.6571
    2SAPS  H10R  189   1.547   0.578   9.614  0.1062 -0.0717 -0.6405
    2SAPS  H10S  190   1.660   0.482   9.517  2.3074  0.0357  0.0868
    2SAPS  C211  191   1.643   0.700   9.461  0.0395  0.1434  0.0510
    2SAPS  H11R  192   1.685   0.795   9.498 -0.5530  1.2584 -1.9672
    2SAPS  C212  193   1.601   0.685   9.332 -0.4178  0.4530 -0.3774
    2SAPS  H12R  194   1.607   0.767   9.258 -0.5282  0.5864 -0.2391
    2SAPS  C213  195   1.550   0.558   9.276  0.2253  0.3526  0.6267
    2SAPS  H13R  196   1.466   0.568   9.203 -0.0961  2.2343  1.1791
    2SAPS  H13S  197   1.503   0.487   9.348  1.4486 -0.2887  0.8036
    2SAPS  C214  198   1.664   0.474   9.210 -0.0174  0.0215  0.0974
    2SAPS  H14R  199   1.765   0.500   9.245 -0.8967  0.2905  2.6042
    2SAPS  C215  200   1.641   0.386   9.104  0.3646 -0.4587 -0.5221
    2SAPS  H15R  201   1.727   0.335   9.058  0.7411 -2.6276  2.2971
    2SAPS  C216  202   1.501   0.354   9.053 -0.6517 -1.2329 -0.6610
    2SAPS  H16R  203   1.422   0.361   9.131 -0.4947  0.0188 -0.6024
    2SAPS  H16S  204   1.487   0.245   9.034 -1.9620 -0.5462 -4.5106
    2SAPS  C217  205   1.480   0.423   8.921 -0.6129 -0.3058  0.0281
    2SAPS  H17R  206   1.489   0.533   8.926  3.1170 -0.5266  1.2552
    2SAPS  H17S  207   1.379   0.399   8.881  0.9458  0.5874 -5.2459
    2SAPS  C218  208   1.578   0.365   8.815  0.0414 -0.3120 -0.5819
    2SAPS  H18R  209   1.560   0.257   8.798 -2.1521 -0.3499  1.4775
    2SAPS  H18S  210   1.684   0.377   8.844 -0.1612 -0.6034  0.3318
    2SAPS  C219  211   1.555   0.429   8.683  0.2011 -0.4510  0.5558
    2SAPS  H19R  212   1.567   0.539   8.689 -2.6136 -0.0327  0.0935
    2SAPS  H19S  213   1.450   0.411   8.650  0.5099 -0.9797 -0.1538
    2SAPS  C220  214   1.659   0.373   8.581  0.4712 -0.1362  0.2896
    2SAPS  H20R  215   1.652   0.262   8.591 -1.6434 -0.0555  0.0683
    2SAPS  H20S  216   1.761   0.409   8.606  2.0775 -3.1372 -1.4025
    2SAPS  H20T  217   1.625   0.390   8.477 -2.3952 -2.0133  0.8029
    2SAPS   C33  218   1.106   0.399  10.418 -0.4329  0.5501 -0.4372
    2SAPS   H3X  219   1.149   0.297  10.425 -1.1469  0.2028 -1.0159
    2SAPS   H3Y  220   1.151   0.458  10.335  2.2310  1.0075  1.1849
    2SAPS   C34  221   0.953   0.391  10.405 -0.6202  0.2780 -0.4367
    2SAPS   H4X  222   0.909   0.493  10.412  0.3488  0.6664  5.5787
    2SAPS   H4Y  223   0.912   0.342  10.496  0.7897  0.7821  0.5245
    2SAPS   C35  224   0.900   0.314  10.279  0.1804 -0.7009 -1.1113
    2SAPS   H5X  225   0.789   0.313  10.289  0.2767  1.1086  0.9561
    2SAPS   H5Y  226   0.942   0.211  10.278 -1.7428 -1.5989  1.0487
    2SAPS   C36  227   0.933   0.371  10.140  0.1049 -0.0871  0.0996
    2SAPS   H6X  228   1.044   0.374  10.144  0.1661  0.6376 -1.3248
    2SAPS   H6Y  229   0.890   0.474  10.136 -1.2313 -0.6371 -0.4284
    2SAPS   C37  230   0.877   0.297  10.018 -0.4680  0.5307 -0.0159
    2SAPS   H7X  231   0.766   0.304  10.019 -0.5300 -0.3774 -0.1009
    2SAPS   H7Y  232   0.920   0.195  10.023 -0.4229  0.5436 -0.1333
    2SAPS   C38  233   0.936   0.370   9.891  0.7064  0.3607  0.0216
    2SAPS   H8X  234   1.045   0.352   9.908  0.7420 -1.9504 -2.0952
    2SAPS   H8Y  235   0.913   0.479   9.896  0.5604  0.2740  2.1024
    2SAPS   C39  236   0.901   0.302   9.757  0.8482  0.1230  0.2914
    2SAPS   H9X  237   0.792   0.307   9.735  0.7121  2.1426  1.1938
    2SAPS   H9Y  238   0.941   0.199   9.758 -0.8498 -0.6492 -1.9198
    2SAPS  C310  239   0.951   0.385   9.638 -0.1758  0.2653  0.4330
    2SAPS  H10X  240   1.060   0.408   9.643  0.2322 -1.6166  0.9221
    2SAPS  H10Y  241   0.903   0.485   9.626  1.7361  1.0979 -0.9230
    2SAPS  C311  242   0.938   0.297   9.510 -0.0099 -0.2710  0.9918
    2SAPS  H11X  243   0.828   0.285   9.502 -0.4785  3.3723  0.0333
    2SAPS  H11Y  244   0.989   0.200   9.525  1.5075 -0.1518 -2.5174
    2SAPS  C312  245   0.992   0.366   9.386 -0.1838 -0.6899 -0.3012
    2SAPS  H12X  246   1.070   0.428   9.435 -0.6842  1.7393 -2.3262
    2SAPS  H12Y  247   0.916   0.434   9.341 -0.3898 -1.7871 -1.6746
    2SAPS  C313  248   1.038   0.277   9.273  0.1393  0.5664  0.4181
    2SAPS  H13X  249   0.950   0.222   9.235  0.1216 -1.1063  2.6810
    2SAPS  H13Y  250   1.108   0.199   9.311 -0.8894  0.1790  1.5901
    2SAPS  C314  251   1.111   0.343   9.158  0.4900 -0.0417  0.1275
    2SAPS  H14X  252   1.210   0.384   9.185  0.7560 -0.1110 -0.7198
    2SAPS  H14Y  253   1.045   0.430   9.136  0.5320  0.5795  2.2615
    2SAPS  C315  254   1.152   0.253   9.040 -0.8079 -0.6152  0.8249
    2SAPS  H15X  255   1.224   0.176   9.074  1.4865  0.1958 -1.8714
    2SAPS  H15Y  256   1.203   0.312   8.961 -2.4543 -1.2524 -0.7949
    2SAPS  C316  257   1.034   0.172   8.979 -0.5180  0.1595  0.1993
    2SAPS  H16X  258   0.956   0.250   8.961 -1.0438 -0.6676 -1.2553
    2SAPS  H16Y  259   1.001   0.104   9.061  2.6632 -2.0186 -0.1530
    2SAPS  C317  260   1.065   0.089   8.849  0.1557 -0.2961  0.2288
    2SAPS  H17X  261   1.087   0.163   8.769 -3.9215 -1.1240 -1.9337
    2SAPS  H17Y  262   0.972   0.037   8.820 -1.7817  2.2956  1.3526
    2SAPS  C318  263   1.178  -0.015   8.857 -0.7836 -0.1926 -0.4141
    2SAPS  H18X  264   1.147  -0.107   8.911  1.1783 -0.9921 -0.5530
    2SAPS  H18Y  265   1.272   0.019   8.907  0.9318 -1.6713 -2.4516
    2SAPS  H18Z  266   1.200  -0.053   8.755 -1.5325  1.0023 -1.0339
    3SAPS     N  267   3.295   4.227  10.905 -0.0032 -0.7789  0.0502
    3SAPS   HN1  268   3.318   4.318  10.950 -0.1607  0.3142 -1.9485
    3SAPS   HN2  269   3.357   4.199  10.826  1.4802  1.8197  0.1801
    3SAPS   HN3  270   3.204   4.251  10.859  1.0999 -1.5098 -2.7048
    3SAPS   C12  271   3.296   4.121  11.016  0.0960 -0.4399  0.1788
    3SAPS  H12A  272   3.317   4.034  10.957 -2.1979 -0.5726 -0.5183
    3SAPS   C13  273   3.421   4.134  11.101 -0.1786  0.2393 -0.1974
    3SAPS  O13A  274   3.515   4.198  11.059 -0.7574 -0.3119  0.2378
    3SAPS  O13B  275   3.437   4.046  11.190  0.0874  0.9848  0.6468
    3SAPS   C11  276   3.159   4.117  11.092 -0.4428 -0.9666 -0.2433
    3SAPS  H11A  277   3.133   4.217  11.130 -1.0209 -0.3214 -2.1860
    3SAPS  H11B  278   3.170   4.055  11.183 -0.4755 -1.8805 -0.8402
    3SAPS     P  279   2.950   3.979  11.046 -0.2600  0.6186 -0.1735
    3SAPS   O13  280   2.996   3.839  11.075 -0.6405 -0.5179 -0.5764
    3SAPS   O14  281   2.883   4.043  11.159 -0.3541 -0.0095 -0.2757
    3SAPS   O12  282   3.065   4.063  11.002  0.4520 -0.2234  0.6229
    3SAPS   O11  283   2.851   3.973  10.925  0.1397  0.3086  0.1527
    3SAPS    C1  284   2.906   3.967  10.790  0.8093  0.2902 -0.6030
    3SAPS    HA  285   3.014   3.989  10.786  0.8516  0.7922  1.9314
    3SAPS    HB  286   2.899   3.863  10.752 -0.4146 -0.1637  0.8075
    3SAPS    C2  287   2.837   4.072  10.706  0.4554 -0.7776 -0.4204
    3SAPS    HS  288   2.849   4.178  10.739 -4.3237  0.3631 -1.6063
    3SAPS   O21  289   2.704   4.039  10.685  0.6286  0.7601  0.1156
    3SAPS   C21  290   2.609   4.102  10.749 -0.7547 -0.1212  0.0336
    3SAPS   O22  291   2.628   4.189  10.834 -0.6770 -0.2491  0.9807
    3SAPS   C22  292   2.464   4.066  10.697  0.6200  0.3227  0.2572
    3SAPS   H2R  293   2.469   4.022  10.595  0.1208  1.2438 -0.1774
    3SAPS   H2S  294   2.405   4.011  10.773  0.5531  1.8864  1.3828
    3SAPS    C3  295   2.900   4.074  10.568  0.7520  1.0339 -0.3228
    3SAPS    HX  296   2.882   3.973  10.525 -0.8857 -0.0836  2.6948
    3SAPS    HY  297   3.010   4.084  10.570  1.0011 -1.3116  0.2283
    3SAPS   O31  298   2.842   4.181  10.485 -0.6304 -0.1401 -0.7752
    3SAPS   C31  299   2.891   4.299  10.500 -0.4120  0.2369 -0.0153
    3SAPS   O32  300   2.968   4.334  10.589 -0.4203 -0.3730 -0.3534
    3SAPS   C32  301   2.836   4.390  10.391 -0.1962 -0.2452 -0.6358
    3SAPS   H2X  302   2.874   4.495  10.397  1.6491 -0.6722 -3.1640
    3SAPS   H2Y  303   2.726   4.401  10.401 -0.2906  1.1738 -2.5699
    3SAPS   C23  304   2.381   4.197  10.674 -0.3345 -0.3964  0.7513
    3SAPS   H3R  305   2.404   4.270  10.755 -1.3906  3.3835 -2.0507
    3SAPS   H3S  306   2.276   4.159  10.672  0.5478 -3.1749 -3.2140
    3SAPS   C24  307   2.417   4.266  10.543  0.2099 -0.0463 -0.0571
    3SAPS   H4R  308   2.383   4.212  10.452  3.2196  0.1422 -1.4019
    3SAPS   H4S  309   2.527   4.276  10.532  0.1365  1.3706  0.3516
    3SAPS   C25  310   2.354   4.401  10.539  0.3697 -0.0943  0.0624
    3SAPS   H5R  311   2.343   4.450  10.637  2.6576  2.8430 -1.0130
    3SAPS   C26  312   2.315   4.468  10.431 -0.0582  0.5017 -0.5043
    3SAPS   H6R  313   2.271   4.569  10.438 -1.0257  0.1718 -1.5619
    3SAPS   C27  314   2.330   4.424  10.288  0.3254  0.5327 -0.0719
    3SAPS   H7R  315   2.328   4.313  10.280 -0.6433  0.5207  0.2626
    3SAPS   H7S  316   2.425   4.450  10.237 -0.7834  4.4112 -0.4168
    3SAPS   C28  317   2.213   4.480  10.213 -0.6526  0.2737 -0.3942
    3SAPS   H8R  318   2.114   4.463  10.259 -0.2553  0.8595  0.7200
    3SAPS   C29  319   2.213   4.546  10.098 -0.7302  0.4338  0.5889
    3SAPS   H9R  320   2.115   4.584  10.066 -0.0273  2.0983  0.3254
    3SAPS  C210  321   2.326   4.567  10.001  0.0314 -0.4577  0.1669
    3SAPS  H10R  322   2.302   4.493   9.922 -0.5391 -0.0696 -0.0290
    3SAPS  H10S  323   2.424   4.541  10.047 -0.8875 -3.5334  0.5583
    3SAPS  C211  324   2.312   4.710   9.945  0.4724 -0.7016  0.2228
    3SAPS  H11R  325   2.345   4.790  10.013  0.2481 -1.3205  1.0932
    3SAPS  C212  326   2.281   4.754   9.822 -0.4917  0.1736  0.1593
    3SAPS  H12R  327   2.281   4.862   9.806  0.6968  0.1089 -0.3889
    3SAPS  C213  328   2.249   4.667   9.707  0.1099 -0.2997  0.3722
    3SAPS  H13R  329   2.216   4.562   9.721  0.2352 -0.3463  0.3164
    3SAPS  H13S  330   2.340   4.656   9.644 -1.4299 -0.9837 -1.8732
    3SAPS  C214  331   2.153   4.739   9.607  0.1220  0.3438 -0.1462
    3SAPS  H14R  332   2.048   4.718   9.631  0.5229 -1.0796  0.4368
    3SAPS  C215  333   2.178   4.819   9.504  0.4869 -0.5849 -0.2349
    3SAPS  H15R  334   2.085   4.846   9.451 -0.5152 -0.8320  1.3154
    3SAPS  C216  335   2.318   4.863   9.460  0.1241  0.7356 -0.0373
    3SAPS  H16R  336   2.395   4.813   9.523 -0.8809  0.8276  1.3290
    3SAPS  H16S  337   2.335   4.972   9.470  1.0828  1.1352 -4.2820
    3SAPS  C217  338   2.341   4.831   9.312  0.1451 -0.2474 -0.4598
    3SAPS  H17R  339   2.335   4.723   9.290 -1.0714 -0.7299  2.0054
    3SAPS  H17S  340   2.449   4.854   9.300  0.4390 -0.9374  0.7210
    3SAPS  C218  341   2.263   4.918   9.212  0.5404 -0.2375 -1.1891
    3SAPS  H18R  342   2.258   5.018   9.258  3.0595  0.0867 -1.4621
    3SAPS  H18S  343   2.165   4.867   9.196  0.9822 -0.9568 -1.7110
    3SAPS  C219  344   2.321   4.950   9.079 -0.1508  0.2372  1.0339
    3SAPS  H19R  345   2.379   4.865   9.035 -1.3967 -0.2654  0.3002
    3SAPS  H19S  346   2.390   5.036   9.091 -0.8248  1.2012 -1.3032
    3SAPS  C220  347   2.217   5.003   8.978  0.0198 -0.5160 -0.7158
    3SAPS  H20R  348   2.140   4.925   8.959 -0.1366 -0.0317 -2.2552
    3SAPS  H20S  349   2.264   5.042   8.885 -2.4527  2.9512 -0.7314
    3SAPS  H20T  350   2.161   5.085   9.028  1.1743 -0.0863 -0.0910
    3SAPS   C33  351   2.877   4.346  10.249  0.1902  0.1467  0.0108
    3SAPS   H3X  352   2.840   4.420  10.175  0.0225 -1.2556 -1.3609
    3SAPS   H3Y  353   2.820   4.256  10.218 -1.5464  1.5388 -1.0642
    3SAPS   C34  354   3.031   4.327  10.222 -0.7873  0.2745  0.1703
    3SAPS   H4X  355   3.055   4.239  10.285 -1.2577  0.6059  0.8189
    3SAPS   H4Y  356   3.083   4.411  10.274 -1.7186  1.0029 -0.0454
    3SAPS   C35  357   3.075   4.313  10.077  0.2337 -0.2782  0.0549
    3SAPS   H5X  358   3.035   4.225  10.021 -2.8938  2.3582 -2.2086
    3SAPS   H5Y  359   3.185   4.300  10.069 -0.0243 -1.9805 -1.4974
    3SAPS   C36  360   3.055   4.434   9.991  0.5239 -0.2282  0.3245
    3SAPS   H6X  361   3.077   4.529  10.044  0.0950  1.1380 -1.8093
    3SAPS   H6Y  362   2.947   4.443   9.967  0.8150  0.9283 -0.6252
    3SAPS   C37  363   3.133   4.418   9.854  0.4549 -0.9333 -0.1475
    3SAPS   H7X  364   3.113   4.319   9.809  0.2414 -0.0518 -2.1302
    3SAPS   H7Y  365   3.243   4.418   9.871  1.2058 -0.2160 -3.9302
    3SAPS   C38  366   3.098   4.530   9.755  0.0304  0.2146  0.3512
    3SAPS   H8X  367   3.126   4.630   9.794  0.5816 -0.3414  1.4160
    3SAPS   H8Y  368   2.987   4.536   9.747 -0.0425 -0.3608  0.8496
    3SAPS   C39  369   3.167   4.521   9.615  0.5435 -0.5815  0.1645
    3SAPS   H9X  370   3.151   4.417   9.578  1.4273 -0.1994 -1.4136
    3SAPS   H9Y  371   3.274   4.547   9.629  0.1082  2.4079 -1.2679
    3SAPS  C310  372   3.112   4.625   9.512  0.0740  0.1237  0.2317
    3SAPS  H10X  373   3.097   4.725   9.557  0.6160 -0.1231  0.9670
    3SAPS  H10Y  374   3.009   4.591   9.485 -0.7431  0.5723  2.6131
    3SAPS  C311  375   3.199   4.645   9.389 -0.0837  0.4658 -0.1735
    3SAPS  H11X  376   3.211   4.551   9.331 -0.9305  0.0712  0.2800
    3SAPS  H11Y  377   3.303   4.675   9.414 -1.0922  2.6866  1.6968
    3SAPS  C312  378   3.140   4.743   9.285 -0.0429 -0.6243  0.1808
    3SAPS  H12X  379   3.114   4.841   9.331  0.0640  0.5540 -2.1610
    3SAPS  H12Y  380   3.051   4.697   9.237  0.4885 -0.4663 -0.9623
    3SAPS  C313  381   3.231   4.783   9.174 -0.3151  0.5985 -0.4469
    3SAPS  H13X  382   3.305   4.702   9.157 -0.1689  0.8812 -1.2351
    3SAPS  H13Y  383   3.291   4.870   9.207 -0.6862  0.8511 -0.4364
    3SAPS  C314  384   3.153   4.826   9.048 -0.2419  0.0216 -0.2119
    3SAPS  H14X  385   3.122   4.933   9.055 -2.6436 -0.6333  0.1122
    3SAPS  H14Y  386   3.068   4.757   9.030  0.5845 -2.0764  2.9959
    3SAPS  C315  387   3.255   4.798   8.945 -0.3036  0.1731  0.4214
    3SAPS  H15X  388   3.289   4.693   8.932 -2.8836 -0.6603 -0.2281
    3SAPS  H15Y  389   3.344   4.855   8.981 -0.8744  0.7170  0.9919
    3SAPS  C316  390   3.224   4.846   8.803  0.0318 -0.7048 -0.4885
    3SAPS  H16X  391   3.310   4.816   8.739 -0.4028 -1.1431 -0.8733
    3SAPS  H16Y  392   3.219   4.956   8.794  1.6686 -0.5716 -0.0175
    3SAPS  C317  393   3.103   4.784   8.731 -0.6240  0.0940 -0.6452
    3SAPS  H17X  394   3.102   4.823   8.627 -2.1582 -1.0622 -1.0942
    3SAPS  H17Y  395   3.009   4.823   8.776  1.6745  0.3166  4.8326
    3SAPS  C318  396   3.093   4.629   8.717 -0.4575 -0.5371 -0.3649
    3SAPS  H18X  397   3.178   4.574   8.672 -3.2789 -4.6366 -1.2890
    3SAPS  H18Y  398   3.003   4.604   8.657 -0.5957  0.1936 -0.4713
    3SAPS  H18Z  399   3.087   4.580   8.817  2.7692  0.9281  0.6899
    4SAPS     N  400   5.039   4.257  10.936  0.9599  0.5627  0.7628
    4SAPS   HN1  401   5.112   4.204  10.884 -0.3358 -0.6784  0.1218
    4SAPS   HN2  402   5.048   4.359  10.916 -1.4583  0.7123  0.0875
    4SAPS   HN3  403   5.061   4.252  11.037  0.8706  2.5119  0.9189
    4SAPS   C12  404   4.904   4.209  10.892  0.0597  0.5271  0.2739
    4SAPS  H12A  405   4.907   4.190  10.786  2.4649 -0.3042  0.4068
    4SAPS   C13  406   4.877   4.070  10.955 -0.5889  0.4183  0.1867
    4SAPS  O13A  407   4.946   4.022  11.050 -0.4189 -0.4247 -0.0469
    4SAPS  O13B  408   4.771   4.008  10.915 -0.6903 -0.0436 -0.3430
    4SAPS   C11  409   4.797   4.306  10.920  0.9770 -0.0024  0.3744
    4SAPS  H11A  410   4.791   4.338  11.027 -0.7870 -0.7266  0.5239
    4SAPS  H11B  411   4.698   4.259  10.904  1.1134 -0.3770  0.6005
    4SAPS     P  412   4.734   4.554  10.861 -0.0081  0.0982  0.1918
    4SAPS   O13  413   4.613   4.523  10.940 -0.3170  0.0864 -0.4019
    4SAPS   O14  414   4.829   4.648  10.926 -0.0135 -0.2510 -0.5289
    4SAPS   O12  415   4.817   4.425  10.840  0.1714 -0.3380  0.0756
    4SAPS   O11  416   4.703   4.606  10.713 -1.0482  0.2478 -0.7412
    4SAPS    C1  417   4.638   4.532  10.613 -0.1560  0.0782  0.0675
    4SAPS    HA  418   4.542   4.489  10.647 -0.2543 -0.5732 -0.9909
    4SAPS    HB  419   4.598   4.593  10.530 -1.5508 -0.4272  0.3457
    4SAPS    C2  420   4.723   4.422  10.548 -0.1105 -0.9177 -0.0287
    4SAPS    HS  421   4.817   4.414  10.605  0.0982  3.7197  0.6158
    4SAPS   O21  422   4.752   4.453  10.413 -0.3795 -0.2486  0.2443
    4SAPS   C21  423   4.851   4.384  10.361  0.2217 -0.5916 -0.7958
    4SAPS   O22  424   4.910   4.288  10.409 -0.1049  0.2848 -0.0795
    4SAPS   C22  425   4.887   4.438  10.222  0.2529  0.6659  0.1584
    4SAPS   H2R  426   4.932   4.534  10.255 -0.5783  1.1961 -0.2021
    4SAPS   H2S  427   4.964   4.370  10.182 -0.0782  1.1059 -1.2684
    4SAPS    C3  428   4.647   4.289  10.561  0.0352 -0.0340 -0.0835
    4SAPS    HX  429   4.629   4.261  10.667  1.9986  0.8423  0.5190
    4SAPS    HY  430   4.709   4.201  10.533  1.2309  0.8444 -0.2847
    4SAPS   O31  431   4.516   4.292  10.494  0.1162  0.0697 -0.1438
    4SAPS   C31  432   4.520   4.233  10.375  0.4854 -0.3338 -0.0667
    4SAPS   O32  433   4.618   4.200  10.308 -0.1508  0.2382 -0.6369
    4SAPS   C32  434   4.378   4.226  10.336 -1.5385  0.2070  0.1953
    4SAPS   H2X  435   4.319   4.318  10.357 -1.9630 -0.2518  1.0815
    4SAPS   H2Y  436   4.335   4.143  10.396  0.8537 -2.8698 -2.0503
    4SAPS   C23  437   4.763   4.451  10.137  0.0091 -0.1675  0.2265
    4SAPS   H3R  438   4.668   4.470  10.190  0.2458 -0.2844  0.6963
    4SAPS   H3S  439   4.742   4.352  10.092  0.9110  0.1138 -0.8626
    4SAPS   C24  440   4.768   4.564  10.030 -0.2806 -0.3242 -0.1897
    4SAPS   H4R  441   4.773   4.658  10.090  0.7140 -0.0930 -0.6104
    4SAPS   H4S  442   4.679   4.583   9.968 -1.6597 -0.9814  1.5034
    4SAPS   C25  443   4.899   4.553   9.955 -0.3519  0.2672  0.1308
    4SAPS   H5R  444   4.983   4.605  10.003  0.5517  0.9334 -2.0562
    4SAPS   C26  445   4.917   4.522   9.830 -0.3015 -0.6092  0.1126
    4SAPS   H6R  446   5.020   4.519   9.792 -0.5671 -1.6095 -0.5963
    4SAPS   C27  447   4.810   4.488   9.729  0.1075 -0.4697 -0.2028
    4SAPS   H7R  448   4.739   4.572   9.713  1.2832  0.3046 -1.5525
    4SAPS   H7S  449   4.738   4.411   9.762 -0.7377  1.0972  1.8596
    4SAPS   C28  450   4.854   4.450   9.591 -0.3014 -0.2923  0.1857
    4SAPS   H8R  451   4.904   4.353   9.583 -0.4191 -0.3539  0.1877
    4SAPS   C29  452   4.840   4.527   9.481 -0.1741 -0.5240  0.1652
    4SAPS   H9R  453   4.880   4.489   9.386  0.3767  0.7212 -0.1174
    4SAPS  C210  454   4.766   4.656   9.463 -0.2092 -0.0591  0.1990
    4SAPS  H10R  455   4.685   4.666   9.539  1.0592  0.4853  1.5233
    4SAPS  H10S  456   4.716   4.672   9.365 -1.2986  0.3044  0.7950
    4SAPS  C211  457   4.857   4.778   9.488  0.0153  0.0795  0.2664
    4SAPS  H11R  458   4.897   4.786   9.590  0.4439  0.5976  0.0655
    4SAPS  C212  459   4.870   4.881   9.408 -0.1423  0.5101  0.5547
    4SAPS  H12R  460   4.944   4.959   9.434 -1.4944  1.4706  1.6296
    4SAPS  C213  461   4.805   4.910   9.275 -0.1250 -0.3817  0.1334
    4SAPS  H13R  462   4.766   4.815   9.232 -3.6239  0.4052  1.1919
    4SAPS  H13S  463   4.882   4.963   9.215  1.6675 -1.6169  1.2427
    4SAPS  C214  464   4.685   4.997   9.298 -0.3477 -0.7110 -0.9621
    4SAPS  H14R  465   4.612   4.964   9.374 -0.3176 -0.2953 -0.7507
    4SAPS  C215  466   4.658   5.118   9.253 -0.2180 -0.2156 -0.1200
    4SAPS  H15R  467   4.566   5.166   9.289 -0.7552 -0.3147 -1.2961
    4SAPS  C216  468   4.739   5.201   9.159  0.5497  0.3739  0.4091
    4SAPS  H16R  469   4.840   5.160   9.138  1.0567 -0.3895  3.7798
    4SAPS  H16S  470   4.779   5.296   9.201 -1.9850  1.8583 -0.3115
    4SAPS  C217  471   4.661   5.223   9.035 -0.2085  0.1716 -0.1195
    4SAPS  H17R  472   4.716   5.295   8.970  2.6703  1.0988  3.0360
    4SAPS  H17S  473   4.571   5.284   9.053 -0.8070 -0.3787 -1.1347
    4SAPS  C218  474   4.628   5.094   8.956  0.5896  0.6611  0.5930
    4SAPS  H18R  475   4.569   5.028   9.023 -0.8830  2.8251  1.5467
    4SAPS  H18S  476   4.722   5.043   8.928 -0.8148 -0.9291 -1.5164
    4SAPS  C219  477   4.547   5.117   8.829  0.8642 -0.4573  0.0947
    4SAPS  H19R  478   4.608   5.181   8.761 -0.9546 -0.9117 -2.0827
    4SAPS  H19S  479   4.458   5.177   8.857  1.3917 -0.2597  1.4262
    4SAPS  C220  480   4.515   4.987   8.765  0.5637  0.4043 -1.0528
    4SAPS  H20R  481   4.492   4.908   8.840  2.6253 -1.6244 -2.4071
    4SAPS  H20S  482   4.610   4.951   8.719  1.0359 -0.6437  0.6570
    4SAPS  H20T  483   4.433   4.997   8.691 -1.1332  0.0463  0.7018
    4SAPS   C33  484   4.361   4.187  10.192  0.1778  0.1658  0.7985
    4SAPS   H3X  485   4.260   4.149  10.165  0.2180 -0.5286  1.6049
    4SAPS   H3Y  486   4.424   4.097  10.175 -1.8943 -1.1992 -0.0119
    4SAPS   C34  487   4.409   4.289  10.083 -0.2049 -0.2825  0.6281
    4SAPS   H4X  488   4.476   4.247  10.005 -0.2216  1.4207 -0.3503
    4SAPS   H4Y  489   4.462   4.365  10.144  0.3255 -0.9941  1.0659
    4SAPS   C35  490   4.285   4.346  10.006 -0.6197  0.3549  0.2491
    4SAPS   H5X  491   4.230   4.425  10.061 -1.9108 -1.4448  1.7084
    4SAPS   H5Y  492   4.218   4.262   9.975 -0.9443  0.4779  0.5982
    4SAPS   C36  493   4.324   4.417   9.878 -0.1888 -0.6455 -0.3020
    4SAPS   H6X  494   4.415   4.476   9.902 -0.1069 -0.8997  0.0156
    4SAPS   H6Y  495   4.239   4.478   9.841  1.2090  0.7050 -1.3893
    4SAPS   C37  496   4.367   4.323   9.765 -0.2033  0.1760  0.1507
    4SAPS   H7X  497   4.289   4.254   9.728  0.0963  0.7300 -1.5806
    4SAPS   H7Y  498   4.443   4.252   9.806 -1.0629 -1.4122 -0.8959
    4SAPS   C38  499   4.418   4.393   9.637  0.0792  0.5168  0.1467
    4SAPS   H8X  500   4.473   4.477   9.686 -1.7055  0.5874  2.1661
    4SAPS   H8Y  501   4.334   4.439   9.581  0.6314  0.2886 -0.9133
    4SAPS   C39  502   4.508   4.305   9.546  0.2771 -0.6736  0.1196
    4SAPS   H9X  503   4.445   4.214   9.532 -4.4963  2.4751 -0.8836
    4SAPS   H9Y  504   4.605   4.282   9.596 -0.0520 -0.1239  1.0252
    4SAPS  C310  505   4.533   4.370   9.414  0.0496 -0.1437  0.1575
    4SAPS  H10X  506   4.584   4.466   9.438 -1.6877  1.3761 -1.8948
    4SAPS  H10Y  507   4.439   4.389   9.358  1.0622 -2.0947 -2.4107
    4SAPS  C311  508   4.638   4.286   9.340 -0.5044 -0.5394  0.4864
    4SAPS  H11X  509   4.603   4.182   9.320  0.2328 -1.0160  1.6016
    4SAPS  H11Y  510   4.723   4.287   9.411 -0.2788 -3.0772  0.3583
    4SAPS  C312  511   4.680   4.349   9.203  0.0863 -0.2353 -0.3532
    4SAPS  H12X  512   4.714   4.453   9.222 -1.4522  0.8219 -2.8526
    4SAPS  H12Y  513   4.594   4.360   9.133 -0.7603  2.2786  0.9516
    4SAPS  C313  514   4.788   4.272   9.129 -0.0042 -0.0798 -0.0068
    4SAPS  H13X  515   4.756   4.172   9.093  1.6819 -0.6761  0.0443
    4SAPS  H13Y  516   4.874   4.252   9.196  0.5835  0.9320 -0.4263
    4SAPS  C314  517   4.848   4.355   9.013 -0.0558  0.3880  0.0528
    4SAPS  H14X  518   4.885   4.449   9.058  0.0205 -0.6088  2.2137
    4SAPS  H14Y  519   4.765   4.399   8.954  0.3460  1.4479  0.2574
    4SAPS  C315  520   4.941   4.282   8.919  0.2610  0.5276  0.1251
    4SAPS  H15X  521   4.891   4.200   8.863 -0.8344  1.6363 -0.5716
    4SAPS  H15Y  522   5.018   4.232   8.981 -0.5245 -1.5224 -0.4650
    4SAPS  C316  523   4.998   4.367   8.807  0.2598  0.0703 -0.1649
    4SAPS  H16X  524   4.922   4.438   8.767  0.5351  0.6842  0.3911
    4SAPS  H16Y  525   5.051   4.307   8.730 -1.6273  1.2226 -2.5065
    4SAPS  C317  526   5.115   4.441   8.867 -0.1788  0.3970  0.3073
    4SAPS  H17X  527   5.179   4.384   8.937  1.5513  2.4105  0.4585
    4SAPS  H17Y  528   5.073   4.516   8.938  1.4785 -1.1482  3.0765
    4SAPS  C318  529   5.214   4.508   8.764 -0.6108 -0.3410 -0.9006
    4SAPS  H18X  530   5.296   4.562   8.816  2.4479 -4.4342 -0.9616
    4SAPS  H18Y  531   5.156   4.582   8.705 -1.1692 -0.4669 -0.5138
    4SAPS  H18Z  532   5.257   4.431   8.697  1.7002  1.0307 -1.0873
    5SAPS     N  533   2.550   3.348  11.172  0.8773  0.2579 -0.3814
    5SAPS   HN1  534   2.452   3.313  11.177  1.8787 -2.7235  1.1418
    5SAPS   HN2  535   2.598   3.312  11.088 -0.3752  0.6059 -1.2789
    5SAPS   HN3  536   2.604   3.338  11.261 -0.3119 -0.1160  0.3305
    5SAPS   C12  537   2.546   3.493  11.151  0.3855 -0.0681  0.1621
    5SAPS  H12A  538   2.489   3.531  11.233 -3.1453 -1.6156 -1.3778
    5SAPS   C13  539   2.683   3.572  11.135  0.4765  0.7195 -0.1343
    5SAPS  O13A  540   2.795   3.515  11.147 -0.0606  0.0428  0.1135
    5SAPS  O13B  541   2.666   3.694  11.130 -0.4639  0.7695  0.1424
    5SAPS   C11  542   2.470   3.510  11.019  0.2940 -0.2337 -0.3219
    5SAPS  H11A  543   2.509   3.455  10.931  0.8282 -2.3895  1.1606
    5SAPS  H11B  544   2.482   3.613  10.980 -1.6129  0.7134  1.3992
    5SAPS     P  545   2.220   3.609  11.053 -0.4602  0.5693  0.0881
    5SAPS   O13  546   2.084   3.548  11.070 -0.1685 -0.3570  0.7183
    5SAPS   O14  547   2.265   3.699  11.159  0.2527  0.0882  0.2278
    5SAPS   O12  548   2.325   3.484  11.044  0.0495  0.3150  0.2845
    5SAPS   O11  549   2.242   3.676  10.916 -0.3202  0.3028  0.5043
    5SAPS    C1  550   2.223   3.607  10.800  0.4512  0.4188 -0.6023
    5SAPS    HA  551   2.295   3.524  10.785  0.0130  0.1061 -0.9656
    5SAPS    HB  552   2.121   3.565  10.785  0.9309 -0.1887 -2.4291
    5SAPS    C2  553   2.232   3.708  10.677 -0.2164 -0.3656 -0.7273
    5SAPS    HS  554   2.188   3.653  10.592 -2.3759  1.0364 -0.6001
    5SAPS   O21  555   2.369   3.752  10.660 -0.3180  0.2513 -0.1003
    5SAPS   C21  556   2.428   3.700  10.550  0.0201  0.2392  0.8789
    5SAPS   O22  557   2.371   3.631  10.465 -0.3685 -0.1959 -0.1274
    5SAPS   C22  558   2.579   3.729  10.548 -0.0663 -0.1499 -0.4491
    5SAPS   H2R  559   2.596   3.830  10.592 -2.0115  0.5029 -1.0828
    5SAPS   H2S  560   2.622   3.649  10.611  1.2057  1.2433  0.5058
    5SAPS    C3  561   2.141   3.825  10.696  0.6873 -0.2616 -0.2384
    5SAPS    HX  562   2.163   3.886  10.786 -0.2158  0.7468 -0.6867
    5SAPS    HY  563   2.036   3.792  10.714  1.4324 -3.2021 -0.6551
    5SAPS   O31  564   2.149   3.908  10.573  0.1234 -0.2181  0.1050
    5SAPS   C31  565   2.066   3.999  10.565 -0.1175  0.0885  0.2093
    5SAPS   O32  566   1.980   4.041  10.643 -0.0870  0.9682 -0.0493
    5SAPS   C32  567   2.080   4.063  10.425  0.1919  0.0257  0.3493
    5SAPS   H2X  568   2.103   4.169  10.451  1.8041 -0.4394  0.9627
    5SAPS   H2Y  569   1.983   4.074  10.373 -0.1702 -1.9456  0.5329
    5SAPS   C23  570   2.642   3.722  10.403  0.1615 -0.0157  0.5087
    5SAPS   H3R  571   2.631   3.626  10.347 -3.5886  0.4895  0.1523
    5SAPS   H3S  572   2.750   3.749  10.410  0.0549  1.5353 -2.3266
    5SAPS   C24  573   2.587   3.824  10.297  0.3723 -0.7770  0.2467
    5SAPS   H4R  574   2.478   3.804  10.291 -0.0014  0.2718  2.5506
    5SAPS   H4S  575   2.636   3.799  10.200 -1.2044 -2.0408 -0.2700
    5SAPS   C25  576   2.590   3.969  10.331  0.0181 -0.4046  0.5012
    5SAPS   H5R  577   2.584   3.992  10.438 -1.7208 -1.3774  0.6563
    5SAPS   C26  578   2.605   4.076  10.243 -0.3310 -0.5174  0.2678
    5SAPS   H6R  579   2.606   4.177  10.285 -0.6010 -0.5465  0.3450
    5SAPS   C27  580   2.616   4.069  10.093 -0.2483  0.2267 -0.3969
    5SAPS   H7R  581   2.615   3.962  10.064  0.5386 -0.3902  1.7059
    5SAPS   H7S  582   2.714   4.118  10.073  0.2403 -1.1352 -1.5505
    5SAPS   C28  583   2.487   4.133  10.038 -0.3206 -0.0513 -0.0164
    5SAPS   H8R  584   2.393   4.082  10.063  0.0116 -0.3449  0.6539
    5SAPS   C29  585   2.488   4.247   9.966 -0.0202  0.2610  0.4071
    5SAPS   H9R  586   2.394   4.297   9.939  0.1165  0.4020  0.1952
    5SAPS  C210  587   2.613   4.321   9.919  0.4589 -0.8556 -0.3406
    5SAPS  H10R  588   2.683   4.334  10.004  0.0339  0.9052 -0.2039
    5SAPS  H10S  589   2.592   4.428   9.896 -0.2216 -1.1290 -1.0363
    5SAPS  C211  590   2.686   4.243   9.819  0.4325  0.7875 -0.5541
    5SAPS  H11R  591   2.689   4.137   9.851 -1.3801  0.6279 -0.8186
    5SAPS  C212  592   2.745   4.285   9.708  0.4935  0.1279 -0.1182
    5SAPS  H12R  593   2.790   4.212   9.639 -1.1637  0.0342 -1.1460
    5SAPS  C213  594   2.737   4.414   9.644 -0.2513 -0.4106 -0.2451
    5SAPS  H13R  595   2.807   4.427   9.559  0.1662 -0.2456  0.1212
    5SAPS  H13S  596   2.782   4.485   9.717  1.0880  0.3254 -1.7296
    5SAPS  C214  597   2.598   4.459   9.607  0.8337 -0.1832 -0.2261
    5SAPS  H14R  598   2.523   4.459   9.687  0.1243  1.5372 -0.8363
    5SAPS  C215  599   2.553   4.511   9.490  0.0069  0.4201  0.0989
    5SAPS  H15R  600   2.446   4.526   9.473  0.0650  1.1003  0.3142
    5SAPS  C216  601   2.641   4.535   9.370 -0.0785  0.6099 -0.2333
    5SAPS  H16R  602   2.746   4.560   9.397  0.1719  0.2858 -0.8522
    5SAPS  H16S  603   2.616   4.633   9.324  0.0591  0.7543 -0.0007
    5SAPS  C217  604   2.638   4.418   9.267 -0.1373  0.4057 -0.3018
    5SAPS  H17R  605   2.543   4.424   9.211 -1.9936 -0.9268  2.4817
    5SAPS  H17S  606   2.653   4.325   9.326 -1.3449  0.3567 -0.0612
    5SAPS  C218  607   2.751   4.418   9.155  0.4224 -0.0435 -0.3562
    5SAPS  H18R  608   2.740   4.320   9.104  0.9503  0.5185 -1.5703
    5SAPS  H18S  609   2.736   4.499   9.081 -0.9391 -1.1748 -1.4010
    5SAPS  C219  610   2.899   4.428   9.199 -0.6826  0.5756 -0.2778
    5SAPS  H19R  611   2.927   4.347   9.270  0.8387  1.2705 -0.0544
    5SAPS  H19S  612   2.926   4.515   9.262  0.0664  0.9425 -1.0883
    5SAPS  C220  613   2.996   4.413   9.086  0.3219 -0.1289  0.1513
    5SAPS  H20R  614   2.975   4.329   9.015 -0.4804  0.1949 -0.0130
    5SAPS  H20S  615   3.103   4.410   9.114  0.7264  3.0997 -0.6881
    5SAPS  H20T  616   2.983   4.507   9.028 -0.7402  0.0196  0.5949
    5SAPS   C33  617   2.177   4.024  10.310  0.5641  0.1864 -0.9097
    5SAPS   H3X  618   2.277   4.026  10.358  0.3779  1.3625 -0.5339
    5SAPS   H3Y  619   2.166   4.106  10.236 -2.7586  1.9045  1.2719
    5SAPS   C34  620   2.147   3.889  10.242  0.7000 -0.0801  0.6373
    5SAPS   H4X  621   2.051   3.892  10.187  1.8022 -1.1672 -1.4685
    5SAPS   H4Y  622   2.147   3.807  10.317  0.4215  0.3670  1.1355
    5SAPS   C35  623   2.249   3.854  10.135 -0.3735 -0.2365  0.1237
    5SAPS   H5X  624   2.352   3.892  10.148 -0.0670 -1.0646  0.1097
    5SAPS   H5Y  625   2.220   3.906  10.041 -0.5566 -1.2985 -0.4161
    5SAPS   C36  626   2.257   3.706  10.095 -0.6892  0.6798  0.1428
    5SAPS   H6X  627   2.159   3.654  10.087  0.1068 -0.9062  0.2235
    5SAPS   H6Y  628   2.301   3.653  10.183 -2.9189 -0.1420  0.8319
    5SAPS   C37  629   2.336   3.684   9.961 -0.0647  0.6911 -0.0634
    5SAPS   H7X  630   2.423   3.753   9.949  1.1906 -0.4930  1.6672
    5SAPS   H7Y  631   2.271   3.708   9.874 -0.2327  0.2254 -0.0711
    5SAPS   C38  632   2.386   3.540   9.949 -0.7900  0.3818 -0.4375
    5SAPS   H8X  633   2.302   3.470   9.966 -0.9771  0.6172 -0.3966
    5SAPS   H8Y  634   2.463   3.519  10.027 -0.8811 -0.2523 -0.5141
    5SAPS   C39  635   2.463   3.511   9.812 -0.0311 -0.0870  0.1073
    5SAPS   H9X  636   2.514   3.413   9.815  1.3970  0.6510  1.2214
    5SAPS   H9Y  637   2.542   3.588   9.795  1.2653 -0.7767  2.6296
    5SAPS  C310  638   2.372   3.516   9.690 -0.0866  0.3977 -0.4938
    5SAPS  H10X  639   2.352   3.625   9.674 -0.2825  0.4494  0.0701
    5SAPS  H10Y  640   2.267   3.480   9.690 -0.0343  0.1615  1.1981
    5SAPS  C311  641   2.450   3.457   9.562  0.4913  0.1163 -0.6164
    5SAPS  H11X  642   2.452   3.348   9.579  0.8778  0.5038  2.3212
    5SAPS  H11Y  643   2.557   3.487   9.563  1.3686 -2.7776  0.8737
    5SAPS  C312  644   2.384   3.491   9.431  1.0925 -0.3094  0.3674
    5SAPS  H12X  645   2.393   3.602   9.422  0.6070 -0.4149 -1.8284
    5SAPS  H12Y  646   2.278   3.463   9.445  1.4552 -1.8322  0.2227
    5SAPS  C313  647   2.437   3.428   9.303  0.2661 -0.1758  0.2909
    5SAPS  H13X  648   2.413   3.320   9.309 -0.3288  0.0363  2.6016
    5SAPS  H13Y  649   2.546   3.442   9.289  0.2487 -0.7926 -0.5408
    5SAPS  C314  650   2.367   3.498   9.178  0.5740  0.3356 -0.3548
    5SAPS  H14X  651   2.425   3.453   9.095  1.7689  0.3944  0.4298
    5SAPS  H14Y  652   2.397   3.605   9.176 -1.2812  0.8961  0.2782
    5SAPS  C315  653   2.213   3.480   9.164 -0.3672  0.4740 -0.1764
    5SAPS  H15X  654   2.160   3.537   9.243 -2.3690 -1.1846 -0.2287
    5SAPS  H15Y  655   2.175   3.375   9.172  0.9804 -0.0555 -0.4883
    5SAPS  C316  656   2.166   3.525   9.025  0.0803  0.1452  0.0637
    5SAPS  H16X  657   2.212   3.453   8.954  1.3955  0.0274  0.9967
    5SAPS  H16Y  658   2.219   3.619   8.999  0.1926 -0.4585 -2.0502
    5SAPS  C317  659   2.013   3.538   9.011 -0.2964 -0.0510  0.4332
    5SAPS  H17X  660   1.981   3.622   9.077  0.3680  0.5637 -0.0102
    5SAPS  H17Y  661   1.967   3.443   9.046  2.9771 -1.2625  1.8694
    5SAPS  C318  662   1.977   3.574   8.865  0.3612  0.4497 -0.5378
    5SAPS  H18X  663   2.055   3.540   8.793 -1.2324  3.1098 -3.8186
    5SAPS  H18Y  664   1.983   3.684   8.852  0.0688  0.5442  0.0989
    5SAPS  H18Z  665   1.878   3.533   8.833  1.0806 -0.4201 -1.7639
    6SAPS     N  666   0.871   2.882  10.967  0.4831  0.0290  0.1276
    6SAPS   HN1  667   0.819   2.904  11.054  1.1735  0.8055  0.3547
    6SAPS   HN2  668   0.921   2.968  10.937 -1.0042  1.2270  0.9760
    6SAPS   HN3  669   0.805   2.836  10.900 -0.0299  1.6489 -0.5395
    6SAPS   C12  670   0.986   2.782  10.993 -0.4502 -0.0812 -0.3547
    6SAPS  H12A  671   1.080   2.825  10.962  1.1501 -3.1819 -0.0888
    6SAPS   C13  672   1.001   2.719  11.139 -0.2249  0.7110  0.1996
    6SAPS  O13A  673   0.909   2.717  11.223  0.5223  0.3787 -0.0071
    6SAPS  O13B  674   1.098   2.640  11.165  0.2611 -0.0973  0.6945
    6SAPS   C11  675   0.979   2.664  10.885 -0.1852  0.0255  0.3929
    6SAPS  H11A  676   1.066   2.599  10.910  1.1781  1.7525  0.3842
    6SAPS  H11B  677   0.993   2.714  10.787  0.7288  0.3617  0.6773
    6SAPS     P  678   0.751   2.598  10.778  0.2488 -0.5559 -0.4412
    6SAPS   O13  679   0.659   2.478  10.780 -0.4669  0.0585  0.1153
    6SAPS   O14  680   0.697   2.736  10.813  0.0061 -0.1840  0.0821
    6SAPS   O12  681   0.861   2.575  10.885 -0.4859 -0.5850 -0.0110
    6SAPS   O11  682   0.831   2.621  10.638 -0.0174 -0.2029 -0.0227
    6SAPS    C1  683   0.900   2.510  10.582  0.6453 -0.2341  0.0254
    6SAPS    HA  684   0.943   2.453  10.667 -0.2657  1.0845  1.4147
    6SAPS    HB  685   0.832   2.446  10.522  0.4802  0.8788 -1.0105
    6SAPS    C2  686   1.020   2.566  10.498  0.0582 -0.1025  0.0239
    6SAPS    HS  687   1.093   2.595  10.576  0.5981 -0.5137 -0.3240
    6SAPS   O21  688   0.981   2.673  10.405  0.1721 -0.1666  0.2901
    6SAPS   C21  689   1.085   2.757  10.380  0.1129 -0.5862  1.1003
    6SAPS   O22  690   1.194   2.748  10.430 -0.0692 -0.7306 -0.3812
    6SAPS   C22  691   1.050   2.866  10.278  0.1824  0.3752 -0.2413
    6SAPS   H2R  692   1.010   2.822  10.184  0.8453  1.1914 -0.9275
    6SAPS   H2S  693   0.972   2.934  10.320  1.4843 -0.0308  3.1334
    6SAPS    C3  694   1.080   2.460  10.412 -0.0844  0.3166  0.2371
    6SAPS    HX  695   1.114   2.375  10.474  0.4246 -0.0696 -0.5492
    6SAPS    HY  696   1.171   2.504  10.365 -0.6643 -0.5952 -1.8939
    6SAPS   O31  697   0.985   2.426  10.301 -0.0434  0.1885 -0.1193
    6SAPS   C31  698   0.914   2.322  10.318  0.5425 -0.8157  0.2347
    6SAPS   O32  699   0.912   2.247  10.412  0.0459  0.3358 -0.7891
    6SAPS   C32  700   0.829   2.321  10.184  0.0675  0.0781  0.5201
    6SAPS   H2X  701   0.731   2.372  10.197 -0.3446 -0.6002  0.1494
    6SAPS   H2Y  702   0.801   2.214  10.175 -1.4678  0.4714  0.3231
    6SAPS   C23  703   1.169   2.955  10.245  0.2508  0.1012  0.1032
    6SAPS   H3R  704   1.257   2.911  10.193 -0.2788 -0.7133 -0.1189
    6SAPS   H3S  705   1.207   2.992  10.343  0.5764 -0.6939  0.2887
    6SAPS   C24  706   1.122   3.065  10.163  0.5165 -0.1875  0.5855
    6SAPS   H4R  707   1.046   3.126  10.217  0.6505 -0.8793  1.5867
    6SAPS   H4S  708   1.075   3.023  10.071  1.2074  1.8477 -0.7704
    6SAPS   C25  709   1.236   3.156  10.122  0.1304  0.5139  0.3334
    6SAPS   H5R  710   1.339   3.122  10.141  0.6670  1.3961 -0.8715
    6SAPS   C26  711   1.226   3.266  10.048 -0.1613 -0.7158 -0.3522
    6SAPS   H6R  712   1.325   3.305  10.021 -0.7428  0.8567 -0.3343
    6SAPS   C27  713   1.105   3.344   9.996  0.2784 -0.2873 -0.0163
    6SAPS   H7R  714   1.112   3.455   9.986 -1.8355 -0.0476  0.7177
    6SAPS   H7S  715   1.026   3.332  10.073 -0.0825  4.0841  0.5669
    6SAPS   C28  716   1.059   3.278   9.869  0.5918 -1.0005  0.1994
    6SAPS   H8R  717   1.058   3.168   9.867 -0.5204 -1.0070 -1.7950
    6SAPS   C29  718   1.030   3.358   9.761  0.0620 -0.2240 -0.5845
    6SAPS   H9R  719   1.009   3.318   9.661 -1.9483  3.6829 -1.9311
    6SAPS  C210  720   1.022   3.507   9.753  0.0351  0.0448 -0.4686
    6SAPS  H10R  721   0.991   3.551   9.851 -0.6776 -0.6145 -0.3944
    6SAPS  H10S  722   0.944   3.535   9.679  1.0031  0.8321 -1.2292
    6SAPS  C211  723   1.150   3.567   9.704  0.0489 -0.9830  0.3343
    6SAPS  H11R  724   1.210   3.617   9.780 -1.4960  1.3311  0.1344
    6SAPS  C212  725   1.202   3.556   9.577  0.4314 -0.3425  0.2920
    6SAPS  H12R  726   1.302   3.592   9.549  0.2700 -0.5033 -0.5238
    6SAPS  C213  727   1.134   3.468   9.471 -0.6676  0.4444 -0.1739
    6SAPS  H13R  728   1.026   3.451   9.494 -0.6808  1.9352  1.0495
    6SAPS  H13S  729   1.194   3.375   9.473 -0.7243  0.4062 -0.2505
    6SAPS  C214  730   1.143   3.538   9.345  0.3200 -0.0496  0.3047
    6SAPS  H14R  731   1.070   3.618   9.326  0.3540 -0.1843 -0.4273
    6SAPS  C215  732   1.224   3.516   9.240 -1.2841  0.4841 -0.6900
    6SAPS  H15R  733   1.225   3.591   9.159 -0.0693  1.1060 -0.1118
    6SAPS  C216  734   1.332   3.410   9.235 -0.2648 -0.0593 -0.1122
    6SAPS  H16R  735   1.335   3.358   9.137 -0.6080  0.3762 -0.3566
    6SAPS  H16S  736   1.312   3.330   9.309 -1.0103  0.0639 -0.1707
    6SAPS  C217  737   1.473   3.475   9.257 -0.1220 -0.6124  0.0107
    6SAPS  H17R  738   1.484   3.538   9.348 -0.9879 -3.3725  2.1882
    6SAPS  H17S  739   1.500   3.557   9.188  2.1655  1.9031  3.5639
    6SAPS  C218  740   1.591   3.373   9.266  0.1663  0.3609  0.2511
    6SAPS  H18R  741   1.588   3.308   9.176 -1.3123 -1.1321  1.3041
    6SAPS  H18S  742   1.566   3.312   9.355 -3.7577  2.3053  0.6852
    6SAPS  C219  743   1.719   3.450   9.280  0.3016  0.2248  0.3985
    6SAPS  H19R  744   1.689   3.521   9.360  3.8626  1.8707  0.4689
    6SAPS  H19S  745   1.747   3.507   9.189  0.8525  1.9212  1.5870
    6SAPS  C220  746   1.839   3.363   9.329  0.1156 -0.1904  0.0659
    6SAPS  H20R  747   1.811   3.316   9.426  1.1302 -1.6919 -0.3204
    6SAPS  H20S  748   1.933   3.422   9.337 -0.5235  0.8239  0.2685
    6SAPS  H20T  749   1.864   3.280   9.259 -0.1030  1.5140 -2.1115
    6SAPS   C33  750   0.901   2.360  10.062 -0.1756  1.1307  0.1916
    6SAPS   H3X  751   0.977   2.282  10.040 -1.7224 -0.1749 -0.7638
    6SAPS   H3Y  752   0.956   2.455  10.075 -0.9726  1.5767  0.3019
    6SAPS   C34  753   0.810   2.369   9.936 -0.6078  0.4555 -0.4401
    6SAPS   H4X  754   0.770   2.473   9.930 -0.1764  0.6138 -0.5632
    6SAPS   H4Y  755   0.725   2.299   9.954 -1.2098  1.1713 -0.4336
    6SAPS   C35  756   0.881   2.330   9.809  0.4188 -0.8159  0.6391
    6SAPS   H5X  757   0.807   2.293   9.734 -0.0933 -0.1888  0.8336
    6SAPS   H5Y  758   0.951   2.244   9.819 -0.1991 -1.3075  0.8067
    6SAPS   C36  759   0.950   2.462   9.760  0.0650 -0.5326  0.5105
    6SAPS   H6X  760   1.018   2.503   9.839  0.3913 -0.3778  0.1506
    6SAPS   H6Y  761   0.875   2.544   9.750  0.6975 -0.0522 -0.4413
    6SAPS   C37  762   1.013   2.449   9.621  0.2898  0.0779 -0.3337
    6SAPS   H7X  763   1.095   2.376   9.605 -0.4869 -0.4765 -1.9893
    6SAPS   H7Y  764   1.065   2.544   9.598  1.0996 -0.4753 -0.8287
    6SAPS   C38  765   0.910   2.409   9.512  0.7550 -0.0812 -0.0844
    6SAPS   H8X  766   0.834   2.490   9.520  0.2905 -0.4319 -0.8038
    6SAPS   H8Y  767   0.865   2.308   9.523 -1.1829  0.2183 -3.6734
    6SAPS   C39  768   0.959   2.407   9.366  0.6941 -0.1711  0.4659
    6SAPS   H9X  769   0.867   2.403   9.304 -0.3678 -0.0407  1.9723
    6SAPS   H9Y  770   1.026   2.322   9.343  0.8935 -0.1989  1.1286
    6SAPS  C310  771   1.030   2.541   9.319 -0.1194 -0.7051 -0.3080
    6SAPS  H10X  772   1.119   2.542   9.386 -0.9772 -0.7474  0.8667
    6SAPS  H10Y  773   0.964   2.626   9.345 -0.6351 -0.9169 -0.9152
    6SAPS  C311  774   1.075   2.543   9.173  0.2928 -0.5453 -0.1187
    6SAPS  H11X  775   1.129   2.452   9.140  0.2521 -0.1148 -1.4373
    6SAPS  H11Y  776   1.142   2.632   9.163  1.2247 -1.1335  0.7214
    6SAPS  C312  777   0.959   2.578   9.076 -0.0362  0.4739 -0.2046
    6SAPS  H12X  778   0.895   2.646   9.135  0.6911  1.8067 -0.8964
    6SAPS  H12Y  779   0.898   2.487   9.055 -0.4555  0.7738 -0.2848
    6SAPS  C313  780   1.010   2.634   8.938  0.2590  0.1736  0.0410
    6SAPS  H13X  781   1.075   2.557   8.892 -0.6192 -1.1285  0.8966
    6SAPS  H13Y  782   1.074   2.723   8.957  1.2340 -0.6655  0.8410
    6SAPS  C314  783   0.901   2.681   8.849  0.1214 -0.0275 -0.3230
    6SAPS  H14X  784   0.925   2.771   8.789 -1.5757  0.4359 -0.3484
    6SAPS  H14Y  785   0.820   2.716   8.917 -0.9564  0.8258 -1.9805
    6SAPS  C315  786   0.850   2.573   8.760  0.9860  0.3128 -0.3981
    6SAPS  H15X  787   0.804   2.495   8.824  0.1006  0.3531 -0.9656
    6SAPS  H15Y  788   0.917   2.516   8.693 -1.0199  0.8623 -3.0751
    6SAPS  C316  789   0.733   2.622   8.658  0.2652  0.3017 -0.0233
    6SAPS  H16X  790   0.776   2.696   8.587  2.4518 -1.0303 -0.1571
    6SAPS  H16Y  791   0.656   2.670   8.724 -1.1755 -2.2367  0.2860
    6SAPS  C317  792   0.673   2.502   8.585  0.5086 -0.1498  0.6159
    6SAPS  H17X  793   0.651   2.420   8.657  0.1972  0.9337  1.7941
    6SAPS  H17Y  794   0.748   2.471   8.509  1.0627  0.5272  0.8672
    6SAPS  C318  795   0.534   2.535   8.516 -0.4115  0.5862  0.2530
    6SAPS  H18X  796   0.469   2.586   8.589 -0.5085 -0.9867  1.3055
    6SAPS  H18Y  797   0.482   2.441   8.487  0.8410 -0.6314  1.7812
    6SAPS  H18Z  798   0.550   2.583   8.417 -1.9428 -1.7110 -1.2234
    7SAPS     N  799   3.761   4.251  10.919 -0.2288  0.9205  0.1860
    7SAPS   HN1  800   3.825   4.190  10.864 -0.1762 -0.5952  1.8289
    7SAPS   HN2  801   3.693   4.190  10.969  1.0131  1.0153  2.0754
    7SAPS   HN3  802   3.704   4.306  10.852 -2.6930  0.3645  1.6869
    7SAPS   C12  803   3.841   4.332  11.011  0.0994 -0.0094  0.1733
    7SAPS  H12A  804   3.774   4.398  11.065 -0.1217 -0.2611  0.2097
    7SAPS   C13  805   3.908   4.254  11.126  0.5059  0.0383 -0.3582
    7SAPS  O13A  806   3.874   4.135  11.155  0.1602  0.0203 -0.0133
    7SAPS  O13B  807   3.969   4.325  11.209  0.1159 -0.1644  0.3090
    7SAPS   C11  808   3.939   4.420  10.936 -0.2913  0.3016 -0.0281
    7SAPS  H11A  809   4.017   4.352  10.895 -1.0231  1.1715 -3.2044
    7SAPS  H11B  810   3.976   4.492  11.012  0.9570 -1.3760  1.0192
    7SAPS     P  811   3.932   4.632  10.777 -0.0702  0.3628 -0.1096
    7SAPS   O13  812   3.901   4.726  10.887  0.3723 -0.5248  0.6084
    7SAPS   O14  813   4.078   4.631  10.749  0.3995  0.0470 -0.3444
    7SAPS   O12  814   3.879   4.494  10.826 -0.3006  0.3588 -0.0288
    7SAPS   O11  815   3.846   4.665  10.652  0.5134 -0.5137  0.4823
    7SAPS    C1  816   3.739   4.764  10.662  0.0242 -0.0094 -0.7358
    7SAPS    HA  817   3.665   4.732  10.739  0.0570 -0.6072 -0.9479
    7SAPS    HB  818   3.777   4.863  10.695 -1.5658  0.2631  0.3855
    7SAPS    C2  819   3.684   4.776  10.521  0.8533 -0.2157 -0.8924
    7SAPS    HS  820   3.623   4.869  10.527 -1.9854 -1.9506 -0.8460
    7SAPS   O21  821   3.596   4.667  10.493 -0.1978  0.1957 -0.8192
    7SAPS   C21  822   3.505   4.685  10.399  0.0398  0.3092  0.3697
    7SAPS   O22  823   3.471   4.795  10.360 -0.2981 -0.2276  0.4563
    7SAPS   C22  824   3.451   4.557  10.358 -0.1814  1.0356  0.5709
    7SAPS   H2R  825   3.535   4.488  10.336 -0.8509  0.6155 -0.7986
    7SAPS   H2S  826   3.389   4.517  10.441  0.5422 -0.5844  0.3716
    7SAPS    C3  827   3.793   4.780  10.407  0.5045 -0.7937  0.3183
    7SAPS    HX  828   3.846   4.682  10.406  1.4465 -0.3002 -1.2048
    7SAPS    HY  829   3.864   4.861  10.437  0.0711  0.3792 -1.6790
    7SAPS   O31  830   3.739   4.802  10.274  0.1641 -0.6193  0.1059
    7SAPS   C31  831   3.716   4.929  10.233 -0.0825  0.3422 -0.1192
    7SAPS   O32  832   3.717   5.031  10.301 -0.4094  0.6143  0.0017
    7SAPS   C32  833   3.680   4.932  10.081  0.1711  0.7396 -0.2835
    7SAPS   H2X  834   3.574   4.906  10.065  0.7948 -2.7750  0.4872
    7SAPS   H2Y  835   3.749   4.860  10.032 -0.4232  0.6001 -0.9215
    7SAPS   C23  836   3.355   4.551  10.231 -0.3845  0.5006  0.3124
    7SAPS   H3R  837   3.258   4.605  10.239 -2.2064 -2.2484 -1.4194
    7SAPS   H3S  838   3.319   4.447  10.220  0.3288  0.0463  2.0342
    7SAPS   C24  839   3.441   4.596  10.100  0.3131 -0.5290  0.7278
    7SAPS   H4R  840   3.506   4.682  10.126  1.7492 -0.6680 -2.0552
    7SAPS   H4S  841   3.364   4.639  10.033 -2.7230 -0.5997  3.8974
    7SAPS   C25  842   3.517   4.479  10.045 -1.0335 -0.0219  0.2606
    7SAPS   H5R  843   3.531   4.393  10.112 -0.2182 -0.5853 -0.6125
    7SAPS   C26  844   3.564   4.474   9.919  0.1873 -0.0834 -0.2516
    7SAPS   H6R  845   3.602   4.381   9.876 -1.8558 -0.9068 -0.3977
    7SAPS   C27  846   3.554   4.590   9.825 -0.0469 -0.5498  0.2166
    7SAPS   H7R  847   3.500   4.677   9.867  1.5661  1.7827 -2.1986
    7SAPS   H7S  848   3.494   4.546   9.743  1.0312  1.8811 -2.0372
    7SAPS   C28  849   3.687   4.649   9.797  0.0795 -0.2868 -0.4633
    7SAPS   H8R  850   3.741   4.693   9.882 -0.5554 -0.7569  0.2014
    7SAPS   C29  851   3.753   4.660   9.678  0.5828  0.1567  0.1146
    7SAPS   H9R  852   3.849   4.714   9.679  0.0541  1.1226  1.0190
    7SAPS  C210  853   3.709   4.597   9.546  0.3221 -0.2463  0.1774
    7SAPS  H10R  854   3.686   4.489   9.556  0.5696 -0.3605 -0.4586
    7SAPS  H10S  855   3.797   4.595   9.479  1.3723  0.5658  1.4876
    7SAPS  C211  856   3.583   4.672   9.493  0.1018  0.2874 -0.0317
    7SAPS  H11R  857   3.496   4.662   9.559  1.2990  2.4301  2.0150
    7SAPS  C212  858   3.596   4.755   9.389 -0.1311 -0.6193 -0.0887
    7SAPS  H12R  859   3.513   4.814   9.347  0.6511  0.1418 -0.5994
    7SAPS  C213  860   3.725   4.769   9.307  0.9321 -0.3759  0.9028
    7SAPS  H13R  861   3.816   4.767   9.370 -0.1611 -0.4736  2.5538
    7SAPS  H13S  862   3.739   4.872   9.267  0.9743 -0.2526  1.2284
    7SAPS  C214  863   3.751   4.669   9.198  0.8967 -0.1350  0.9589
    7SAPS  H14R  864   3.833   4.601   9.226  0.2673 -0.8139  1.1782
    7SAPS  C215  865   3.699   4.670   9.071  1.5193 -0.6214  0.7318
    7SAPS  H15R  866   3.718   4.592   8.996  1.1807  0.2120 -0.2571
    7SAPS  C216  867   3.587   4.761   9.021  0.4520  0.2988  0.5385
    7SAPS  H16R  868   3.557   4.840   9.094  1.7365  1.5881 -0.2893
    7SAPS  H16S  869   3.506   4.691   8.990  1.3162 -1.1820  1.5337
    7SAPS  C217  870   3.629   4.854   8.907 -0.4497 -0.3487 -0.0717
    7SAPS  H17R  871   3.539   4.913   8.881 -0.8635 -0.7722  0.3853
    7SAPS  H17S  872   3.669   4.793   8.823  1.3074 -2.4791  2.1371
    7SAPS  C218  873   3.753   4.947   8.954  0.4540  0.2862 -0.4134
    7SAPS  H18R  874   3.846   4.886   8.957 -0.3364 -0.9304  1.7250
    7SAPS  H18S  875   3.741   4.975   9.061 -2.8206 -0.2971 -0.5287
    7SAPS  C219  876   3.774   5.074   8.868  0.7379 -0.1054  0.0331
    7SAPS  H19R  877   3.859   5.127   8.917  0.4524  0.8720 -0.5126
    7SAPS  H19S  878   3.686   5.141   8.876  0.3432 -0.5997 -0.1648
    7SAPS  C220  879   3.798   5.056   8.719  0.7306  0.0462  0.1006
    7SAPS  H20R  880   3.844   5.143   8.668 -0.7432  0.8083  0.0144
    7SAPS  H20S  881   3.711   5.019   8.660  0.1584  2.4690 -0.7022
    7SAPS  H20T  882   3.877   4.978   8.713  0.8448  0.1209  0.6050
    7SAPS   C33  883   3.713   5.076  10.027  0.1303  0.2546 -0.9397
    7SAPS   H3X  884   3.794   5.131  10.079  0.2673 -0.3098 -0.5496
    7SAPS   H3Y  885   3.623   5.135  10.056 -0.4106 -0.2071 -1.6293
    7SAPS   C34  886   3.722   5.095   9.877  0.2527  0.4360  0.0680
    7SAPS   H4X  887   3.816   5.043   9.847 -0.1173  0.0544 -0.4390
    7SAPS   H4Y  888   3.736   5.200   9.843 -4.0939  0.7535 -1.3261
    7SAPS   C35  889   3.603   5.035   9.795  0.3346 -0.3819  0.2163
    7SAPS   H5X  890   3.524   5.108   9.821 -0.1289 -0.7760 -0.0748
    7SAPS   H5Y  891   3.568   4.933   9.821 -0.4950 -0.3934 -0.8943
    7SAPS   C36  892   3.634   5.034   9.642 -0.0253 -0.3966  0.7481
    7SAPS   H6X  893   3.561   4.971   9.588  1.0217  0.0095 -1.2458
    7SAPS   H6Y  894   3.734   4.984   9.643 -0.9094 -2.2414  1.2376
    7SAPS   C37  895   3.643   5.164   9.565 -0.2686  0.3645  0.4090
    7SAPS   H7X  896   3.729   5.221   9.606  1.1870 -1.2356 -0.2851
    7SAPS   H7Y  897   3.547   5.217   9.578  0.0692  1.6746 -1.9284
    7SAPS   C38  898   3.659   5.135   9.411  0.2708 -0.6405  0.2730
    7SAPS   H8X  899   3.582   5.059   9.386  0.0185 -0.5064  0.6202
    7SAPS   H8Y  900   3.764   5.102   9.395  0.2750  0.1984 -1.7674
    7SAPS   C39  901   3.643   5.257   9.319  0.2721 -0.2752 -0.1222
    7SAPS   H9X  902   3.718   5.333   9.352 -0.2161 -0.6000  1.8548
    7SAPS   H9Y  903   3.540   5.285   9.350 -0.7110 -1.2112 -2.3564
    7SAPS  C310  904   3.643   5.225   9.166 -0.1939 -0.5398 -0.0222
    7SAPS  H10X  905   3.588   5.128   9.166 -0.5016 -0.3679 -0.0802
    7SAPS  H10Y  906   3.753   5.211   9.162 -0.1329 -1.3612  2.6848
    7SAPS  C311  907   3.600   5.335   9.075  0.5963 -0.0576  0.0353
    7SAPS  H11X  908   3.512   5.383   9.124  0.2507 -0.4611 -0.1810
    7SAPS  H11Y  909   3.570   5.293   8.976 -0.4971 -0.3060  0.4528
    7SAPS  C312  910   3.703   5.448   9.045  0.8238 -0.9489 -0.1280
    7SAPS  H12X  911   3.788   5.411   8.984  0.4383  0.4867 -1.5923
    7SAPS  H12Y  912   3.744   5.484   9.142 -0.2380  0.3290 -0.1324
    7SAPS  C313  913   3.634   5.562   8.964  0.5458  0.6050  0.1936
    7SAPS  H13X  914   3.693   5.656   8.968  1.2549  0.2717 -1.5383
    7SAPS  H13Y  915   3.549   5.584   9.032  0.1363 -0.5525  0.0767
    7SAPS  C314  916   3.603   5.528   8.821  0.1083 -0.1874  1.4371
    7SAPS  H14X  917   3.549   5.605   8.762  0.1709 -0.7366  0.6454
    7SAPS  H14Y  918   3.534   5.443   8.809  0.7441 -0.6413  0.8932
    7SAPS  C315  919   3.735   5.491   8.745 -0.1175 -0.2889  0.0588
    7SAPS  H15X  920   3.779   5.400   8.792 -0.3702  0.3916  1.6781
    7SAPS  H15Y  921   3.817   5.566   8.757 -1.4643  1.3801 -0.8454
    7SAPS  C316  922   3.717   5.474   8.589 -0.4645  0.0694 -0.0490
    7SAPS  H16X  923   3.815   5.468   8.536 -0.1434 -2.0218  0.6771
    7SAPS  H16Y  924   3.676   5.570   8.552  0.3085  1.2267  1.9566
    7SAPS  C317  925   3.628   5.358   8.554 -0.3039  0.0215  0.7024
    7SAPS  H17X  926   3.524   5.369   8.592 -1.1731  0.9225 -1.7814
    7SAPS  H17Y  927   3.671   5.267   8.602  0.9187  0.8808  1.2985
    7SAPS  C318  928   3.618   5.317   8.403  0.7703  1.1422 -0.1097
    7SAPS  H18X  929   3.706   5.253   8.381  1.3647  1.5092  1.1443
    7SAPS  H18Y  930   3.626   5.416   8.352  0.4163  0.7472 -0.9465
    7SAPS  H18Z  931   3.534   5.251   8.373  0.6194  0.7623  1.0967
    8SAPS     N  932   6.467   5.192  11.159 -0.4542  0.0688 -0.6025
    8SAPS   HN1  933   6.370   5.161  11.176  0.1234 -1.1943  0.5955
    8SAPS   HN2  934   6.478   5.294  11.139  0.3507 -0.0348 -0.7163
    8SAPS   HN3  935   6.508   5.145  11.075  1.2719 -1.3311  0.9392
    8SAPS   C12  936   6.544   5.154  11.281  0.3395 -0.2922  0.4201
    8SAPS  H12A  937   6.536   5.234  11.353 -1.3974 -0.9419  0.9997
    8SAPS   C13  938   6.500   5.019  11.352  0.2161  0.2587  0.2887
    8SAPS  O13A  939   6.418   4.942  11.300 -0.5403 -0.2645  0.4803
    8SAPS  O13B  940   6.561   4.988  11.455 -0.2694  0.0113  0.1872
    8SAPS   C11  941   6.699   5.145  11.231  0.2602 -0.6903 -0.2343
    8SAPS  H11A  942   6.713   5.075  11.146 -0.0129  1.1398 -1.8607
    8SAPS  H11B  943   6.752   5.097  11.315  2.4137  1.1142 -0.4768
    8SAPS     P  944   6.883   5.337  11.243 -0.4008 -0.3203  0.0265
    8SAPS   O13  945   6.874   5.414  11.368  0.4703  0.8974  0.1455
    8SAPS   O14  946   6.991   5.241  11.236 -0.0636 -0.0760 -0.0446
    8SAPS   O12  947   6.749   5.276  11.201 -0.0354 -0.1829 -0.0519
    8SAPS   O11  948   6.905   5.448  11.140 -0.2236 -0.3266 -0.3603
    8SAPS    C1  949   6.885   5.418  11.004  0.0433 -0.0555  1.1801
    8SAPS    HA  950   6.785   5.375  10.985  0.1511 -0.2318  1.0009
    8SAPS    HB  951   6.875   5.517  10.954 -1.2177 -0.6576  0.1813
    8SAPS    C2  952   6.995   5.340  10.934  0.0359 -0.2812  0.2609
    8SAPS    HS  953   6.972   5.233  10.954 -1.2300  0.5028  3.5381
    8SAPS   O21  954   7.119   5.392  10.970 -0.2091 -0.1514 -0.3248
    8SAPS   C21  955   7.206   5.303  10.968 -0.0509  0.1500 -0.2722
    8SAPS   O22  956   7.195   5.183  10.946 -0.0032  0.7996  0.5523
    8SAPS   C22  957   7.352   5.364  10.984 -0.2844  0.1400 -1.0147
    8SAPS   H2R  958   7.367   5.430  10.896 -0.8034 -0.3304 -1.4595
    8SAPS   H2S  959   7.344   5.426  11.076 -1.3775 -1.5571  0.0889
    8SAPS    C3  960   6.978   5.355  10.779 -0.1214  0.3034  0.0283
    8SAPS    HX  961   7.017   5.455  10.749  0.5033  0.3721  1.0148
    8SAPS    HY  962   6.869   5.344  10.762 -0.1759  0.2166  0.4301
    8SAPS   O31  963   7.048   5.258  10.691  0.5565 -0.7708 -0.6049
    8SAPS   C31  964   6.991   5.138  10.684 -0.9653 -0.3663  0.3409
    8SAPS   O32  965   6.886   5.104  10.727  0.5988  0.5541 -0.1036
    8SAPS   C32  966   7.101   5.047  10.624  0.6510 -0.5256  0.5394
    8SAPS   H2X  967   7.191   5.053  10.688 -0.2593  1.0920  1.7470
    8SAPS   H2Y  968   7.107   5.083  10.519 -1.9462 -1.4216  0.0044
    8SAPS   C23  969   7.462   5.261  11.008 -0.0211 -0.2944 -0.1234
    8SAPS   H3R  970   7.481   5.198  10.919 -1.7927  1.0494 -1.5522
    8SAPS   H3S  971   7.417   5.200  11.089  1.2065 -0.4492  0.4564
    8SAPS   C24  972   7.594   5.317  11.049  0.9561 -0.7341  0.2614
    8SAPS   H4R  973   7.584   5.386  11.135 -0.8910  0.3563 -0.7641
    8SAPS   H4S  974   7.634   5.371  10.961 -0.4389 -0.5638 -0.3038
    8SAPS   C25  975   7.673   5.199  11.092  0.0494 -0.3262  0.1070
    8SAPS   H5R  976   7.638   5.141  11.178  1.3429 -2.1079 -0.4921
    8SAPS   C26  977   7.779   5.145  11.026  0.0851 -0.2013  0.9279
    8SAPS   H6R  978   7.835   5.064  11.075  2.2109  0.6191 -0.0007
    8SAPS   C27  979   7.825   5.196  10.897 -0.0836  0.5270 -0.0434
    8SAPS   H7R  980   7.739   5.222  10.832  0.0388  0.1598 -0.3572
    8SAPS   H7S  981   7.867   5.112  10.836 -2.8328 -0.9782 -0.0330
    8SAPS   C28  982   7.916   5.320  10.895  0.5149  0.1277 -1.3175
    8SAPS   H8R  983   7.966   5.339  10.991 -1.9222  0.7430 -0.0738
    8SAPS   C29  984   7.941   5.404  10.795 -0.3232  0.4111  0.6133
    8SAPS   H9R  985   8.010   5.490  10.802 -0.5270  0.5135  1.4642
    8SAPS  C210  986   7.882   5.400  10.653  0.4907  0.0915 -0.9327
    8SAPS  H10R  987   7.794   5.467  10.656  1.4388  1.5092  4.3953
    8SAPS  H10S  988   7.851   5.298  10.620  3.2017 -1.4116  0.7383
    8SAPS  C211  989   7.976   5.462  10.554 -0.5209  0.4064 -0.2597
    8SAPS  H11R  990   8.036   5.545  10.593 -2.7401  1.6890  0.5825
    8SAPS  C212  991   7.999   5.426  10.428  0.0266  0.3523 -0.5763
    8SAPS  H12R  992   8.071   5.486  10.371 -0.8293  0.9122 -1.0842
    8SAPS  C213  993   7.939   5.307  10.354 -0.3692 -0.3249  0.2546
    8SAPS  H13R  994   7.906   5.231  10.428  0.3801  1.6127  2.7053
    8SAPS  H13S  995   8.016   5.244  10.306  1.2776  2.1900 -0.6497
    8SAPS  C214  996   7.815   5.336  10.265 -0.2892  0.0809 -0.2256
    8SAPS  H14R  997   7.719   5.291  10.293 -0.7413  1.7179  0.9946
    8SAPS  C215  998   7.815   5.395  10.148 -0.0262  0.3457 -0.0975
    8SAPS  H15R  999   7.715   5.417  10.108 -1.2682 -1.2678  1.9271
    8SAPS  C216 1000   7.937   5.451  10.084  1.3375 -0.6968  1.0205
    8SAPS  H16R 1001   8.025   5.382  10.088  1.1234 -0.9414  1.8833
    8SAPS  H16S 1002   7.965   5.538  10.147 -0.5808  0.7490 -0.0488
    8SAPS  C217 1003   7.915   5.503   9.942 -0.0198  0.0711 -0.0036
    8SAPS  H17R 1004   8.007   5.556   9.911  0.5863 -0.5623  0.6962
    8SAPS  H17S 1005   7.838   5.583   9.937  0.0216  0.1102 -0.0160
    8SAPS  C218 1006   7.884   5.396   9.836 -0.4463 -0.2629  0.2454
    8SAPS  H18R 1007   7.807   5.430   9.764 -0.0568 -1.1644 -0.6238
    8SAPS  H18S 1008   7.846   5.306   9.889  0.9263 -1.4839 -0.7495
    8SAPS  C219 1009   8.017   5.370   9.757 -0.3372  0.1186  0.0789
    8SAPS  H19R 1010   8.007   5.284   9.688  1.5193 -1.4196  1.5952
    8SAPS  H19S 1011   8.090   5.352   9.839 -0.7866  3.6702  1.4411
    8SAPS  C220 1012   8.074   5.485   9.663  0.4065 -0.4326 -0.2810
    8SAPS  H20R 1013   8.093   5.576   9.724  0.5995  0.3066 -1.4173
    8SAPS  H20S 1014   7.994   5.499   9.586 -0.5800  0.5297  0.8696
    8SAPS  H20T 1015   8.165   5.461   9.604  0.8150 -0.9870  0.5713
    8SAPS   C33 1016   7.059   4.900  10.636  0.9013  0.2598 -0.2638
    8SAPS   H3X 1017   6.967   4.881  10.576 -0.1142 -0.3998  1.4551
    8SAPS   H3Y 1018   7.044   4.869  10.741  3.2141 -0.5877 -0.1349
    8SAPS   C34 1019   7.164   4.813  10.574  0.0765 -0.2248 -0.3804
    8SAPS   H4X 1020   7.139   4.709  10.605  2.9731 -0.3586  1.9306
    8SAPS   H4Y 1021   7.264   4.837  10.616 -0.2155 -0.1261  0.2761
    8SAPS   C35 1022   7.175   4.822  10.425  0.0897 -0.3945  0.5416
    8SAPS   H5X 1023   7.205   4.926  10.400  0.6386  0.3438  3.7823
    8SAPS   H5Y 1024   7.074   4.802  10.382 -0.0991  0.2017  0.7074
    8SAPS   C36 1025   7.284   4.728  10.366  0.4304 -0.2781 -0.0928
    8SAPS   H6X 1026   7.261   4.625  10.399  3.4896 -0.7356  0.8954
    8SAPS   H6Y 1027   7.387   4.755  10.399 -0.7874  1.1833  2.8103
    8SAPS   C37 1028   7.278   4.733  10.215 -0.5686  0.5096  0.6783
    8SAPS   H7X 1029   7.295   4.836  10.177 -2.7367 -0.2334 -2.8509
    8SAPS   H7Y 1030   7.177   4.700  10.183  0.5042 -0.8188 -1.6156
    8SAPS   C38 1031   7.373   4.644  10.129 -0.5173  0.6168 -0.0010
    8SAPS   H8X 1032   7.325   4.546  10.109 -0.2315  0.4698  0.0252
    8SAPS   H8Y 1033   7.467   4.633  10.187 -2.0410  2.3578  3.0205
    8SAPS   C39 1034   7.399   4.704   9.988  0.7838  0.5362 -0.0337
    8SAPS   H9X 1035   7.457   4.799   9.981  1.8985 -0.1390 -0.2271
    8SAPS   H9Y 1036   7.294   4.725   9.958  0.4961 -0.1833  0.4506
    8SAPS  C310 1037   7.462   4.608   9.891 -0.5572  0.0351 -0.3036
    8SAPS  H10X 1038   7.473   4.655   9.791  1.2356  0.8532  0.2446
    8SAPS  H10Y 1039   7.405   4.513   9.888 -0.0910 -0.2333 -1.2461
    8SAPS  C311 1040   7.609   4.579   9.927  0.7688 -0.1641 -0.8143
    8SAPS  H11X 1041   7.611   4.549  10.034  2.8779  3.6466  0.4063
    8SAPS  H11Y 1042   7.661   4.677   9.929 -1.5124  1.1676 -1.7407
    8SAPS  C312 1043   7.681   4.483   9.838 -0.7030  0.1412  0.1245
    8SAPS  H12X 1044   7.635   4.383   9.858  0.0474 -0.4556 -1.0190
    8SAPS  H12Y 1045   7.790   4.487   9.857 -0.5986 -1.2395 -0.0736
    8SAPS  C313 1046   7.660   4.511   9.679  0.1827  0.2937  0.6805
    8SAPS  H13X 1047   7.678   4.618   9.655 -3.2009  0.9758  0.6508
    8SAPS  H13Y 1048   7.552   4.492   9.661  0.3420  0.2840 -0.3360
    8SAPS  C314 1049   7.746   4.420   9.582 -0.3371 -0.1411  0.1846
    8SAPS  H14X 1050   7.701   4.319   9.581  0.8968 -0.7304 -1.6941
    8SAPS  H14Y 1051   7.849   4.419   9.622 -0.8859 -2.4093  1.7194
    8SAPS  C315 1052   7.752   4.475   9.437 -0.2505  0.0386 -0.3518
    8SAPS  H15X 1053   7.795   4.577   9.425  1.7144 -0.8315 -1.0058
    8SAPS  H15Y 1054   7.642   4.487   9.425 -0.9059  2.3423  5.0815
    8SAPS  C316 1055   7.812   4.372   9.344 -0.7840  0.0108  0.6485
    8SAPS  H16X 1056   7.766   4.273   9.365 -0.1791  0.0254  2.1848
    8SAPS  H16Y 1057   7.920   4.352   9.357 -0.7387 -1.4768 -1.5386
    8SAPS  C317 1058   7.783   4.411   9.198  0.5301 -0.6759  0.1203
    8SAPS  H17X 1059   7.828   4.511   9.176 -0.4563  0.2904  2.1549
    8SAPS  H17Y 1060   7.674   4.419   9.178  0.3599 -0.5523  1.0161
    8SAPS  C318 1061   7.842   4.322   9.092 -0.8593 -0.4152 -0.8658
    8SAPS  H18X 1062   7.829   4.369   8.991  0.6535  1.9965 -0.0340
    8SAPS  H18Y 1063   7.801   4.219   9.091  0.4609 -0.9858  0.4891
    8SAPS  H18Z 1064   7.953   4.315   9.098 -0.9213  0.0730  2.9206
    9SAPS     N 1065   4.914   2.113   6.135 -0.4991  0.3343 -0.3522
    9SAPS   HN1 1066   4.927   2.137   6.035  1.1880 -2.2168 -0.8269
    9SAPS   HN2 1067   4.829   2.055   6.122 -0.7440  0.5786  0.1079
    9SAPS   HN3 1068   4.902   2.203   6.187 -0.4632  0.1926 -0.0983
    9SAPS   C12 1069   5.020   2.018   6.182 -0.2156  0.6941 -0.0594
    9SAPS  H12A 1070   5.052   1.964   6.094  0.1904 -0.4306  0.7547
    9SAPS   C13 1071   5.155   2.086   6.217  0.4504 -0.3359 -0.0971
    9SAPS  O13A 1072   5.183   2.198   6.175 -0.0615 -0.4808  0.4146
    9SAPS  O13B 1073   5.243   2.018   6.274  0.3342  0.0850  0.2830
    9SAPS   C11 1074   4.971   1.925   6.296  0.0653 -0.0339 -0.9414
    9SAPS  H11A 1075   4.960   1.987   6.387 -1.2394 -0.7494 -0.5830
    9SAPS  H11B 1076   5.043   1.844   6.318 -0.2076  0.2165  1.0704
    9SAPS     P 1077   4.782   1.739   6.291 -0.4894  0.2288 -0.3461
    9SAPS   O13 1078   4.678   1.724   6.190  0.0670 -0.5422  0.3382
    9SAPS   O14 1079   4.900   1.650   6.290 -0.5782  0.9561 -0.4602
    9SAPS   O12 1080   4.836   1.880   6.276 -0.1442 -0.1703  0.0363
    9SAPS   O11 1081   4.708   1.719   6.434 -0.0220  0.0981  0.1731
    9SAPS    C1 1082   4.645   1.836   6.492 -0.0735  0.2590 -0.2111
    9SAPS    HA 1083   4.706   1.873   6.577  0.1429 -1.5199  0.4463
    9SAPS    HB 1084   4.630   1.919   6.419 -1.6958 -0.8586 -1.2028
    9SAPS    C2 1085   4.510   1.814   6.558  0.0129 -0.5325 -0.5119
    9SAPS    HS 1086   4.474   1.913   6.593  0.3189  0.1161 -1.9457
    9SAPS   O21 1087   4.519   1.721   6.669  0.0238  0.0432  0.0466
    9SAPS   C21 1088   4.579   1.774   6.776 -0.1709 -0.6218  0.2815
    9SAPS   O22 1089   4.623   1.889   6.788 -0.4358  0.5655 -0.2614
    9SAPS   C22 1090   4.580   1.674   6.888  0.4714 -1.0182 -0.1579
    9SAPS   H2R 1091   4.477   1.632   6.887 -0.1439  0.3942 -1.7937
    9SAPS   H2S 1092   4.644   1.590   6.853  0.2056 -1.3555  0.1620
    9SAPS    C3 1093   4.408   1.775   6.448  0.3518 -0.4839 -0.6943
    9SAPS    HX 1094   4.442   1.671   6.426 -2.0928 -1.2525 -1.1521
    9SAPS    HY 1095   4.429   1.837   6.359  2.0549  0.9341  0.6098
    9SAPS   O31 1096   4.275   1.766   6.494  1.0129  0.6668 -0.9765
    9SAPS   C31 1097   4.202   1.881   6.492  0.4536 -0.5030 -0.3389
    9SAPS   O32 1098   4.226   1.982   6.434 -0.6726 -0.6527  0.6561
    9SAPS   C32 1099   4.067   1.850   6.565  0.3600  0.1149  0.2919
    9SAPS   H2X 1100   4.063   1.746   6.605  1.6788 -0.2990 -0.6036
    9SAPS   H2Y 1101   3.991   1.849   6.484  1.4349 -0.1446 -0.7350
    9SAPS   C23 1102   4.623   1.737   7.022  0.6165  0.4191  0.5264
    9SAPS   H3R 1103   4.554   1.811   7.067 -0.3020  0.9835 -1.6814
    9SAPS   H3S 1104   4.715   1.798   7.010  0.4549  1.2106  2.8746
    9SAPS   C24 1105   4.664   1.626   7.117 -0.2757  0.3809 -1.1931
    9SAPS   H4R 1106   4.740   1.572   7.057 -0.0430 -0.5828 -0.0693
    9SAPS   H4S 1107   4.583   1.551   7.131 -0.1128  0.2419 -0.9866
    9SAPS   C25 1108   4.724   1.682   7.245  0.1807  0.0744  0.1240
    9SAPS   H5R 1109   4.801   1.760   7.232  0.9336 -0.2099  2.4407
    9SAPS   C26 1110   4.689   1.646   7.371  0.6753 -0.5265  0.0871
    9SAPS   H6R 1111   4.742   1.686   7.459  0.9213  0.2091 -0.3845
    9SAPS   C27 1112   4.582   1.541   7.404  0.0106  0.5337 -0.1102
    9SAPS   H7R 1113   4.627   1.441   7.389 -0.3391  0.0734  1.6813
    9SAPS   H7S 1114   4.498   1.538   7.332  0.2781 -4.0805 -0.4928
    9SAPS   C28 1115   4.533   1.562   7.546  0.2219 -0.4262 -0.5693
    9SAPS   H8R 1116   4.504   1.662   7.581 -0.8199 -0.3845 -1.5012
    9SAPS   C29 1117   4.532   1.469   7.644 -0.8436  0.1323  0.3481
    9SAPS   H9R 1118   4.491   1.493   7.743 -0.1756  1.6273  0.2785
    9SAPS  C210 1119   4.582   1.322   7.648  0.9798 -0.9628  0.1112
    9SAPS  H10R 1120   4.685   1.332   7.689  0.7210 -0.7466  0.7281
    9SAPS  H10S 1121   4.588   1.272   7.549  2.0773 -1.0823  0.2175
    9SAPS  C211 1122   4.503   1.236   7.748  0.4052 -0.7461 -0.2012
    9SAPS  H11R 1123   4.411   1.197   7.702 -0.0795 -1.1767  1.1035
    9SAPS  C212 1124   4.536   1.229   7.882  0.3241 -0.0004 -0.1652
    9SAPS  H12R 1125   4.461   1.181   7.947  1.1296 -0.2533  0.5994
    9SAPS  C213 1126   4.648   1.299   7.961 -0.1451  0.1645 -0.6051
    9SAPS  H13R 1127   4.606   1.381   8.023 -0.0768  0.0160 -0.3600
    9SAPS  H13S 1128   4.715   1.356   7.893  0.3823  1.1536  0.7022
    9SAPS  C214 1129   4.749   1.211   8.028  0.2781  0.2947 -0.7810
    9SAPS  H14R 1130   4.820   1.162   7.960 -1.7069 -0.0088 -2.7332
    9SAPS  C215 1131   4.752   1.178   8.156 -0.1818 -0.2676  0.4299
    9SAPS  H15R 1132   4.828   1.107   8.192 -0.8246 -1.5365 -0.6595
    9SAPS  C216 1133   4.649   1.221   8.259  0.0606 -0.6281  0.2589
    9SAPS  H16R 1134   4.568   1.289   8.227 -0.1396  0.4578  2.8911
    9SAPS  H16S 1135   4.702   1.285   8.333 -1.7195  0.5027  0.6081
    9SAPS  C217 1136   4.589   1.111   8.341 -0.0668 -0.1091 -0.1883
    9SAPS  H17R 1137   4.673   1.039   8.356  1.4213  1.3646 -1.1334
    9SAPS  H17S 1138   4.503   1.057   8.296  0.5350 -0.6228 -0.7621
    9SAPS  C218 1139   4.543   1.154   8.488  1.3736  0.5267  0.2975
    9SAPS  H18R 1140   4.639   1.168   8.543  2.0645 -0.1220 -0.7102
    9SAPS  H18S 1141   4.502   1.065   8.539  2.0215 -0.0148 -0.1127
    9SAPS  C219 1142   4.443   1.267   8.501  0.0564 -1.0604 -0.7042
    9SAPS  H19R 1143   4.449   1.347   8.424 -0.1618  2.1757  2.3719
    9SAPS  H19S 1144   4.475   1.309   8.598 -0.3811 -1.0870 -0.5475
    9SAPS  C220 1145   4.303   1.220   8.505 -0.3396  0.6383  0.2401
    9SAPS  H20R 1146   4.246   1.313   8.526  0.1694  0.7649  1.0826
    9SAPS  H20S 1147   4.292   1.140   8.581 -1.9180  0.4779 -0.1139
    9SAPS  H20T 1148   4.277   1.179   8.405  0.6761 -0.5025  0.4139
    9SAPS   C33 1149   4.029   1.954   6.674  0.1084  0.0333 -0.4351
    9SAPS   H3X 1150   3.919   1.964   6.674  0.2766  2.4915 -0.7065
    9SAPS   H3Y 1151   4.065   2.057   6.653  0.0994 -0.5628 -3.8734
    9SAPS   C34 1152   4.063   1.917   6.824 -0.6562  0.6663  0.2794
    9SAPS   H4X 1153   4.009   1.829   6.866  0.5613 -0.2493 -0.0180
    9SAPS   H4Y 1154   4.020   1.996   6.889  0.3040  0.9605  0.5669
    9SAPS   C35 1155   4.209   1.910   6.848 -0.1425  0.2705  0.3392
    9SAPS   H5X 1156   4.248   2.013   6.833 -0.1498  0.3473  0.8234
    9SAPS   H5Y 1157   4.252   1.842   6.772 -0.7203  1.3221 -0.9710
    9SAPS   C36 1158   4.242   1.872   6.997  0.0048 -0.0198  0.3218
    9SAPS   H6X 1159   4.185   1.926   7.075 -0.5097 -1.2784  0.8410
    9SAPS   H6Y 1160   4.350   1.894   7.011  0.3467 -1.2776 -0.2004
    9SAPS   C37 1161   4.217   1.721   7.029 -0.8880 -0.2139 -0.5891
    9SAPS   H7X 1162   4.293   1.698   7.107 -1.6269  0.0603  0.2348
    9SAPS   H7Y 1163   4.243   1.664   6.938 -0.7089  1.4756 -1.6444
    9SAPS   C38 1164   4.085   1.684   7.088  0.1496  0.0517  0.2126
    9SAPS   H8X 1165   4.014   1.644   7.013 -0.6264 -0.0794  0.9999
    9SAPS   H8Y 1166   4.033   1.767   7.139  0.9465 -0.9086  2.7730
    9SAPS   C39 1167   4.093   1.577   7.198  0.4478 -0.1272  0.1942
    9SAPS   H9X 1168   4.180   1.508   7.188 -0.0276 -1.1461  2.3241
    9SAPS   H9Y 1169   3.996   1.524   7.205  0.3487 -0.2045 -1.3895
    9SAPS  C310 1170   4.108   1.640   7.340 -0.6753  1.3592 -0.2389
    9SAPS  H10X 1171   4.033   1.720   7.357  2.5159  4.8955 -1.4919
    9SAPS  H10Y 1172   4.208   1.685   7.350 -0.5019  0.6838  1.4669
    9SAPS  C311 1173   4.091   1.530   7.450 -0.4538  0.3029  0.2399
    9SAPS  H11X 1174   4.178   1.463   7.434 -1.1630 -0.7349  0.6674
    9SAPS  H11Y 1175   3.991   1.491   7.424  0.4661 -2.0808  0.0692
    9SAPS  C312 1176   4.103   1.594   7.585  0.4963  0.2157 -0.8124
    9SAPS  H12X 1177   4.022   1.669   7.591 -1.3586 -1.7001 -0.7197
    9SAPS  H12Y 1178   4.205   1.639   7.583  1.1619 -1.0995  0.7144
    9SAPS  C313 1179   4.118   1.495   7.702 -0.4489  0.2359 -0.2274
    9SAPS  H13X 1180   4.172   1.407   7.662 -1.2007 -0.0518 -0.6365
    9SAPS  H13Y 1181   4.021   1.454   7.738 -0.7962  0.8405 -0.4572
    9SAPS  C314 1182   4.193   1.532   7.827  0.4336 -0.3075 -0.6290
    9SAPS  H14X 1183   4.159   1.632   7.861  0.5612 -0.8259  1.0932
    9SAPS  H14Y 1184   4.299   1.559   7.806  0.3144  0.6241 -0.0445
    9SAPS  C315 1185   4.194   1.424   7.934  0.3471 -0.3373  0.0758
    9SAPS  H15X 1186   4.221   1.330   7.881 -2.8659 -1.1286 -0.3734
    9SAPS  H15Y 1187   4.090   1.401   7.963  0.1780  1.9067  1.4551
    9SAPS  C316 1188   4.271   1.455   8.064  0.2871  0.0884  0.0972
    9SAPS  H16X 1189   4.232   1.555   8.091  0.1075 -0.2461  1.1203
    9SAPS  H16Y 1190   4.381   1.445   8.049  0.3283  0.3207  0.2417
    9SAPS  C317 1191   4.252   1.354   8.177 -0.5973  0.2042 -0.8812
    9SAPS  H17X 1192   4.337   1.361   8.249 -1.0038  1.3951 -0.5005
    9SAPS  H17Y 1193   4.261   1.250   8.138  1.6863 -1.6598  3.8078
    9SAPS  C318 1194   4.119   1.367   8.253 -0.1428 -0.3384  0.0241
    9SAPS  H18X 1195   4.101   1.273   8.308 -0.0375 -1.0778 -1.1693
    9SAPS  H18Y 1196   4.034   1.386   8.185 -1.9283 -1.2262  1.9095
    9SAPS  H18Z 1197   4.130   1.455   8.320  0.4391 -0.1634 -0.2954
   10SAPS     N 1198   4.491   0.622   6.356 -0.6762 -0.3881  0.0598
   10SAPS   HN1 1199   4.462   0.706   6.408  0.1873  0.1255 -0.2744
   10SAPS   HN2 1200   4.572   0.566   6.388  1.2980  1.3988 -1.5448
   10SAPS   HN3 1201   4.521   0.657   6.263 -1.2804 -2.6219 -1.0638
   10SAPS   C12 1202   4.372   0.540   6.323 -1.1504  0.0659 -0.8384
   10SAPS  H12A 1203   4.300   0.614   6.293 -1.6141  1.0331  2.3561
   10SAPS   C13 1204   4.409   0.429   6.216  0.0340  0.1465 -0.4815
   10SAPS  O13A 1205   4.526   0.412   6.179 -0.2564  0.1655  0.6166
   10SAPS  O13B 1206   4.315   0.392   6.141  0.7252 -0.4523  0.2309
   10SAPS   C11 1207   4.310   0.480   6.455 -0.2944  0.2598 -0.3148
   10SAPS  H11A 1208   4.209   0.439   6.432 -1.1108  1.3065  1.2633
   10SAPS  H11B 1209   4.295   0.569   6.519  4.1957  1.3500 -0.4428
   10SAPS     P 1210   4.352   0.236   6.532 -0.1104 -0.0683 -0.2028
   10SAPS   O13 1211   4.215   0.216   6.490 -0.3539  0.6200  0.1011
   10SAPS   O14 1212   4.457   0.146   6.478  0.6655  0.2925 -0.5693
   10SAPS   O12 1213   4.392   0.384   6.524 -0.3323 -0.1280  0.3700
   10SAPS   O11 1214   4.370   0.217   6.687  0.0231  0.1816 -0.1894
   10SAPS    C1 1215   4.356   0.329   6.778 -0.2598 -0.9190  0.2060
   10SAPS    HA 1216   4.448   0.391   6.789 -1.6080  1.3097 -0.2870
   10SAPS    HB 1217   4.289   0.405   6.732  1.2644  0.4097  0.0787
   10SAPS    C2 1218   4.296   0.291   6.918  0.5359 -0.6118  0.4724
   10SAPS    HS 1219   4.297   0.368   6.998 -2.3303 -1.6693  1.6560
   10SAPS   O21 1220   4.348   0.166   6.961 -0.0822  0.0098  0.1582
   10SAPS   C21 1221   4.477   0.172   6.988 -0.4191 -0.3102 -0.5695
   10SAPS   O22 1222   4.543   0.267   7.016 -0.0227 -0.3142  0.5972
   10SAPS   C22 1223   4.539   0.030   6.989  0.2533 -0.0616 -0.4237
   10SAPS   H2R 1224   4.473  -0.045   6.941  1.2604 -0.4045 -1.3342
   10SAPS   H2S 1225   4.627   0.035   6.922  0.5637  1.7587  0.0628
   10SAPS    C3 1226   4.143   0.269   6.890 -0.4009  0.4901 -0.4577
   10SAPS    HX 1227   4.119   0.179   6.828  0.2078  0.7418 -1.0702
   10SAPS    HY 1228   4.112   0.353   6.824  2.2814  1.4498 -0.6156
   10SAPS   O31 1229   4.058   0.274   7.011 -0.2090  0.4679 -0.1521
   10SAPS   C31 1230   4.037   0.152   7.060 -0.1700  0.3161 -0.1745
   10SAPS   O32 1231   4.058   0.047   7.000  0.4705  0.1348 -0.6151
   10SAPS   C32 1232   3.991   0.160   7.209  0.4083  0.6896  0.4747
   10SAPS   H2X 1233   3.887   0.123   7.209  0.8347 -0.6016 -0.9777
   10SAPS   H2Y 1234   3.986   0.267   7.238  0.6419  0.5615  1.0137
   10SAPS   C23 1235   4.595  -0.006   7.124 -0.1584 -0.1811  0.4255
   10SAPS   H3R 1236   4.513  -0.044   7.188  0.1229  0.1774  1.0037
   10SAPS   H3S 1237   4.654   0.078   7.166 -1.1705  1.2441 -0.8827
   10SAPS   C24 1238   4.713  -0.113   7.118  0.4407 -0.1649  0.2180
   10SAPS   H4R 1239   4.759  -0.120   7.219  0.6449 -1.5813  0.0386
   10SAPS   H4S 1240   4.799  -0.085   7.054 -1.4570  1.2976 -1.8656
   10SAPS   C25 1241   4.662  -0.247   7.061 -0.3699 -0.3120  0.8985
   10SAPS   H5R 1242   4.625  -0.236   6.958  0.3787  2.0120  0.8226
   10SAPS   C26 1243   4.650  -0.363   7.125 -0.6854  0.0241 -0.1791
   10SAPS   H6R 1244   4.609  -0.442   7.061 -1.6201 -0.1674  0.6388
   10SAPS   C27 1245   4.691  -0.406   7.262 -0.6643 -0.2235 -0.5489
   10SAPS   H7R 1246   4.652  -0.324   7.327 -0.0846  0.5645 -1.1588
   10SAPS   H7S 1247   4.802  -0.398   7.268 -0.6615 -1.0398  1.0206
   10SAPS   C28 1248   4.650  -0.541   7.313  0.6134  0.7430 -0.7578
   10SAPS   H8R 1249   4.597  -0.599   7.235 -3.5666  0.8851  1.6785
   10SAPS   C29 1250   4.675  -0.576   7.439  0.6273 -0.1639  0.8077
   10SAPS   H9R 1251   4.645  -0.678   7.471  0.5645 -0.4137 -0.0225
   10SAPS  C210 1252   4.755  -0.499   7.541  0.3132 -0.1329 -0.3597
   10SAPS  H10R 1253   4.718  -0.536   7.639 -1.4506 -1.8976 -1.6399
   10SAPS  H10S 1254   4.716  -0.395   7.548 -1.8532 -0.8576 -0.9454
   10SAPS  C211 1255   4.895  -0.482   7.526  0.4186 -0.1574 -0.2093
   10SAPS  H11R 1256   4.936  -0.490   7.424 -0.6536 -1.8691 -0.5483
   10SAPS  C212 1257   4.988  -0.470   7.624  0.4360  0.5733 -0.4771
   10SAPS  H12R 1258   5.096  -0.462   7.602  1.2086 -0.1201  2.6553
   10SAPS  C213 1259   4.951  -0.460   7.772  0.0707  0.0570  0.4646
   10SAPS  H13R 1260   4.914  -0.562   7.795 -0.0336 -0.1456 -0.5744
   10SAPS  H13S 1261   4.872  -0.383   7.788  0.8225  1.1654 -0.9079
   10SAPS  C214 1262   5.066  -0.415   7.854 -0.1137  0.6240  0.3398
   10SAPS  H14R 1263   5.096  -0.314   7.820 -2.7194  1.0315 -0.9702
   10SAPS  C215 1264   5.133  -0.472   7.955  0.4329  0.2394  0.9539
   10SAPS  H15R 1265   5.224  -0.420   7.988 -0.3573  2.6195 -0.3792
   10SAPS  C216 1266   5.124  -0.594   8.044  0.5809 -0.0193 -0.0736
   10SAPS  H16R 1267   5.225  -0.640   8.037  1.9042  2.6112  0.2836
   10SAPS  H16S 1268   5.051  -0.662   7.996  0.5674  1.0113 -1.5779
   10SAPS  C217 1269   5.072  -0.566   8.189 -0.3268  0.4657  0.6148
   10SAPS  H17R 1270   5.032  -0.651   8.248 -3.7026  1.3244 -0.2069
   10SAPS  H17S 1271   4.990  -0.491   8.183 -1.0583 -0.4014 -3.6387
   10SAPS  C218 1272   5.189  -0.508   8.270  0.4256  0.1167 -0.3166
   10SAPS  H18R 1273   5.239  -0.419   8.226  1.8599 -0.0326  0.9045
   10SAPS  H18S 1274   5.256  -0.596   8.279 -1.7689 -1.4859  1.3194
   10SAPS  C219 1275   5.154  -0.481   8.415 -0.4137  0.1430  0.0500
   10SAPS  H19R 1276   5.090  -0.560   8.459  1.6113 -3.0498 -2.2677
   10SAPS  H19S 1277   5.093  -0.388   8.412 -1.1157 -0.3194 -2.0053
   10SAPS  C220 1278   5.283  -0.449   8.487  0.0241  0.6711 -0.4213
   10SAPS  H20R 1279   5.353  -0.379   8.435  0.9842  0.2089  0.2166
   10SAPS  H20S 1280   5.343  -0.540   8.507 -1.0823 -0.0252 -0.1868
   10SAPS  H20T 1281   5.262  -0.406   8.587 -0.6274 -1.2037  0.2791
   10SAPS   C33 1282   4.082   0.084   7.309 -0.2799  0.1308  0.0988
   10SAPS   H3X 1283   4.091  -0.017   7.265  1.0226  0.3236 -0.1104
   10SAPS   H3Y 1284   4.037   0.074   7.410 -0.0162  4.1372  0.7885
   10SAPS   C34 1285   4.224   0.148   7.318 -0.6195 -0.8300  0.1963
   10SAPS   H4X 1286   4.206   0.248   7.362 -0.6161  0.1901 -1.9653
   10SAPS   H4Y 1287   4.271   0.160   7.218 -0.1888  1.2407  0.6097
   10SAPS   C35 1288   4.320   0.070   7.404 -0.2216  0.8298 -0.2520
   10SAPS   H5X 1289   4.335  -0.027   7.353 -0.5821 -0.2272  1.5328
   10SAPS   H5Y 1290   4.272   0.056   7.504  1.2446  1.6057  0.5931
   10SAPS   C36 1291   4.456   0.130   7.423  0.2548  0.8044  0.5526
   10SAPS   H6X 1292   4.441   0.226   7.478  1.3396  2.0770 -1.2547
   10SAPS   H6Y 1293   4.495   0.169   7.326  0.9514  3.4579  1.7930
   10SAPS   C37 1294   4.561   0.033   7.494  0.4010  0.7517 -0.3027
   10SAPS   H7X 1295   4.662   0.067   7.463  0.6078 -0.0224 -0.4867
   10SAPS   H7Y 1296   4.549  -0.076   7.478 -0.3075  0.6841  0.5915
   10SAPS   C38 1297   4.565   0.050   7.646 -0.1991  0.3508  0.2595
   10SAPS   H8X 1298   4.604  -0.043   7.693 -0.2013  0.8061  1.1832
   10SAPS   H8Y 1299   4.466   0.064   7.696 -1.1152  2.4081 -1.9331
   10SAPS   C39 1300   4.669   0.160   7.699  0.2013 -0.0104  0.1956
   10SAPS   H9X 1301   4.663   0.259   7.649  1.2551  0.5346  1.1045
   10SAPS   H9Y 1302   4.772   0.122   7.680  0.6461  0.4973  1.4488
   10SAPS  C310 1303   4.649   0.173   7.849  0.1700  0.3861 -0.1902
   10SAPS  H10X 1304   4.544   0.201   7.875  0.0792 -2.0544  2.5862
   10SAPS  H10Y 1305   4.720   0.253   7.881  0.8839  0.9530 -2.9650
   10SAPS  C311 1306   4.659   0.036   7.923 -0.2333  0.0512  0.0161
   10SAPS  H11X 1307   4.750  -0.016   7.888 -0.1064 -0.9726  1.7253
   10SAPS  H11Y 1308   4.571  -0.031   7.909  0.0229  0.0339 -1.7285
   10SAPS  C312 1309   4.666   0.066   8.069  0.3912 -0.5689 -0.4098
   10SAPS  H12X 1310   4.567   0.094   8.111  0.7598 -0.9855  0.7896
   10SAPS  H12Y 1311   4.715   0.163   8.092 -1.9736  0.2645  1.5294
   10SAPS  C313 1312   4.731  -0.042   8.150  0.7158  0.2984  0.5020
   10SAPS  H13X 1313   4.824  -0.069   8.096 -0.5125 -3.0317 -0.2001
   10SAPS  H13Y 1314   4.667  -0.132   8.146  1.8477 -0.5462  0.7639
   10SAPS  C314 1315   4.758  -0.017   8.299 -0.0858  0.0262 -0.2244
   10SAPS  H14X 1316   4.661  -0.000   8.351 -0.8351  2.1602 -2.1481
   10SAPS  H14Y 1317   4.814   0.078   8.312  0.8800 -0.4472 -0.8724
   10SAPS  C315 1318   4.837  -0.132   8.365  0.7789  0.0631 -0.6263
   10SAPS  H15X 1319   4.943  -0.144   8.334  0.3174 -1.1178 -1.8424
   10SAPS  H15Y 1320   4.772  -0.221   8.361 -0.4096  0.9236 -1.1499
   10SAPS  C316 1321   4.860  -0.112   8.518 -0.3976  0.6758  0.2257
   10SAPS  H16X 1322   4.761  -0.113   8.568  1.5824 -2.4002  4.7667
   10SAPS  H16Y 1323   4.905  -0.011   8.530  0.1192  0.4477  0.2005
   10SAPS  C317 1324   4.938  -0.224   8.585 -0.5711  0.4757  0.2682
   10SAPS  H17X 1325   5.034  -0.247   8.533 -0.7305  0.3805  0.0166
   10SAPS  H17Y 1326   4.864  -0.306   8.580 -0.6899  0.4950  1.4652
   10SAPS  C318 1327   4.961  -0.200   8.731 -0.3522 -0.3229  0.4917
   10SAPS  H18X 1328   5.040  -0.271   8.766  0.6823  1.1873  1.3402
   10SAPS  H18Y 1329   4.868  -0.213   8.790 -1.1360  0.6455 -0.4930
   10SAPS  H18Z 1330   4.989  -0.098   8.764  0.9240 -1.2086  2.3515
   11SAPS     N 1331   6.445   4.708   6.321  0.1007  0.7946  0.1634
   11SAPS   HN1 1332   6.539   4.729   6.359  0.7412 -0.0807 -0.8404
   11SAPS   HN2 1333   6.379   4.672   6.393  0.0472  2.7598  1.1473
   11SAPS   HN3 1334   6.456   4.629   6.254 -0.2727  1.6844 -0.9868
   11SAPS   C12 1335   6.379   4.834   6.261 -1.0966 -0.1624 -0.4550
   11SAPS  H12A 1336   6.370   4.913   6.334  0.2930  0.5751 -1.0246
   11SAPS   C13 1337   6.453   4.903   6.146  0.7642  0.0319  0.4015
   11SAPS  O13A 1338   6.570   4.870   6.118 -0.0789 -0.1899 -0.1778
   11SAPS  O13B 1339   6.396   5.004   6.091 -0.7073 -0.1049 -0.3164
   11SAPS   C11 1340   6.233   4.801   6.209 -0.1219 -0.4888  0.0549
   11SAPS  H11A 1341   6.185   4.892   6.168  0.7997  0.6429  1.4117
   11SAPS  H11B 1342   6.170   4.756   6.289 -1.1830  0.8302 -0.0175
   11SAPS     P 1343   6.127   4.668   6.007 -0.1093 -0.3743  0.0518
   11SAPS   O13 1344   6.081   4.796   5.940 -0.4590 -0.0437 -0.4592
   11SAPS   O14 1345   6.152   4.552   5.919  0.4371  0.2046 -0.0212
   11SAPS   O12 1346   6.250   4.706   6.101 -0.5317 -0.0626 -0.4955
   11SAPS   O11 1347   6.009   4.625   6.106 -0.0527 -0.6739 -0.1157
   11SAPS    C1 1348   6.002   4.514   6.198 -0.3455  0.1716 -0.4225
   11SAPS    HA 1349   5.962   4.429   6.139 -0.7093  0.9960 -1.4082
   11SAPS    HB 1350   6.100   4.478   6.236  0.2845  0.5214 -1.6624
   11SAPS    C2 1351   5.911   4.548   6.324 -0.4400  0.0453  0.5303
   11SAPS    HS 1352   5.809   4.575   6.287 -0.3674  1.3599  1.2312
   11SAPS   O21 1353   5.982   4.650   6.398 -0.2624  0.3997 -0.0789
   11SAPS   C21 1354   5.926   4.767   6.383 -0.2829  0.7979  0.8876
   11SAPS   O22 1355   5.839   4.795   6.302 -0.1215 -0.1946 -0.1816
   11SAPS   C22 1356   5.991   4.872   6.467 -0.2265 -0.0748 -0.0089
   11SAPS   H2R 1357   5.949   4.871   6.570  0.8784  1.2125  0.4952
   11SAPS   H2S 1358   6.100   4.855   6.454 -0.5548 -1.3842 -1.3239
   11SAPS    C3 1359   5.893   4.426   6.424 -0.0033 -0.2004  1.5016
   11SAPS    HX 1360   5.994   4.394   6.456 -1.0436 -4.0198  1.4212
   11SAPS    HY 1361   5.843   4.339   6.377 -2.2937  1.8888 -0.2565
   11SAPS   O31 1362   5.808   4.462   6.538  0.1613 -0.3094 -0.1669
   11SAPS   C31 1363   5.870   4.502   6.648 -0.2112 -0.7299 -0.2493
   11SAPS   O32 1364   5.989   4.532   6.665 -0.3576 -0.3050 -0.2193
   11SAPS   C32 1365   5.764   4.501   6.762  0.0542  0.0453 -0.1712
   11SAPS   H2X 1366   5.771   4.403   6.814  0.5234  0.8529  1.3709
   11SAPS   H2Y 1367   5.667   4.521   6.711 -0.7764  0.3291  1.4453
   11SAPS   C23 1368   5.962   5.010   6.407 -0.1715 -0.0945 -0.5281
   11SAPS   H3R 1369   5.853   5.028   6.399 -0.2003  0.7007  1.1706
   11SAPS   H3S 1370   6.008   5.009   6.306  0.0507 -3.4241 -0.5099
   11SAPS   C24 1371   6.018   5.129   6.489  0.6987 -0.1026  0.6621
   11SAPS   H4R 1372   5.958   5.147   6.580  0.7058  0.9065  0.4806
   11SAPS   H4S 1373   5.997   5.226   6.439 -0.0281 -0.1416  0.8780
   11SAPS   C25 1374   6.163   5.110   6.521  0.3703 -0.3247  0.0039
   11SAPS   H5R 1375   6.238   5.138   6.445  2.3693 -0.7143  1.7225
   11SAPS   C26 1376   6.208   5.062   6.642 -1.2589 -0.1632 -0.1679
   11SAPS   H6R 1377   6.316   5.043   6.641 -1.4867 -1.6814 -2.4044
   11SAPS   C27 1378   6.128   5.021   6.763  0.1088  0.1838 -0.1940
   11SAPS   H7R 1379   6.026   5.064   6.758 -0.5916 -1.4366 -0.4202
   11SAPS   H7S 1380   6.171   5.063   6.856 -0.4285 -2.0643  1.1487
   11SAPS   C28 1381   6.125   4.874   6.773 -0.7265 -0.0201  0.2749
   11SAPS   H8R 1382   6.148   4.806   6.689  0.0197  0.5409  0.0138
   11SAPS   C29 1383   6.093   4.816   6.887  0.5152  0.3671 -0.5754
   11SAPS   H9R 1384   6.075   4.707   6.886  2.6511 -0.2299  3.5442
   11SAPS  C210 1385   6.058   4.878   7.018 -0.1745 -0.4843 -0.3094
   11SAPS  H10R 1386   5.968   4.827   7.058 -0.3689 -0.0604 -0.1978
   11SAPS  H10S 1387   6.042   4.988   7.012  0.2852 -0.2310  2.0796
   11SAPS  C211 1388   6.174   4.850   7.110  0.6677  0.6259  0.5834
   11SAPS  H11R 1389   6.252   4.927   7.120 -0.5132  1.9705 -0.2674
   11SAPS  C212 1390   6.172   4.751   7.198 -1.1262  1.4099 -1.0371
   11SAPS  H12R 1391   6.263   4.741   7.260 -2.9340 -0.0806  1.6182
   11SAPS  C213 1392   6.083   4.634   7.228  0.2109 -0.4648 -0.6166
   11SAPS  H13R 1393   5.999   4.623   7.156 -0.0095 -4.4178  0.0220
   11SAPS  H13S 1394   6.033   4.663   7.323 -1.1916  1.8779 -1.9793
   11SAPS  C214 1395   6.154   4.508   7.245 -0.0075  0.2557 -0.6890
   11SAPS  H14R 1396   6.157   4.452   7.151  0.1273 -1.6592  0.4097
   11SAPS  C215 1397   6.204   4.453   7.358  0.0663  0.3936 -0.6070
   11SAPS  H15R 1398   6.254   4.355   7.348  1.8235  1.1615  0.2331
   11SAPS  C216 1399   6.197   4.509   7.497 -0.7075 -0.0688  0.1587
   11SAPS  H16R 1400   6.179   4.618   7.490  0.2409  0.0037 -1.7760
   11SAPS  H16S 1401   6.291   4.500   7.557 -1.3014 -0.0025  1.1181
   11SAPS  C217 1402   6.083   4.438   7.576 -0.4956 -0.2495  0.1442
   11SAPS  H17R 1403   6.110   4.331   7.586 -0.7293 -0.6706 -2.8929
   11SAPS  H17S 1404   5.988   4.445   7.518 -1.4925 -0.2021  1.6982
   11SAPS  C218 1405   6.059   4.508   7.713 -0.1273  0.4857  1.4858
   11SAPS  H18R 1406   5.968   4.477   7.769 -0.9171  1.6530  0.8936
   11SAPS  H18S 1407   6.041   4.616   7.693  3.0377  1.0903  1.3736
   11SAPS  C219 1408   6.166   4.507   7.819  0.2504 -0.1334 -0.1939
   11SAPS  H19R 1409   6.124   4.571   7.900  1.3480  0.4730 -0.0826
   11SAPS  H19S 1410   6.259   4.557   7.786  0.9992 -1.7123 -0.5434
   11SAPS  C220 1411   6.189   4.372   7.879  0.0681 -0.1237 -0.3080
   11SAPS  H20R 1412   6.089   4.329   7.899  0.3160 -1.1011 -1.0307
   11SAPS  H20S 1413   6.248   4.380   7.973  0.2764 -1.3951 -0.3081
   11SAPS  H20T 1414   6.230   4.298   7.806 -1.2662  0.1469 -1.3608
   11SAPS   C33 1415   5.785   4.626   6.858  0.6834 -0.3190 -0.2028
   11SAPS   H3X 1416   5.780   4.719   6.798 -1.1187  0.2468  0.7484
   11SAPS   H3Y 1417   5.881   4.611   6.912  0.5220  0.9701  0.4873
   11SAPS   C34 1418   5.654   4.643   6.940 -0.3075 -0.0728 -0.3713
   11SAPS   H4X 1419   5.573   4.668   6.869 -0.2608 -0.1852 -0.4654
   11SAPS   H4Y 1420   5.654   4.717   7.022 -0.0257 -0.5545  0.0737
   11SAPS   C35 1421   5.630   4.505   7.016  0.1044 -0.1552 -0.4246
   11SAPS   H5X 1422   5.726   4.461   7.051 -1.0896 -4.4260 -1.8876
   11SAPS   H5Y 1423   5.583   4.438   6.941 -3.1817 -0.4150  1.6802
   11SAPS   C36 1424   5.535   4.496   7.131  0.5342  0.9009  0.2590
   11SAPS   H6X 1425   5.552   4.394   7.172 -1.6023  0.3623 -0.0388
   11SAPS   H6Y 1426   5.432   4.499   7.088 -0.1321  1.1832  1.7866
   11SAPS   C37 1427   5.550   4.598   7.239 -0.1412 -1.0586 -0.6613
   11SAPS   H7X 1428   5.466   4.590   7.312  0.2453 -1.0397 -0.2143
   11SAPS   H7Y 1429   5.544   4.704   7.207  2.3947  0.7676  3.9518
   11SAPS   C38 1430   5.672   4.580   7.337 -0.2446 -0.3528  0.1160
   11SAPS   H8X 1431   5.767   4.624   7.300 -1.1949  1.8017  0.0598
   11SAPS   H8Y 1432   5.682   4.470   7.344  2.1908 -0.3203 -1.6282
   11SAPS   C39 1433   5.645   4.642   7.477 -0.2056 -0.6853  0.0197
   11SAPS   H9X 1434   5.556   4.591   7.521 -1.6656  0.3562 -1.5865
   11SAPS   H9Y 1435   5.628   4.750   7.460 -2.2379 -1.0306 -0.3845
   11SAPS  C310 1436   5.761   4.609   7.581  0.0280  0.6744  0.2074
   11SAPS  H10X 1437   5.855   4.666   7.565 -1.1962  2.7418  0.0423
   11SAPS  H10Y 1438   5.783   4.504   7.552 -0.8786  1.1121 -2.3067
   11SAPS  C311 1439   5.717   4.621   7.722  0.2911 -0.4564  0.2062
   11SAPS  H11X 1440   5.655   4.712   7.728 -1.3734 -1.4341 -1.2933
   11SAPS  H11Y 1441   5.806   4.641   7.785  0.8078  2.0500 -1.1783
   11SAPS  C312 1442   5.649   4.499   7.791 -0.1042  0.0640  0.5685
   11SAPS  H12X 1443   5.724   4.419   7.805 -0.4739 -0.4659 -0.3720
   11SAPS  H12Y 1444   5.575   4.451   7.723  0.8762  1.3323 -1.5155
   11SAPS  C313 1445   5.595   4.541   7.924  0.3324 -0.0858 -0.3860
   11SAPS  H13X 1446   5.545   4.641   7.925 -0.5002 -0.4952 -0.1465
   11SAPS  H13Y 1447   5.677   4.557   7.997  0.0123 -1.2981  0.2572
   11SAPS  C314 1448   5.497   4.433   7.992 -0.7488 -0.8251 -0.1833
   11SAPS  H14X 1449   5.555   4.338   7.998 -0.2952 -0.5014  3.7628
   11SAPS  H14Y 1450   5.402   4.422   7.936 -1.2684  0.3133  0.4288
   11SAPS  C315 1451   5.444   4.466   8.133 -0.0234 -0.3832  0.6251
   11SAPS  H15X 1452   5.379   4.555   8.134  1.4414  0.7244  0.3269
   11SAPS  H15Y 1453   5.532   4.496   8.194  1.5807 -0.1960 -1.6551
   11SAPS  C316 1454   5.385   4.340   8.200  0.1725 -0.1730 -0.6246
   11SAPS  H16X 1455   5.466   4.264   8.206  0.7503  0.1554 -3.2142
   11SAPS  H16Y 1456   5.308   4.297   8.133 -1.2523  1.6938 -0.2571
   11SAPS  C317 1457   5.313   4.359   8.332  0.6831  0.0396 -0.3132
   11SAPS  H17X 1458   5.247   4.448   8.324  0.9514  0.1712 -1.1281
   11SAPS  H17Y 1459   5.390   4.393   8.405  0.8388  2.5862 -1.5331
   11SAPS  C318 1460   5.233   4.241   8.388 -0.5476  0.9293  0.2093
   11SAPS  H18X 1461   5.132   4.236   8.341 -0.4715  0.3462  0.0982
   11SAPS  H18Y 1462   5.206   4.272   8.492  0.0805  1.7682  0.1315
   11SAPS  H18Z 1463   5.275   4.139   8.370 -0.5920  1.1146 -0.9859
   12SAPS     N 1464   0.318   4.638   6.085  0.2254  0.6273 -0.3868
   12SAPS   HN1 1465   0.263   4.658   6.171 -0.1144 -0.2590 -0.3857
   12SAPS   HN2 1466   0.325   4.728   6.034 -3.2127  1.1462 -0.1671
   12SAPS   HN3 1467   0.281   4.563   6.023  1.4310  0.3604 -0.8145
   12SAPS   C12 1468   0.447   4.614   6.146 -0.4769 -0.7515 -0.3152
   12SAPS  H12A 1469   0.430   4.530   6.210 -1.5065 -1.5385 -1.5846
   12SAPS   C13 1470   0.552   4.580   6.042  0.3244  0.0619 -0.4731
   12SAPS  O13A 1471   0.525   4.556   5.924  0.0491  0.4614  0.4077
   12SAPS  O13B 1472   0.663   4.546   6.086 -0.3031  0.5833 -0.0407
   12SAPS   C11 1473   0.485   4.734   6.233  0.5865  0.2377  0.5467
   12SAPS  H11A 1474   0.594   4.721   6.247  0.9210  0.2501 -1.6574
   12SAPS  H11B 1475   0.435   4.732   6.332  1.2003 -2.8595  0.8957
   12SAPS     P 1476   0.538   4.984   6.189 -0.1120  0.0922 -0.2401
   12SAPS   O13 1477   0.685   4.965   6.170  0.9123  0.1368 -0.1041
   12SAPS   O14 1478   0.482   5.094   6.108  0.4941  0.4051  0.1091
   12SAPS   O12 1479   0.455   4.854   6.164 -0.5431 -0.2074  0.5702
   12SAPS   O11 1480   0.504   5.023   6.342 -0.5893  0.3984  0.1151
   12SAPS    C1 1481   0.372   5.030   6.405  0.1937  0.5124 -0.0366
   12SAPS    HA 1482   0.313   5.119   6.374 -1.2949 -0.6066 -0.5262
   12SAPS    HB 1483   0.304   4.949   6.371 -0.0643  0.8445 -0.3236
   12SAPS    C2 1484   0.375   4.995   6.558  0.1715 -0.2095 -0.1196
   12SAPS    HS 1485   0.288   4.930   6.582  0.3674  0.2997  2.2133
   12SAPS   O21 1486   0.371   5.113   6.632 -0.2928  0.2315 -0.4561
   12SAPS   C21 1487   0.292   5.109   6.744 -0.0893 -0.4835 -0.8559
   12SAPS   O22 1488   0.225   5.015   6.778  0.3440 -0.7980  0.2306
   12SAPS   C22 1489   0.316   5.245   6.824 -0.5300 -0.1029  0.2150
   12SAPS   H2R 1490   0.419   5.278   6.800 -1.0510  1.4485 -0.0336
   12SAPS   H2S 1491   0.238   5.311   6.780 -0.7841 -1.9527 -2.3267
   12SAPS    C3 1492   0.498   4.916   6.604 -0.3550  0.0258 -0.8013
   12SAPS    HX 1493   0.577   4.992   6.621 -2.1072  1.6962  0.2381
   12SAPS    HY 1494   0.535   4.850   6.522 -2.5212 -1.5168 -0.6076
   12SAPS   O31 1495   0.488   4.845   6.730  0.5831 -0.2027  0.4916
   12SAPS   C31 1496   0.418   4.729   6.725 -0.5697  0.1476  0.0281
   12SAPS   O32 1497   0.376   4.676   6.624 -0.1121  0.2486 -0.0012
   12SAPS   C32 1498   0.403   4.682   6.867  0.8996  0.7473 -0.1935
   12SAPS   H2X 1499   0.489   4.619   6.899 -0.5255 -0.2178  1.9754
   12SAPS   H2Y 1500   0.314   4.615   6.867  0.1009  1.7441  1.1729
   12SAPS   C23 1501   0.306   5.227   6.978 -0.2082 -0.3220 -0.4395
   12SAPS   H3R 1502   0.394   5.167   7.010 -0.3358 -0.6892 -0.7662
   12SAPS   H3S 1503   0.213   5.170   6.997  0.3443 -1.4100 -0.8982
   12SAPS   C24 1504   0.272   5.356   7.058 -0.0966  0.8539  0.8984
   12SAPS   H4R 1505   0.233   5.332   7.159  0.7778  0.3724  1.1324
   12SAPS   H4S 1506   0.193   5.405   6.997 -0.4964 -1.7371 -0.8257
   12SAPS   C25 1507   0.392   5.451   7.070 -0.3109 -0.0407 -0.0542
   12SAPS   H5R 1508   0.419   5.507   6.979  0.9496  0.4429  0.5886
   12SAPS   C26 1509   0.447   5.483   7.187  0.6233  0.3220  0.6096
   12SAPS   H6R 1510   0.524   5.561   7.192  1.5184 -0.5192  0.3530
   12SAPS   C27 1511   0.381   5.431   7.315 -0.1901 -0.0443  0.3601
   12SAPS   H7R 1512   0.407   5.325   7.336  0.3537  0.0460  0.1562
   12SAPS   H7S 1513   0.271   5.447   7.311 -0.4864 -1.3986  2.1345
   12SAPS   C28 1514   0.445   5.498   7.434 -0.1645  0.4703 -0.5422
   12SAPS   H8R 1515   0.540   5.548   7.411 -0.3342  1.8051  1.3623
   12SAPS   C29 1516   0.405   5.470   7.558  0.4243  0.7055  0.3764
   12SAPS   H9R 1517   0.440   5.524   7.647  1.5386  0.0383  0.3617
   12SAPS  C210 1518   0.286   5.379   7.597 -1.1841  0.5201  0.1773
   12SAPS  H10R 1519   0.314   5.340   7.697  0.7450 -0.2834 -0.6198
   12SAPS  H10S 1520   0.278   5.290   7.531 -1.5764  0.4432  0.3249
   12SAPS  C211 1521   0.151   5.448   7.605  0.3928  0.2860  0.2349
   12SAPS  H11R 1522   0.111   5.478   7.507 -1.8238  0.4771  1.1460
   12SAPS  C212 1523   0.064   5.452   7.711  0.5535  0.1113 -0.3164
   12SAPS  H12R 1524  -0.040   5.486   7.699 -0.6266 -2.9691  0.3360
   12SAPS  C213 1525   0.102   5.405   7.845  0.2340 -0.3525 -0.1737
   12SAPS  H13R 1526   0.206   5.436   7.869 -0.9058  0.3950  5.0870
   12SAPS  H13S 1527   0.115   5.295   7.846  1.0157 -0.2878 -1.2336
   12SAPS  C214 1528   0.014   5.444   7.966 -0.0529 -0.1042  0.6840
   12SAPS  H14R 1529  -0.076   5.502   7.940  1.2922  0.7397 -2.5488
   12SAPS  C215 1530   0.029   5.404   8.095 -0.1008  1.1278  0.6698
   12SAPS  H15R 1531  -0.037   5.439   8.176  1.4564  1.9279  1.6385
   12SAPS  C216 1532   0.134   5.309   8.151 -0.7184  0.4158  0.2939
   12SAPS  H16R 1533   0.168   5.346   8.250 -1.8771 -0.4742  1.0490
   12SAPS  H16S 1534   0.215   5.289   8.077  0.1533  1.8723  0.8096
   12SAPS  C217 1535   0.065   5.171   8.177 -0.1123 -0.6120 -0.3293
   12SAPS  H17R 1536   0.074   5.104   8.089 -0.0666 -2.3886  0.9825
   12SAPS  H17S 1537  -0.045   5.176   8.194 -0.1033  0.7180 -0.5499
   12SAPS  C218 1538   0.135   5.090   8.286  0.0377 -0.0340 -0.0392
   12SAPS  H18R 1539   0.124   5.141   8.385 -1.4531 -0.8309  0.2393
   12SAPS  H18S 1540   0.242   5.081   8.260 -0.5068 -0.9119 -2.2262
   12SAPS  C219 1541   0.081   4.947   8.297  0.0242  0.0481 -0.1081
   12SAPS  H19R 1542   0.102   4.887   8.206 -0.3962 -1.2672  0.6374
   12SAPS  H19S 1543  -0.029   4.945   8.307  0.1098 -0.2146  0.9165
   12SAPS  C220 1544   0.144   4.869   8.416  0.0095 -0.3485  0.3246
   12SAPS  H20R 1545   0.098   4.768   8.427 -0.9342  0.0807  0.3522
   12SAPS  H20S 1546   0.120   4.920   8.512  1.8462  0.5531  0.3480
   12SAPS  H20T 1547   0.255   4.858   8.413 -0.0396 -0.9852  0.5845
   12SAPS   C33 1548   0.386   4.791   6.978 -0.0722 -0.4243 -0.8189
   12SAPS   H3X 1549   0.298   4.857   6.961 -1.6736 -2.1582  0.3235
   12SAPS   H3Y 1550   0.475   4.856   6.987  1.7019 -2.7975 -0.1725
   12SAPS   C34 1551   0.359   4.719   7.111 -1.0262 -0.7748  0.0604
   12SAPS   H4X 1552   0.440   4.644   7.126 -0.0601 -0.0268 -1.2468
   12SAPS   H4Y 1553   0.266   4.658   7.110 -0.4685 -1.6439 -1.5537
   12SAPS   C35 1554   0.350   4.827   7.215  0.0728 -0.9691 -0.4259
   12SAPS   H5X 1555   0.285   4.914   7.191  1.8236  0.1709 -1.2928
   12SAPS   H5Y 1556   0.448   4.878   7.218 -0.4723  0.1130 -0.5157
   12SAPS   C36 1557   0.321   4.769   7.354 -0.1204 -1.2616  0.5784
   12SAPS   H6X 1558   0.370   4.675   7.385  1.5857  0.0949  2.1727
   12SAPS   H6Y 1559   0.213   4.761   7.378 -0.4261  1.6770  0.5435
   12SAPS   C37 1560   0.373   4.876   7.458  0.6154  0.0094  0.1391
   12SAPS   H7X 1561   0.345   4.979   7.426 -0.2892 -0.0929  0.5588
   12SAPS   H7Y 1562   0.484   4.878   7.465  0.6991  0.8788 -1.1072
   12SAPS   C38 1563   0.313   4.863   7.596 -0.2512  0.1786  0.6747
   12SAPS   H8X 1564   0.316   4.758   7.634 -1.2944 -0.6742 -1.4682
   12SAPS   H8Y 1565   0.207   4.895   7.595 -0.5600 -0.6436 -2.3556
   12SAPS   C39 1566   0.389   4.952   7.699 -0.1146  0.8054 -0.0807
   12SAPS   H9X 1567   0.397   5.058   7.667  0.5012  0.9399  0.4738
   12SAPS   H9Y 1568   0.493   4.917   7.719 -0.4373  0.4329  1.0531
   12SAPS  C310 1569   0.318   4.961   7.832 -0.1257  0.6366 -0.2917
   12SAPS  H10X 1570   0.294   4.861   7.874 -1.5265  1.8757  2.0745
   12SAPS  H10Y 1571   0.223   5.018   7.834 -1.3347 -1.2914  0.0316
   12SAPS  C311 1572   0.406   5.025   7.939  0.2641  0.7629 -0.4480
   12SAPS  H11X 1573   0.498   4.963   7.942  0.3985  1.0042  0.8941
   12SAPS  H11Y 1574   0.346   5.016   8.032  1.8426 -1.1356  0.4549
   12SAPS  C312 1575   0.444   5.167   7.916 -0.2928  0.9065  0.5925
   12SAPS  H12X 1576   0.355   5.234   7.911 -0.6122  0.4597  0.1206
   12SAPS  H12Y 1577   0.504   5.184   7.824  1.0703 -1.3847  0.9837
   12SAPS  C313 1578   0.526   5.226   8.033 -0.5932 -0.2393 -0.5083
   12SAPS  H13X 1579   0.622   5.170   8.034 -1.4636 -1.8719 -1.9741
   12SAPS  H13Y 1580   0.465   5.211   8.125 -0.5360 -0.4864 -0.5104
   12SAPS  C314 1581   0.558   5.375   8.016  0.0104  0.0609 -0.2191
   12SAPS  H14X 1582   0.468   5.440   8.019  0.4836  0.7364 -0.5171
   12SAPS  H14Y 1583   0.592   5.384   7.911  1.6168  0.2706  0.2975
   12SAPS  C315 1584   0.681   5.428   8.094 -0.3252 -0.4068  0.4445
   12SAPS  H15X 1585   0.720   5.526   8.061 -0.3680  0.1887  2.0659
   12SAPS  H15Y 1586   0.763   5.360   8.063  1.7177  1.5177  1.3977
   12SAPS  C316 1587   0.659   5.434   8.240  0.3719  0.5379 -0.8306
   12SAPS  H16X 1588   0.742   5.487   8.291  3.1561 -2.2281 -2.1897
   12SAPS  H16Y 1589   0.652   5.331   8.279  2.5106 -0.1557 -2.0762
   12SAPS  C317 1590   0.529   5.505   8.287  0.0605 -0.1340  0.8572
   12SAPS  H17X 1591   0.443   5.441   8.258  1.8850 -3.0278  1.4513
   12SAPS  H17Y 1592   0.536   5.599   8.227  0.8505 -1.4545 -1.2455
   12SAPS  C318 1593   0.519   5.548   8.434 -0.6500  0.5157  0.7756
   12SAPS  H18X 1594   0.502   5.461   8.500 -0.5826  0.3362  0.5595
   12SAPS  H18Y 1595   0.430   5.614   8.445 -0.8889  0.2285  0.5946
   12SAPS  H18Z 1596   0.601   5.611   8.474 -1.3353  0.2587  2.6869
   13SAPS     N 1597   0.478   2.426   6.004 -0.3270 -0.0935  0.2050
   13SAPS   HN1 1598   0.515   2.374   5.922 -2.1760 -0.7510 -0.2368
   13SAPS   HN2 1599   0.561   2.440   6.066 -0.3004  1.2123 -0.1013
   13SAPS   HN3 1600   0.413   2.365   6.058  1.7699 -0.9976  1.8696
   13SAPS   C12 1601   0.428   2.555   5.949  1.2177 -0.8660  0.1014
   13SAPS  H12A 1602   0.502   2.614   5.897 -1.3833  3.0036  0.4413
   13SAPS   C13 1603   0.327   2.530   5.836  0.5741  0.1380 -0.2901
   13SAPS  O13A 1604   0.305   2.414   5.790  0.1405  0.7013  0.1788
   13SAPS  O13B 1605   0.284   2.622   5.771 -0.0103 -0.8575 -0.3360
   13SAPS   C11 1606   0.351   2.632   6.058  0.5461 -1.2728  0.0525
   13SAPS  H11A 1607   0.258   2.579   6.087 -1.1493  0.9126 -1.0949
   13SAPS  H11B 1608   0.322   2.731   6.017  1.7169 -1.7170 -1.9634
   13SAPS     P 1609   0.387   2.747   6.281 -0.0480 -0.0644  0.6802
   13SAPS   O13 1610   0.500   2.747   6.380 -0.0868 -0.0265  0.1420
   13SAPS   O14 1611   0.324   2.876   6.228  0.0973 -0.0684 -0.1150
   13SAPS   O12 1612   0.440   2.655   6.160 -0.2915 -1.0339  0.0690
   13SAPS   O11 1613   0.278   2.656   6.333 -0.1629 -0.2308 -0.4974
   13SAPS    C1 1614   0.292   2.541   6.409 -0.0237  1.1898 -0.0027
   13SAPS    HA 1615   0.320   2.451   6.350 -1.4836  0.5887  0.1765
   13SAPS    HB 1616   0.366   2.554   6.491  1.1153  2.0010 -1.1208
   13SAPS    C2 1617   0.151   2.494   6.460  0.5011  0.8047 -0.2420
   13SAPS    HS 1618   0.079   2.503   6.376  0.4603 -0.4078 -0.3533
   13SAPS   O21 1619   0.118   2.580   6.570  0.1390  0.3365  0.3579
   13SAPS   C21 1620  -0.002   2.566   6.611  0.3522  0.0241  0.6634
   13SAPS   O22 1621  -0.088   2.493   6.563 -0.4753 -0.3642  0.7055
   13SAPS   C22 1622  -0.017   2.647   6.744  0.0265 -0.1980  0.0010
   13SAPS   H2R 1623   0.057   2.599   6.811  0.4917  1.2709  0.5777
   13SAPS   H2S 1624   0.010   2.750   6.712 -1.8861 -0.4627 -2.8877
   13SAPS    C3 1625   0.157   2.352   6.511 -0.0444  0.0892 -1.1168
   13SAPS    HX 1626   0.197   2.285   6.432 -0.9725 -1.0236 -0.6597
   13SAPS    HY 1627   0.058   2.309   6.538  0.7838 -0.8169  0.6344
   13SAPS   O31 1628   0.256   2.351   6.614 -0.1497  0.5825  0.2672
   13SAPS   C31 1629   0.214   2.329   6.737 -0.0200  0.0950  0.5586
   13SAPS   O32 1630   0.100   2.345   6.778  0.1461 -0.5351 -0.2919
   13SAPS   C32 1631   0.335   2.306   6.829  0.5477  0.6555  0.2809
   13SAPS   H2X 1632   0.427   2.301   6.767  0.1276  1.2329 -0.4066
   13SAPS   H2Y 1633   0.320   2.207   6.877 -1.8112  0.6484 -0.3950
   13SAPS   C23 1634  -0.158   2.655   6.811  0.0855 -0.1726  0.2735
   13SAPS   H3R 1635  -0.236   2.629   6.737 -0.7831 -2.0661  1.7831
   13SAPS   H3S 1636  -0.183   2.760   6.840  3.6040  1.0239 -0.5277
   13SAPS   C24 1637  -0.166   2.559   6.934  0.0115  0.2527  0.5638
   13SAPS   H4R 1638  -0.148   2.458   6.893 -2.2294 -0.5106  1.3040
   13SAPS   H4S 1639  -0.271   2.553   6.971  0.3400 -0.4753  1.4066
   13SAPS   C25 1640  -0.062   2.599   7.035  0.0396 -0.0654  0.1231
   13SAPS   H5R 1641   0.038   2.556   7.023 -1.0988 -2.3683 -2.0159
   13SAPS   C26 1642  -0.088   2.687   7.137 -0.3968 -0.5936 -0.2775
   13SAPS   H6R 1643  -0.001   2.721   7.196  0.8039 -2.0085 -1.1676
   13SAPS   C27 1644  -0.220   2.756   7.173  1.1600 -0.0637 -0.0257
   13SAPS   H7R 1645  -0.286   2.752   7.083  2.9504  0.9014 -1.4494
   13SAPS   H7S 1646  -0.212   2.861   7.207 -0.4252 -0.2082  0.8996
   13SAPS   C28 1647  -0.299   2.664   7.266  0.4934 -0.0427  0.1720
   13SAPS   H8R 1648  -0.333   2.570   7.220 -2.4726  0.3190  1.4134
   13SAPS   C29 1649  -0.325   2.686   7.393 -0.5392  0.4721  1.0772
   13SAPS   H9R 1650  -0.392   2.613   7.440  1.2508 -1.1290  1.2678
   13SAPS  C210 1651  -0.286   2.807   7.472  0.5794 -0.0332  0.6401
   13SAPS  H10R 1652  -0.371   2.878   7.478  2.2606  2.2713 -0.9831
   13SAPS  H10S 1653  -0.227   2.871   7.403  0.4041 -3.6834 -3.3187
   13SAPS  C211 1654  -0.229   2.780   7.614 -0.2372 -0.4476  0.4601
   13SAPS  H11R 1655  -0.124   2.749   7.605  0.8071  2.9019 -0.2889
   13SAPS  C212 1656  -0.297   2.787   7.732 -0.2683 -0.1047 -0.1844
   13SAPS  H12R 1657  -0.241   2.796   7.826 -0.2218  1.1130 -0.3024
   13SAPS  C213 1658  -0.445   2.819   7.750 -0.3495  0.6333  0.2033
   13SAPS  H13R 1659  -0.482   2.732   7.808 -1.0934  0.5475 -0.3806
   13SAPS  H13S 1660  -0.495   2.813   7.651 -0.8604 -0.6687  0.5301
   13SAPS  C214 1661  -0.486   2.940   7.826 -0.0534  0.2181  0.2460
   13SAPS  H14R 1662  -0.514   3.027   7.765  0.6727  0.0816 -0.2898
   13SAPS  C215 1663  -0.487   2.955   7.959 -0.0848  0.1345 -0.6804
   13SAPS  H15R 1664  -0.529   3.047   8.002 -2.0225 -1.5411  1.2291
   13SAPS  C216 1665  -0.447   2.845   8.057 -0.4896 -0.0571 -0.0150
   13SAPS  H16R 1666  -0.361   2.881   8.118  0.3651  0.1891 -1.3193
   13SAPS  H16S 1667  -0.418   2.751   8.004 -2.1632 -1.2122  1.0179
   13SAPS  C217 1668  -0.575   2.805   8.132  0.0871  0.1464 -0.0681
   13SAPS  H17R 1669  -0.550   2.705   8.175 -0.4096 -0.3092 -0.8133
   13SAPS  H17S 1670  -0.660   2.791   8.062 -1.1709  1.1760  1.2040
   13SAPS  C218 1671  -0.617   2.901   8.245 -0.9119  0.0703  0.7006
   13SAPS  H18R 1672  -0.716   2.869   8.283 -1.7794 -1.4533 -2.5564
   13SAPS  H18S 1673  -0.627   3.002   8.200  2.5282 -0.4577 -1.5960
   13SAPS  C219 1674  -0.502   2.920   8.353 -0.4580 -0.1239  0.4227
   13SAPS  H19R 1675  -0.534   3.009   8.412  2.4269  1.3997 -0.1599
   13SAPS  H19S 1676  -0.401   2.930   8.309 -1.0549 -0.2829 -1.0413
   13SAPS  C220 1677  -0.506   2.817   8.460 -0.1125  0.4858 -0.5807
   13SAPS  H20R 1678  -0.606   2.807   8.508  1.2779  1.1827  2.6882
   13SAPS  H20S 1679  -0.435   2.843   8.541 -1.1452 -0.3164  0.6298
   13SAPS  H20T 1680  -0.474   2.716   8.426 -1.1796  0.4581 -1.5875
   13SAPS   C33 1681   0.350   2.404   6.950  0.1268  0.3945  0.5259
   13SAPS   H3X 1682   0.361   2.507   6.909  0.5124 -0.1408 -0.7628
   13SAPS   H3Y 1683   0.452   2.379   6.988 -0.6231 -0.4910  2.0573
   13SAPS   C34 1684   0.253   2.385   7.063  0.2019  0.1588  0.0356
   13SAPS   H4X 1685   0.256   2.283   7.107  0.6987 -0.2159 -0.8598
   13SAPS   H4Y 1686   0.149   2.399   7.025 -0.0982  1.0225  1.0947
   13SAPS   C35 1687   0.277   2.491   7.183  0.2126 -0.3714  0.2239
   13SAPS   H5X 1688   0.265   2.592   7.139 -0.4861 -0.4590  0.2049
   13SAPS   H5Y 1689   0.382   2.474   7.215 -0.1259  1.9734  2.9273
   13SAPS   C36 1690   0.189   2.474   7.301  1.3955  0.8474 -0.2016
   13SAPS   H6X 1691   0.179   2.366   7.323 -0.7664  1.4166  2.1739
   13SAPS   H6Y 1692   0.086   2.511   7.280  1.0775  0.3887  0.5099
   13SAPS   C37 1693   0.248   2.544   7.428 -0.4453 -0.1364  0.5966
   13SAPS   H7X 1694   0.277   2.648   7.402 -1.1834 -0.2360 -0.6866
   13SAPS   H7Y 1695   0.342   2.488   7.448 -0.1413  0.7415  1.7394
   13SAPS   C38 1696   0.157   2.554   7.550  0.0379 -0.1674  0.8015
   13SAPS   H8X 1697   0.117   2.453   7.575 -1.5169 -0.1797 -1.4262
   13SAPS   H8Y 1698   0.066   2.610   7.521 -1.4296 -3.2103 -1.0699
   13SAPS   C39 1699   0.226   2.615   7.670  0.2792  0.2889 -0.5012
   13SAPS   H9X 1700   0.271   2.714   7.645  3.4754 -1.0851 -0.6761
   13SAPS   H9Y 1701   0.312   2.551   7.702 -0.0051  0.6710  1.1610
   13SAPS  C310 1702   0.126   2.655   7.777 -0.2699 -0.5007  0.3194
   13SAPS  H10X 1703   0.059   2.568   7.794 -1.5271  0.3195 -0.2624
   13SAPS  H10Y 1704   0.062   2.740   7.744  0.5872  0.5835  1.3489
   13SAPS  C311 1705   0.186   2.714   7.904  0.1657 -0.6280 -0.0237
   13SAPS  H11X 1706   0.105   2.734   7.977  0.5055 -2.3486  0.8828
   13SAPS  H11Y 1707   0.235   2.811   7.883  1.5931 -1.1119  0.9163
   13SAPS  C312 1708   0.272   2.617   7.989  0.1655 -0.3328 -0.7521
   13SAPS  H12X 1709   0.375   2.612   7.948  0.5316  3.2634 -0.5674
   13SAPS  H12Y 1710   0.220   2.519   7.991 -2.2520  0.8658 -0.2862
   13SAPS  C313 1711   0.294   2.663   8.135  0.2581 -0.4061 -0.6154
   13SAPS  H13X 1712   0.359   2.587   8.185  2.6190 -0.0466 -2.8965
   13SAPS  H13Y 1713   0.203   2.643   8.195  2.2836 -1.8863  2.2341
   13SAPS  C314 1714   0.356   2.799   8.159 -0.3370  0.4211 -0.4047
   13SAPS  H14X 1715   0.313   2.881   8.098 -1.7833 -0.5924 -0.7892
   13SAPS  H14Y 1716   0.464   2.799   8.132  0.2014  0.7659  1.5775
   13SAPS  C315 1717   0.344   2.850   8.307  0.8915  0.4183 -0.2553
   13SAPS  H15X 1718   0.395   2.790   8.385 -0.8507 -0.4506  0.2589
   13SAPS  H15Y 1719   0.241   2.843   8.348  1.0495 -1.9273 -0.1265
   13SAPS  C316 1720   0.392   3.000   8.318  0.4239  0.3999  0.0499
   13SAPS  H16X 1721   0.301   3.057   8.291 -0.1205 -0.6914 -0.4975
   13SAPS  H16Y 1722   0.460   3.018   8.232 -1.5420  0.9087 -1.4550
   13SAPS  C317 1723   0.453   3.040   8.451 -0.5182 -0.4875 -0.1988
   13SAPS  H17X 1724   0.542   2.975   8.464 -1.1444 -1.1059  1.1489
   13SAPS  H17Y 1725   0.387   3.025   8.539 -1.8419 -2.8515 -1.4869
   13SAPS  C318 1726   0.519   3.177   8.435  0.2072 -0.0813  0.1045
   13SAPS  H18X 1727   0.449   3.263   8.451 -1.5885 -1.6138  0.9102
   13SAPS  H18Y 1728   0.562   3.197   8.335 -2.9679  0.6842 -1.2525
   13SAPS  H18Z 1729   0.593   3.194   8.515  1.2092 -2.0772 -0.3538
   14SAPS     N 1730   5.648   4.701   5.767  0.1013  0.1132  0.0692
   14SAPS   HN1 1731   5.665   4.677   5.667 -1.5019  1.2663 -0.5118
   14SAPS   HN2 1732   5.711   4.781   5.788  0.6721  0.1012 -1.4534
   14SAPS   HN3 1733   5.680   4.620   5.824  0.9801 -0.2592 -0.9184
   14SAPS   C12 1734   5.499   4.728   5.786  0.2927 -0.6471 -0.5591
   14SAPS  H12A 1735   5.475   4.823   5.740 -0.8682 -1.2376 -1.2419
   14SAPS   C13 1736   5.405   4.630   5.736 -1.3209  0.9573  0.1639
   14SAPS  O13A 1737   5.452   4.519   5.696  0.3720  0.0674 -0.3316
   14SAPS  O13B 1738   5.282   4.659   5.738 -0.0144 -0.5729  0.5207
   14SAPS   C11 1739   5.469   4.730   5.941  0.2695 -0.6424 -0.4055
   14SAPS  H11A 1740   5.514   4.650   6.003 -0.5706  1.4534  3.1825
   14SAPS  H11B 1741   5.359   4.718   5.956 -0.2052 -0.1354 -2.9019
   14SAPS     P 1742   5.437   4.956   6.090  0.0261  0.4094  0.4036
   14SAPS   O13 1743   5.523   5.064   6.140 -0.6726  0.2768  0.3580
   14SAPS   O14 1744   5.309   5.000   6.022  0.0452 -0.5330 -0.0800
   14SAPS   O12 1745   5.524   4.854   6.003  0.2871 -0.1078  0.0828
   14SAPS   O11 1746   5.406   4.862   6.217 -0.2060  0.2476  0.1581
   14SAPS    C1 1747   5.499   4.774   6.283 -0.2656  0.4488 -0.3972
   14SAPS    HA 1748   5.462   4.669   6.278  0.2644  0.2861 -1.2503
   14SAPS    HB 1749   5.600   4.783   6.238 -0.6300  0.1301 -1.3227
   14SAPS    C2 1750   5.521   4.795   6.437  0.8065 -0.0942 -0.2668
   14SAPS    HS 1751   5.604   4.724   6.460 -0.0438 -1.7669 -2.0727
   14SAPS   O21 1752   5.406   4.766   6.512 -0.2651 -0.1100  0.2203
   14SAPS   C21 1753   5.399   4.635   6.556  0.1077  0.2240 -0.3669
   14SAPS   O22 1754   5.482   4.549   6.527 -0.2018 -0.3266 -0.0890
   14SAPS   C22 1755   5.283   4.608   6.643  0.5872 -0.7684 -0.5898
   14SAPS   H2R 1756   5.245   4.702   6.689  3.5284  0.0766  0.3251
   14SAPS   H2S 1757   5.211   4.563   6.571  1.6147 -3.2355 -0.1611
   14SAPS    C3 1758   5.568   4.940   6.479  0.5912  0.2843  0.4249
   14SAPS    HX 1759   5.479   5.001   6.457 -0.3982 -0.4973  2.0531
   14SAPS    HY 1760   5.643   4.978   6.406 -0.8476  0.3862 -1.0565
   14SAPS   O31 1761   5.617   4.950   6.617  0.5506 -0.5125 -0.3310
   14SAPS   C31 1762   5.631   5.079   6.640  0.4962 -0.1613  0.6872
   14SAPS   O32 1763   5.621   5.163   6.552 -0.0339 -0.1671 -0.0768
   14SAPS   C32 1764   5.666   5.100   6.785  0.2621 -0.4242  0.3364
   14SAPS   H2X 1765   5.748   5.030   6.810  0.5416 -0.5880 -0.9696
   14SAPS   H2Y 1766   5.572   5.076   6.839  1.1905 -0.8012  1.8292
   14SAPS   C23 1767   5.320   4.506   6.749  0.7179 -0.8579 -0.3104
   14SAPS   H3R 1768   5.391   4.550   6.823  0.7681 -0.8348 -0.3725
   14SAPS   H3S 1769   5.385   4.422   6.716 -0.8387 -2.7599  1.1757
   14SAPS   C24 1770   5.199   4.453   6.831  0.8098 -0.3778  0.2401
   14SAPS   H4R 1771   5.142   4.539   6.872  1.7229 -0.2979  1.3802
   14SAPS   H4S 1772   5.243   4.397   6.916 -0.3770 -2.4136 -0.4103
   14SAPS   C25 1773   5.103   4.363   6.759 -0.0658  0.1773 -0.8021
   14SAPS   H5R 1774   5.057   4.403   6.667 -1.5514  2.4756  0.8441
   14SAPS   C26 1775   5.081   4.232   6.799 -0.1229 -0.4558  0.1452
   14SAPS   H6R 1776   5.010   4.181   6.732 -0.3799 -0.4812  0.4341
   14SAPS   C27 1777   5.140   4.147   6.909 -0.8621  0.3211  0.2002
   14SAPS   H7R 1778   5.095   4.046   6.908 -0.8168  0.2818  1.1757
   14SAPS   H7S 1779   5.108   4.192   7.006 -1.1867  0.0633  0.2111
   14SAPS   C28 1780   5.288   4.140   6.898  0.0989  0.1725 -0.2540
   14SAPS   H8R 1781   5.315   4.169   6.795 -1.4457 -1.8372 -1.3118
   14SAPS   C29 1782   5.378   4.118   6.993  1.0519 -1.7819  0.3040
   14SAPS   H9R 1783   5.483   4.114   6.962  1.5113  0.2928  1.4200
   14SAPS  C210 1784   5.354   4.080   7.142 -0.6652  0.0911  0.7458
   14SAPS  H10R 1785   5.262   4.019   7.137 -2.5612  2.8312 -0.5013
   14SAPS  H10S 1786   5.321   4.171   7.198 -0.8062 -1.1138  2.7239
   14SAPS  C211 1787   5.473   4.014   7.209  0.2808  0.3973  0.2409
   14SAPS  H11R 1788   5.527   3.954   7.133 -0.8220 -0.7470  0.3281
   14SAPS  C212 1789   5.514   4.035   7.333 -0.1204 -0.1348  0.1851
   14SAPS  H12R 1790   5.596   3.973   7.372  1.4095  1.1920 -0.8291
   14SAPS  C213 1791   5.452   4.124   7.439  0.6048  0.3739  0.3356
   14SAPS  H13R 1792   5.358   4.075   7.474  0.2783  0.8384  0.1289
   14SAPS  H13S 1793   5.402   4.212   7.392  0.4339  1.4603  2.4505
   14SAPS  C214 1794   5.550   4.184   7.538  0.1686  0.1747  0.9034
   14SAPS  H14R 1795   5.634   4.239   7.492 -0.7693  1.1539  0.3151
   14SAPS  C215 1796   5.554   4.166   7.671  0.1755  0.3937 -0.3197
   14SAPS  H15R 1797   5.630   4.213   7.734 -1.5278  2.4375  0.3221
   14SAPS  C216 1798   5.453   4.088   7.751  0.6537 -1.4452  0.8661
   14SAPS  H16R 1799   5.378   4.037   7.687  0.0613  1.6069 -1.0360
   14SAPS  H16S 1800   5.399   4.156   7.820  1.0249 -0.1603 -0.0884
   14SAPS  C217 1801   5.522   3.994   7.854  0.2019  0.9683  0.2387
   14SAPS  H17R 1802   5.578   4.047   7.934 -1.3822  1.0106  1.3535
   14SAPS  H17S 1803   5.594   3.932   7.796  1.0181  1.8101  0.3333
   14SAPS  C218 1804   5.424   3.897   7.931 -0.3422  0.4397 -0.3732
   14SAPS  H18R 1805   5.480   3.819   7.988 -1.9043  0.0494  0.6780
   14SAPS  H18S 1806   5.362   3.851   7.852 -1.8912  2.8568 -0.6488
   14SAPS  C219 1807   5.312   3.968   8.022 -0.4709  0.1398 -0.0617
   14SAPS  H19R 1808   5.274   4.046   7.954  0.1999 -0.0327 -0.6397
   14SAPS  H19S 1809   5.358   4.020   8.109 -1.9351 -0.5385  1.1882
   14SAPS  C220 1810   5.206   3.883   8.093  0.0113  0.4311  0.0519
   14SAPS  H20R 1811   5.255   3.819   8.170 -1.8829  0.1620  1.1056
   14SAPS  H20S 1812   5.158   3.822   8.014 -0.2908  2.8119 -1.7051
   14SAPS  H20T 1813   5.120   3.941   8.133 -1.3361 -1.2183 -0.3376
   14SAPS   C33 1814   5.712   5.248   6.814  0.3436 -0.4930  0.4631
   14SAPS   H3X 1815   5.649   5.326   6.767  2.9592  1.0417 -0.6969
   14SAPS   H3Y 1816   5.814   5.263   6.774  0.3635  0.4784  0.8543
   14SAPS   C34 1817   5.721   5.270   6.963 -0.0468 -0.1856 -0.2702
   14SAPS   H4X 1818   5.619   5.294   7.000  0.6867  2.1798  0.3409
   14SAPS   H4Y 1819   5.788   5.355   6.985 -0.7600  0.2444  0.2689
   14SAPS   C35 1820   5.785   5.155   7.039 -0.4953  0.2276  0.3868
   14SAPS   H5X 1821   5.883   5.140   6.989 -1.5813  1.1750 -2.2381
   14SAPS   H5Y 1822   5.723   5.064   7.028  0.3811 -0.4488  0.9439
   14SAPS   C36 1823   5.815   5.178   7.189  0.2402 -0.3788  0.0626
   14SAPS   H6X 1824   5.714   5.172   7.234 -0.4203  1.1735 -1.1375
   14SAPS   H6Y 1825   5.861   5.277   7.204 -1.3478  0.2944  0.7081
   14SAPS   C37 1826   5.885   5.063   7.256 -0.1080 -0.5691  0.1966
   14SAPS   H7X 1827   5.988   5.060   7.214 -0.1551  1.2747 -0.1186
   14SAPS   H7Y 1828   5.842   4.962   7.239 -1.6186 -0.2710  1.9842
   14SAPS   C38 1829   5.905   5.094   7.401  0.4317  0.3731 -0.3278
   14SAPS   H8X 1830   5.803   5.133   7.425  0.0879 -0.0314 -1.0822
   14SAPS   H8Y 1831   5.985   5.169   7.418 -0.7928  1.7449 -0.2949
   14SAPS   C39 1832   5.944   4.975   7.494 -0.2085  0.0175  0.2138
   14SAPS   H9X 1833   6.030   4.929   7.441  0.2529  0.3550  0.6645
   14SAPS   H9Y 1834   5.855   4.909   7.505 -1.2921  1.7280  2.6469
   14SAPS  C310 1835   5.967   5.017   7.638  0.3201  0.3534  0.6202
   14SAPS  H10X 1836   5.867   5.016   7.686 -0.4826 -0.3640 -1.0248
   14SAPS  H10Y 1837   6.014   5.117   7.646 -1.4657  1.0978  2.6762
   14SAPS  C311 1838   6.066   4.926   7.717  0.5146  0.0152  0.2745
   14SAPS  H11X 1839   6.170   4.934   7.677  0.7807 -1.5394  0.5778
   14SAPS  H11Y 1840   6.045   4.819   7.701  3.1152 -0.6466  0.7689
   14SAPS  C312 1841   6.067   4.943   7.867  0.0727 -0.5199 -0.0495
   14SAPS  H12X 1842   6.079   5.050   7.895 -0.7758 -0.6002  0.6417
   14SAPS  H12Y 1843   6.151   4.887   7.913  1.6309  0.1843 -1.8770
   14SAPS  C313 1844   5.937   4.890   7.923 -0.9197 -0.0047  0.7915
   14SAPS  H13X 1845   5.933   4.780   7.910  2.5246 -0.5023  2.7323
   14SAPS  H13Y 1846   5.847   4.943   7.885  0.3667  0.2786 -2.1035
   14SAPS  C314 1847   5.919   4.917   8.076  0.4438  0.3959  0.1854
   14SAPS  H14X 1848   5.945   5.022   8.100 -1.4112  0.8047  0.5325
   14SAPS  H14Y 1849   5.967   4.837   8.135 -1.5204 -0.1641  1.1004
   14SAPS  C315 1850   5.770   4.895   8.113 -0.3613 -0.5767 -0.9665
   14SAPS  H15X 1851   5.768   4.785   8.100  1.1310 -0.4382 -2.6107
   14SAPS  H15Y 1852   5.704   4.939   8.035  0.1003  0.9167 -0.5473
   14SAPS  C316 1853   5.741   4.935   8.256  0.4526 -0.7449 -0.0706
   14SAPS  H16X 1854   5.794   4.865   8.324  1.2342 -2.6072 -2.4567
   14SAPS  H16Y 1855   5.635   4.915   8.283  0.4364 -1.8853 -0.9095
   14SAPS  C317 1856   5.773   5.086   8.289  0.3660 -0.2589  0.6218
   14SAPS  H17X 1857   5.883   5.098   8.280  0.5115 -0.5364  1.8747
   14SAPS  H17Y 1858   5.729   5.111   8.387  0.0809 -2.4997  1.0939
   14SAPS  C318 1859   5.714   5.192   8.186 -0.0092  0.4361 -0.4004
   14SAPS  H18X 1860   5.728   5.149   8.084  1.2756  2.1404 -0.9943
   14SAPS  H18Y 1861   5.769   5.288   8.185  0.2581  0.2879 -0.1770
   14SAPS  H18Z 1862   5.610   5.222   8.208  0.6225  1.3184  1.5513
   15SAPS     N 1863   6.230   3.577   5.833 -0.2013  0.7191 -0.2099
   15SAPS   HN1 1864   6.150   3.567   5.767  0.4145  1.0215 -1.0149
   15SAPS   HN2 1865   6.309   3.625   5.786  4.1816 -3.5794  1.8284
   15SAPS   HN3 1866   6.269   3.481   5.846 -0.4643  0.7533  1.0090
   15SAPS   C12 1867   6.192   3.646   5.958 -0.1168  0.0248 -0.6732
   15SAPS  H12A 1868   6.265   3.613   6.030 -0.7741  0.2676  0.1102
   15SAPS   C13 1869   6.200   3.801   5.949  0.0288  0.3908 -0.8000
   15SAPS  O13A 1870   6.272   3.852   5.863 -1.1967 -0.0419 -0.1685
   15SAPS  O13B 1871   6.161   3.861   6.054  0.5157 -0.2691  0.6742
   15SAPS   C11 1872   6.054   3.603   6.011  0.7933 -0.1621 -0.0225
   15SAPS  H11A 1873   5.980   3.641   5.938  0.7987 -0.3496 -0.1265
   15SAPS  H11B 1874   6.036   3.654   6.108  0.2205 -1.6507  0.6996
   15SAPS     P 1875   5.906   3.407   6.107  0.4914  0.2161 -0.0595
   15SAPS   O13 1876   5.797   3.461   6.022 -0.1922  0.5679  0.0983
   15SAPS   O14 1877   5.931   3.258   6.113  0.6990  0.1791 -0.3770
   15SAPS   O12 1878   6.045   3.461   6.035 -0.0919  0.1788 -0.2227
   15SAPS   O11 1879   5.921   3.467   6.258 -0.2250  0.2010  0.2933
   15SAPS    C1 1880   6.015   3.417   6.346  0.0339 -0.4411  0.3267
   15SAPS    HA 1881   6.114   3.387   6.306  0.9856  1.8651  0.8025
   15SAPS    HB 1882   6.036   3.500   6.417 -3.0999 -0.5989  1.6050
   15SAPS    C2 1883   5.964   3.300   6.440  0.3843 -0.4281  0.5849
   15SAPS    HS 1884   5.956   3.206   6.382  2.9386 -1.1910  1.3412
   15SAPS   O21 1885   5.842   3.341   6.507  0.3889  0.5604 -0.7591
   15SAPS   C21 1886   5.751   3.241   6.527  0.5746 -0.1717 -0.0878
   15SAPS   O22 1887   5.753   3.141   6.467 -0.2013 -0.2353 -0.2044
   15SAPS   C22 1888   5.639   3.287   6.629 -0.6415  0.1716 -0.0153
   15SAPS   H2R 1889   5.676   3.387   6.662 -1.1136 -0.2385  1.9108
   15SAPS   H2S 1890   5.540   3.283   6.579 -0.0626  1.7952 -1.3795
   15SAPS    C3 1891   6.080   3.276   6.544 -0.5056 -0.6801 -0.0384
   15SAPS    HX 1892   6.112   3.369   6.596 -3.3956 -1.1065  2.8202
   15SAPS    HY 1893   6.164   3.241   6.481 -1.4582  0.5640 -2.1195
   15SAPS   O31 1894   6.042   3.173   6.633  0.2623 -0.0799 -0.2091
   15SAPS   C31 1895   6.062   3.045   6.599 -0.1224 -0.1299  0.0760
   15SAPS   O32 1896   6.152   3.009   6.520 -0.1834 -1.0050  0.2383
   15SAPS   C32 1897   5.960   2.953   6.661  0.0557  0.1677 -0.6563
   15SAPS   H2X 1898   5.880   2.941   6.584 -1.1326  0.6773  0.4564
   15SAPS   H2Y 1899   5.912   3.006   6.746  0.6374  0.7462 -0.6834
   15SAPS   C23 1900   5.628   3.194   6.756  0.2470  0.2404 -0.2447
   15SAPS   H3R 1901   5.729   3.200   6.802  0.5184  2.6117 -1.0205
   15SAPS   H3S 1902   5.618   3.092   6.713  0.4671 -0.5655  1.5446
   15SAPS   C24 1903   5.511   3.207   6.853  0.0263 -1.0325 -0.3374
   15SAPS   H4R 1904   5.521   3.130   6.933  0.3370 -0.5091  0.1386
   15SAPS   H4S 1905   5.408   3.184   6.818  0.4798 -1.9810 -1.0962
   15SAPS   C25 1906   5.515   3.347   6.910 -0.4185 -0.4639 -0.3090
   15SAPS   H5R 1907   5.500   3.427   6.837 -0.7432  0.2800  0.5441
   15SAPS   C26 1908   5.558   3.391   7.030 -0.2679  0.1906 -0.1659
   15SAPS   H6R 1909   5.541   3.498   7.051 -0.7378  0.3177 -1.1234
   15SAPS   C27 1910   5.596   3.314   7.154 -0.8474  0.1481 -0.6851
   15SAPS   H7R 1911   5.592   3.203   7.147  0.8218  0.1203 -2.2218
   15SAPS   H7S 1912   5.527   3.347   7.234  0.0676 -0.9802  0.6224
   15SAPS   C28 1913   5.740   3.342   7.195 -0.1738 -0.2811 -0.0319
   15SAPS   H8R 1914   5.819   3.344   7.118 -0.5799  1.2000 -0.4620
   15SAPS   C29 1915   5.782   3.350   7.323  0.7287  0.8425 -0.0061
   15SAPS   H9R 1916   5.888   3.376   7.340  0.4301  0.0605  4.4200
   15SAPS  C210 1917   5.693   3.343   7.443 -0.1865  0.2102 -0.5569
   15SAPS  H10R 1918   5.589   3.311   7.417 -0.4962  0.4519  0.3375
   15SAPS  H10S 1919   5.682   3.444   7.487  0.3606 -1.4062  3.7227
   15SAPS  C211 1920   5.762   3.246   7.538  0.2928  0.7159  0.4591
   15SAPS  H11R 1921   5.796   3.156   7.484 -1.0178  1.2688 -1.3749
   15SAPS  C212 1922   5.773   3.247   7.676  0.3315 -0.8011 -0.1016
   15SAPS  H12R 1923   5.835   3.172   7.728 -0.2829 -0.9556  0.4178
   15SAPS  C213 1924   5.741   3.359   7.765 -0.0222 -0.0631  0.6338
   15SAPS  H13R 1925   5.716   3.444   7.698 -0.9770 -1.5256 -0.9407
   15SAPS  H13S 1926   5.830   3.389   7.824  2.0196 -0.4447 -2.0404
   15SAPS  C214 1927   5.621   3.340   7.848  0.7751 -0.3996  0.7712
   15SAPS  H14R 1928   5.553   3.264   7.808  0.4883  0.7552 -1.0483
   15SAPS  C215 1929   5.586   3.399   7.960  0.0872 -0.1142  0.0214
   15SAPS  H15R 1930   5.504   3.352   8.017  0.1005 -1.0866 -0.7338
   15SAPS  C216 1931   5.669   3.505   8.026  1.0109 -0.1570 -0.1550
   15SAPS  H16R 1932   5.609   3.593   8.058 -1.2978 -1.1911 -1.4011
   15SAPS  H16S 1933   5.747   3.555   7.965  0.4922  0.9023  0.0318
   15SAPS  C217 1934   5.727   3.464   8.164 -0.9310 -0.8507 -0.3626
   15SAPS  H17R 1935   5.648   3.429   8.234  1.4338 -1.4205  2.2072
   15SAPS  H17S 1936   5.773   3.556   8.206 -0.4122 -1.2591 -0.0200
   15SAPS  C218 1937   5.831   3.359   8.148  0.3414 -0.4702 -0.4893
   15SAPS  H18R 1938   5.922   3.384   8.090  0.9382 -1.5401 -0.0445
   15SAPS  H18S 1939   5.777   3.273   8.102  2.0803 -0.9618 -1.6981
   15SAPS  C219 1940   5.887   3.321   8.283  0.4351  0.2932 -0.9544
   15SAPS  H19R 1941   5.944   3.226   8.287  1.6202  0.9022 -2.2229
   15SAPS  H19S 1942   5.798   3.313   8.349 -0.1623 -2.2795 -1.9202
   15SAPS  C220 1943   5.987   3.420   8.333  0.2022  0.4348  0.8928
   15SAPS  H20R 1944   5.946   3.519   8.304  1.5110  1.2312  1.6364
   15SAPS  H20S 1945   6.091   3.400   8.297  0.0549  2.1089 -0.5840
   15SAPS  H20T 1946   5.986   3.412   8.443  1.1268 -1.0132  0.8351
   15SAPS   C33 1947   6.000   2.806   6.696 -1.0512 -0.4870  0.3995
   15SAPS   H3X 1948   6.067   2.764   6.618 -1.9381 -0.3579 -0.4520
   15SAPS   H3Y 1949   5.912   2.738   6.701  0.0545 -1.8926  1.4838
   15SAPS   C34 1950   6.082   2.795   6.829  0.1447  0.3768 -0.4556
   15SAPS   H4X 1951   6.013   2.832   6.908 -2.6823 -3.8930 -0.5618
   15SAPS   H4Y 1952   6.169   2.859   6.805  0.6430 -0.3336 -0.5509
   15SAPS   C35 1953   6.119   2.652   6.871  0.0197 -0.1718  0.7104
   15SAPS   H5X 1954   6.177   2.600   6.791  0.7110  0.1099  1.0233
   15SAPS   H5Y 1955   6.026   2.591   6.873 -0.0942 -0.0514 -0.4109
   15SAPS   C36 1956   6.190   2.642   7.006 -0.3205  0.2858  0.1604
   15SAPS   H6X 1957   6.252   2.733   7.021  0.2607  0.3908 -2.4501
   15SAPS   H6Y 1958   6.237   2.541   7.006 -1.7839 -0.4518  1.6104
   15SAPS   C37 1959   6.100   2.649   7.135 -0.5866 -1.0093  0.4938
   15SAPS   H7X 1960   6.058   2.751   7.144 -2.2099 -1.5232 -0.8232
   15SAPS   H7Y 1961   6.157   2.635   7.230 -2.1335  1.0378  1.8016
   15SAPS   C38 1962   5.972   2.563   7.143 -0.3717  0.3932 -0.0932
   15SAPS   H8X 1963   6.004   2.457   7.140 -0.0221  0.3861  2.2613
   15SAPS   H8Y 1964   5.909   2.578   7.053  0.9990  1.5625 -0.9009
   15SAPS   C39 1965   5.902   2.591   7.273 -0.0295  0.7808  0.1190
   15SAPS   H9X 1966   5.868   2.695   7.294  1.7703  1.3331  0.4998
   15SAPS   H9Y 1967   5.967   2.577   7.362 -1.9621 -2.5186  1.1973
   15SAPS  C310 1968   5.781   2.490   7.282 -0.8679 -0.3629 -0.4005
   15SAPS  H10X 1969   5.821   2.387   7.280 -1.5220 -0.6053 -1.6831
   15SAPS  H10Y 1970   5.730   2.491   7.184  0.7573 -1.3175 -1.2951
   15SAPS  C311 1971   5.708   2.504   7.419 -0.1236 -0.5360  0.0122
   15SAPS  H11X 1972   5.622   2.434   7.410  0.3806 -1.0055 -1.4539
   15SAPS  H11Y 1973   5.664   2.606   7.426  0.8455 -0.0515 -0.7095
   15SAPS  C312 1974   5.788   2.477   7.545 -1.3618  1.2419  0.8984
   15SAPS  H12X 1975   5.884   2.533   7.548  0.6038 -1.8880  3.4713
   15SAPS  H12Y 1976   5.837   2.377   7.541  0.6892  2.2070  0.5594
   15SAPS  C313 1977   5.707   2.467   7.668  0.4537 -0.2385  0.1528
   15SAPS  H13X 1978   5.636   2.383   7.649  2.0273 -1.5632 -0.0538
   15SAPS  H13Y 1979   5.646   2.559   7.683 -1.2163 -1.5704  2.2198
   15SAPS  C314 1980   5.787   2.447   7.799  0.1528 -0.0013 -0.1663
   15SAPS  H14X 1981   5.886   2.496   7.807  0.9846 -1.3790 -1.4202
   15SAPS  H14Y 1982   5.805   2.337   7.800 -2.4063 -0.5774  2.8729
   15SAPS  C315 1983   5.707   2.449   7.928 -0.1428  0.8175  0.4987
   15SAPS  H15X 1984   5.608   2.398   7.916 -0.7787  2.0624  0.3391
   15SAPS  H15Y 1985   5.693   2.554   7.959 -0.7068  1.3706 -1.4745
   15SAPS  C316 1986   5.778   2.373   8.043  0.8649 -0.5721 -0.1317
   15SAPS  H16X 1987   5.880   2.407   8.071  0.3675  0.7328  0.1540
   15SAPS  H16Y 1988   5.783   2.268   8.007  1.5842 -0.4958 -0.2769
   15SAPS  C317 1989   5.700   2.387   8.173 -1.2543 -0.3638  0.0723
   15SAPS  H17X 1990   5.697   2.497   8.189  0.4650  0.2194 -2.9144
   15SAPS  H17Y 1991   5.759   2.342   8.256  0.2082  1.2281 -0.0409
   15SAPS  C318 1992   5.560   2.338   8.183  0.2248  0.2335 -0.5515
   15SAPS  H18X 1993   5.560   2.230   8.157  0.6037  0.1554 -0.2466
   15SAPS  H18Y 1994   5.481   2.386   8.121  0.1368  1.7013  0.6343
   15SAPS  H18Z 1995   5.520   2.357   8.285 -1.3237  0.4333 -1.1705
   16SAPS     N 1996   1.462   6.673   6.748 -0.1149  0.0798  0.1581
   16SAPS   HN1 1997   1.544   6.712   6.698 -0.3337  0.9920  0.4995
   16SAPS   HN2 1998   1.411   6.751   6.794  0.9983  1.9241 -1.5902
   16SAPS   HN3 1999   1.495   6.611   6.825  0.0720 -0.8571 -0.6431
   16SAPS   C12 2000   1.384   6.601   6.651 -0.0360 -0.1314 -0.3443
   16SAPS  H12A 2001   1.307   6.542   6.698 -0.3527  0.4597 -0.1086
   16SAPS   C13 2002   1.293   6.684   6.563 -0.9096  0.3898 -0.1381
   16SAPS  O13A 2003   1.310   6.807   6.554 -0.0656  0.1117  0.8796
   16SAPS  O13B 2004   1.230   6.624   6.475 -0.1820  0.0576 -0.1739
   16SAPS   C11 2005   1.478   6.507   6.567 -0.6093 -0.6181 -0.3067
   16SAPS  H11A 2006   1.551   6.571   6.512 -1.1349  1.4285  1.2449
   16SAPS  H11B 2007   1.410   6.458   6.495 -2.4157  0.3310  0.6934
   16SAPS     P 2008   1.638   6.298   6.584 -0.2554 -0.2610 -0.3205
   16SAPS   O13 2009   1.601   6.294   6.443  0.4431  0.3653 -0.3983
   16SAPS   O14 2010   1.780   6.323   6.610 -0.3374  0.1037 -0.1157
   16SAPS   O12 2011   1.546   6.408   6.650  0.1824  0.0810  0.3629
   16SAPS   O11 2012   1.587   6.156   6.650 -0.3447 -0.0501 -0.4198
   16SAPS    C1 2013   1.465   6.167   6.736 -0.6392 -0.2495  0.3521
   16SAPS    HA 2014   1.381   6.221   6.687  1.3141  1.1549 -1.6219
   16SAPS    HB 2015   1.428   6.064   6.758 -1.2046  0.3961  2.6755
   16SAPS    C2 2016   1.489   6.221   6.875 -0.0845  0.0442 -0.2590
   16SAPS    HS 2017   1.509   6.329   6.863 -1.0930  0.2445 -0.1731
   16SAPS   O21 2018   1.607   6.158   6.935 -0.3103 -0.7784  0.2334
   16SAPS   C21 2019   1.668   6.214   7.039  0.1129  0.3672  0.3557
   16SAPS   O22 2020   1.646   6.326   7.078 -0.0517  0.0088  0.2773
   16SAPS   C22 2021   1.781   6.128   7.096  0.2149 -0.5249 -0.5934
   16SAPS   H2R 2022   1.745   6.027   7.124 -1.3770 -0.7886 -3.2854
   16SAPS   H2S 2023   1.861   6.122   7.019  0.2328  0.5935 -0.6872
   16SAPS    C3 2024   1.368   6.213   6.970 -0.7547  0.3467  0.4419
   16SAPS    HX 2025   1.332   6.110   6.990 -1.2831  0.5394  0.4874
   16SAPS    HY 2026   1.281   6.256   6.916 -0.0391 -1.0083 -1.9185
   16SAPS   O31 2027   1.395   6.276   7.094  0.3156  0.0104 -0.0323
   16SAPS   C31 2028   1.332   6.390   7.119 -0.1773 -0.3578 -0.2613
   16SAPS   O32 2029   1.253   6.448   7.049 -0.8326  0.1113  0.2989
   16SAPS   C32 2030   1.383   6.431   7.259 -0.1111 -0.3894  0.4237
   16SAPS   H2X 2031   1.476   6.490   7.250  0.5803 -1.5882 -0.6660
   16SAPS   H2Y 2032   1.412   6.344   7.322 -1.5152 -1.0047  0.2742
   16SAPS   C23 2033   1.838   6.188   7.228 -0.3053 -0.1176  0.0702
   16SAPS   H3R 2034   1.766   6.159   7.307  0.7231 -2.5683  0.2092
   16SAPS   H3S 2035   1.850   6.296   7.206  0.6446  0.1263  1.6766
   16SAPS   C24 2036   1.981   6.135   7.269  0.2403 -0.0759  0.1718
   16SAPS   H4R 2037   2.019   6.210   7.341  2.2512 -0.6312 -0.2687
   16SAPS   H4S 2038   2.053   6.142   7.185 -1.6274  1.5108 -1.4215
   16SAPS   C25 2039   1.972   5.997   7.338  0.0751  0.1294  0.1562
   16SAPS   H5R 2040   1.905   5.930   7.283 -2.3062 -0.2743  3.2415
   16SAPS   C26 2041   2.021   5.959   7.453  1.1018 -0.4858 -0.2448
   16SAPS   H6R 2042   1.998   5.855   7.484 -0.1256  0.4309  2.1872
   16SAPS   C27 2043   2.103   6.051   7.542 -1.1672 -0.3015  0.1278
   16SAPS   H7R 2044   2.173   6.114   7.482  1.9401 -1.3961  2.3426
   16SAPS   H7S 2045   2.177   5.991   7.600  1.6827  0.9443 -1.9471
   16SAPS   C28 2046   2.025   6.142   7.633  0.3166  0.9419  0.5564
   16SAPS   H8R 2047   1.983   6.229   7.580 -1.2392  2.2393  3.6359
   16SAPS   C29 2048   2.014   6.120   7.767  0.0622  0.0539 -0.0685
   16SAPS   H9R 2049   1.972   6.200   7.831 -1.4068 -1.7261  1.2802
   16SAPS  C210 2050   2.087   6.016   7.849  0.5675  0.2017 -0.1517
   16SAPS  H10R 2051   2.109   5.929   7.783 -1.4285  0.1209 -0.7898
   16SAPS  H10S 2052   2.015   5.960   7.913  1.1223  0.6680  0.8867
   16SAPS  C211 2053   2.209   6.057   7.931 -0.1555 -0.9519 -0.3890
   16SAPS  H11R 2054   2.305   6.058   7.877  0.2177  2.2253  0.1143
   16SAPS  C212 2055   2.204   6.075   8.065  0.1613  0.4535 -0.7104
   16SAPS  H12R 2056   2.298   6.109   8.111  0.3516  0.4130 -1.0689
   16SAPS  C213 2057   2.074   6.067   8.150  0.0473 -0.5147 -0.1790
   16SAPS  H13R 2058   2.081   5.970   8.205  0.1087 -0.7177 -0.5453
   16SAPS  H13S 2059   1.985   6.060   8.084 -0.1489 -0.9117  0.1197
   16SAPS  C214 2060   2.076   6.180   8.245 -0.3731  0.4996 -0.0775
   16SAPS  H14R 2061   2.033   6.267   8.193 -2.8073 -1.0805 -0.8844
   16SAPS  C215 2062   2.126   6.198   8.369  0.8600 -0.3482 -0.5096
   16SAPS  H15R 2063   2.128   6.303   8.404  1.1855 -0.1491 -1.1167
   16SAPS  C216 2064   2.179   6.095   8.465 -0.4528 -0.9891  0.0649
   16SAPS  H16R 2065   2.288   6.112   8.469 -0.5083 -0.7988  0.9222
   16SAPS  H16S 2066   2.162   5.991   8.430 -2.7612 -0.5800 -0.1942
   16SAPS  C217 2067   2.135   6.103   8.611 -0.8912 -0.0155 -0.1163
   16SAPS  H17R 2068   2.160   6.208   8.639  1.0227 -0.2935 -0.5893
   16SAPS  H17S 2069   2.195   6.026   8.663 -0.6812  0.9718  1.1512
   16SAPS  C218 2070   1.985   6.073   8.621  0.4170  0.5415  0.4136
   16SAPS  H18R 2071   1.964   5.978   8.566 -1.2923  2.0150 -1.6464
   16SAPS  H18S 2072   1.926   6.148   8.563  2.0796 -0.1807 -2.3896
   16SAPS  C219 2073   1.923   6.078   8.760  0.2417  0.2931 -0.0172
   16SAPS  H19R 2074   1.933   6.184   8.791  0.0494  0.1107  0.7055
   16SAPS  H19S 2075   1.978   6.014   8.833  2.8665  0.5068 -1.7189
   16SAPS  C220 2076   1.776   6.030   8.756  0.2514 -0.1122  0.2677
   16SAPS  H20R 2077   1.708   6.098   8.701  2.6995  0.6390 -2.0287
   16SAPS  H20S 2078   1.738   6.029   8.861 -1.4301 -0.1501 -0.3065
   16SAPS  H20T 2079   1.752   5.932   8.709  1.6522  0.3615 -1.5131
   16SAPS   C33 2080   1.281   6.509   7.343  0.9240 -0.9107 -0.1429
   16SAPS   H3X 2081   1.322   6.527   7.445 -0.1345  1.0998 -0.0243
   16SAPS   H3Y 2082   1.182   6.461   7.354  0.9417 -0.8244  0.4408
   16SAPS   C34 2083   1.253   6.650   7.279 -0.2260  0.1845 -0.5512
   16SAPS   H4X 2084   1.161   6.682   7.332 -1.4471 -2.7535 -0.6915
   16SAPS   H4Y 2085   1.210   6.664   7.178 -0.8080 -0.6113 -0.4272
   16SAPS   C35 2086   1.364   6.747   7.319 -0.0842  0.4181 -0.3563
   16SAPS   H5X 2087   1.373   6.822   7.238 -1.3802  0.2664 -0.6521
   16SAPS   H5Y 2088   1.459   6.691   7.329 -0.6857 -0.7232 -0.9089
   16SAPS   C36 2089   1.332   6.818   7.455  0.0887 -0.0237  0.0746
   16SAPS   H6X 2090   1.234   6.870   7.445  0.0708 -0.0020  0.3760
   16SAPS   H6Y 2091   1.412   6.892   7.470 -2.1270  2.5257  0.0417
   16SAPS   C37 2092   1.326   6.739   7.584  0.4061 -0.0916 -1.4878
   16SAPS   H7X 2093   1.409   6.668   7.605 -0.2511 -0.5748 -0.3984
   16SAPS   H7Y 2094   1.237   6.672   7.581 -1.9597  2.5933  1.2939
   16SAPS   C38 2095   1.305   6.826   7.707  0.2844 -0.1616 -0.2596
   16SAPS   H8X 2096   1.252   6.919   7.680 -1.6404 -1.7523 -2.3826
   16SAPS   H8Y 2097   1.398   6.865   7.754 -0.6694  0.9482  0.7312
   16SAPS   C39 2098   1.231   6.750   7.811  0.2356 -0.1123 -0.2393
   16SAPS   H9X 2099   1.293   6.661   7.834  0.9697 -0.1256 -2.0663
   16SAPS   H9Y 2100   1.137   6.709   7.768  0.5495  0.1923 -1.2396
   16SAPS  C310 2101   1.189   6.846   7.926 -0.1958  0.5488  0.2530
   16SAPS  H10X 2102   1.140   6.939   7.891 -2.7124 -0.2236  1.4881
   16SAPS  H10Y 2103   1.278   6.897   7.969 -0.0246 -0.1811  0.7953
   16SAPS  C311 2104   1.099   6.779   8.034  0.0457 -0.0645  0.0472
   16SAPS  H11X 2105   1.142   6.678   8.048 -3.7622 -1.8404  0.0274
   16SAPS  H11Y 2106   0.992   6.773   8.004  0.3523  0.4738 -1.2207
   16SAPS  C312 2107   1.106   6.852   8.170 -0.2072 -0.0123 -0.2730
   16SAPS  H12X 2108   1.024   6.823   8.239  1.0348 -1.1973  0.7656
   16SAPS  H12Y 2109   1.104   6.960   8.144  0.7677 -0.3162 -1.7659
   16SAPS  C313 2110   1.243   6.832   8.238  0.6776 -0.5322 -0.0907
   16SAPS  H13X 2111   1.258   6.923   8.301 -0.0385  0.9758 -1.9846
   16SAPS  H13Y 2112   1.322   6.814   8.162 -0.7537  0.4453 -1.8776
   16SAPS  C314 2113   1.251   6.719   8.345 -0.3553  0.9311  0.3560
   16SAPS  H14X 2114   1.226   6.624   8.293  0.1244  1.8040 -1.5663
   16SAPS  H14Y 2115   1.173   6.746   8.418 -0.9140  0.0013  0.1202
   16SAPS  C315 2116   1.383   6.687   8.415 -0.0547  0.1944  0.9643
   16SAPS  H15X 2117   1.460   6.668   8.337 -1.2657 -2.0134  0.2262
   16SAPS  H15Y 2118   1.376   6.597   8.480 -1.0335 -1.0601 -0.8113
   16SAPS  C316 2119   1.424   6.803   8.512 -0.2230 -0.1042 -0.1417
   16SAPS  H16X 2120   1.339   6.821   8.581 -0.1674 -0.5151  0.0346
   16SAPS  H16Y 2121   1.457   6.887   8.448 -1.1043  0.3672 -0.0045
   16SAPS  C317 2122   1.542   6.780   8.604 -0.8781  0.5700 -0.0399
   16SAPS  H17X 2123   1.534   6.854   8.686  1.6435  0.7029  0.1730
   16SAPS  H17Y 2124   1.647   6.803   8.576  0.5677 -4.3940  0.3661
   16SAPS  C318 2125   1.555   6.644   8.677  0.3493  0.0166  0.0591
   16SAPS  H18X 2126   1.457   6.595   8.693  0.2149  0.1232 -0.4274
   16SAPS  H18Y 2127   1.620   6.651   8.767 -0.3592 -0.8433  0.6537
   16SAPS  H18Z 2128   1.616   6.587   8.603  1.3247 -0.3287  1.0934
   17SAPC     N 2129   5.474   1.836  10.635 -0.0683 -0.2418  0.4920
   17SAPC   C12 2130   5.531   1.926  10.527 -0.0036  0.3111  0.3553
   17SAPC  H12A 2131   5.600   1.865  10.470  0.2819 -0.9126  1.9472
   17SAPC  H12B 2132   5.598   1.992  10.581 -1.2289  1.1678  0.8746
   17SAPC   C13 2133   5.413   1.710  10.572 -0.7941 -0.3216  0.5009
   17SAPC  H13A 2134   5.345   1.743  10.495 -0.6008  2.5268  1.4651
   17SAPC  H13B 2135   5.494   1.647  10.537 -1.2723 -0.1682 -0.9634
   17SAPC  H13C 2136   5.367   1.648  10.647  1.0849 -1.8233  0.5040
   17SAPC   C14 2137   5.577   1.804  10.740  0.0356  0.0278  0.1124
   17SAPC  H14A 2138   5.532   1.745  10.819 -1.0407  0.6765  0.0104
   17SAPC  H14B 2139   5.664   1.751  10.706 -0.3752  0.3800 -1.5458
   17SAPC  H14C 2140   5.606   1.895  10.790 -0.4347  0.7254 -0.8490
   17SAPC   C15 2141   5.359   1.905  10.698 -0.0934  0.1058  0.4209
   17SAPC  H15A 2142   5.300   1.827  10.744  0.6845 -0.6658  0.1685
   17SAPC  H15B 2143   5.392   1.983  10.764 -0.0216  0.9236 -0.5639
   17SAPC  H15C 2144   5.301   1.944  10.616  0.7457 -1.7121 -1.1360
   17SAPC   C11 2145   5.438   2.012  10.430 -0.3972  0.2379  0.3045
   17SAPC  H11A 2146   5.363   1.946  10.382  0.0762 -0.4594  0.5047
   17SAPC  H11B 2147   5.506   2.044  10.348 -1.6176  2.4975  0.0930
   17SAPC     P 2148   5.471   2.244  10.529  0.1786  0.4265 -0.1197
   17SAPC   O13 2149   5.389   2.325  10.622 -0.7947  0.0584 -0.2767
   17SAPC   O14 2150   5.613   2.212  10.569 -0.0945 -0.6449 -0.2996
   17SAPC   O12 2151   5.384   2.121  10.500  1.0634  0.7384 -0.3859
   17SAPC   O11 2152   5.481   2.319  10.385  0.9401 -0.4759 -0.1595
   17SAPC    C1 2153   5.380   2.315  10.281  0.3364 -0.4710 -0.1280
   17SAPC    HA 2154   5.281   2.280  10.318  0.5354 -1.7477 -0.7163
   17SAPC    HB 2155   5.361   2.418  10.246 -0.4517 -0.8428 -0.8395
   17SAPC    C2 2156   5.420   2.238  10.153  0.4953 -0.3429  0.0535
   17SAPC    HS 2157   5.452   2.134  10.171  0.9773 -0.4192 -1.1928
   17SAPC   O21 2158   5.524   2.318  10.095  0.4660 -0.3179  0.5856
   17SAPC   C21 2159   5.639   2.282  10.132 -0.5686 -0.1227 -0.3128
   17SAPC   O22 2160   5.669   2.193  10.206 -0.5729  1.1704 -0.7808
   17SAPC   C22 2161   5.735   2.381  10.059 -0.3145  0.6502 -0.2781
   17SAPC   H2R 2162   5.672   2.460  10.014 -1.5276  0.6295  1.3012
   17SAPC   H2S 2163   5.795   2.430  10.139 -1.2336 -0.4413  1.1225
   17SAPC    C3 2164   5.298   2.221  10.053  0.2585 -0.5828 -0.4064
   17SAPC    HX 2165   5.275   2.324  10.019 -0.9859 -1.3408 -1.9689
   17SAPC    HY 2166   5.212   2.175  10.107 -0.2695 -3.1088 -3.1351
   17SAPC   O31 2167   5.334   2.130   9.947 -0.8231  0.4898 -0.1242
   17SAPC   C31 2168   5.348   2.171   9.819 -0.1458  0.5114 -0.4623
   17SAPC   O32 2169   5.318   2.285   9.785 -0.2007  0.1293 -0.3982
   17SAPC   C32 2170   5.406   2.060   9.723  0.2987 -0.1112 -0.4253
   17SAPC   H2X 2171   5.354   1.970   9.761 -1.5605  0.6562 -1.0505
   17SAPC   H2Y 2172   5.514   2.063   9.747 -0.0746  1.1985  1.2381
   17SAPC   C23 2173   5.829   2.305   9.956  0.5247  0.1148  0.1990
   17SAPC   H3R 2174   5.894   2.228  10.004  0.2027  0.0901  0.5983
   17SAPC   H3S 2175   5.906   2.375   9.916  0.8864  0.5455  1.5873
   17SAPC   C24 2176   5.755   2.243   9.839  0.0527 -0.4149 -0.0903
   17SAPC   H4R 2177   5.672   2.185   9.886 -0.0920  0.7659  1.1675
   17SAPC   H4S 2178   5.819   2.161   9.800 -0.1500 -0.0411 -1.2532
   17SAPC   C25 2179   5.703   2.341   9.736 -0.4452 -0.1332  0.0658
   17SAPC   H5R 2180   5.608   2.391   9.759  0.1584  0.7032  0.8502
   17SAPC   C26 2181   5.763   2.383   9.619  0.3870  0.3659 -0.5722
   17SAPC   H6R 2182   5.722   2.460   9.551  2.9375  0.1294 -2.5241
   17SAPC   C27 2183   5.895   2.336   9.565  0.1099  0.1438 -0.3590
   17SAPC   H7R 2184   5.962   2.307   9.649  0.7659  0.3054 -0.8174
   17SAPC   H7S 2185   5.941   2.421   9.509 -0.2362  0.6156  0.0572
   17SAPC   C28 2186   5.882   2.205   9.494  0.0545  0.0324 -0.6048
   17SAPC   H8R 2187   5.821   2.135   9.552 -0.1912  0.5748 -0.1934
   17SAPC   C29 2188   5.934   2.169   9.375  0.1055  0.1587 -0.5573
   17SAPC   H9R 2189   5.915   2.066   9.341 -0.3842 -0.2886  0.9680
   17SAPC  C210 2190   6.019   2.260   9.296  0.1666 -0.7103 -0.7207
   17SAPC  H10R 2191   6.064   2.206   9.209  0.7026 -2.5181  0.6214
   17SAPC  H10S 2192   6.105   2.296   9.356 -0.6047  0.1537 -0.0996
   17SAPC  C211 2193   5.945   2.376   9.245  1.3108 -0.6547 -0.1446
   17SAPC  H11R 2194   5.875   2.412   9.321  0.2577 -0.8439 -1.0105
   17SAPC  C212 2195   5.955   2.444   9.131 -0.3858 -0.3115 -1.2483
   17SAPC  H12R 2196   5.888   2.531   9.118  2.1733  2.2324  1.1692
   17SAPC  C213 2197   6.040   2.416   9.015  0.1652  0.0349  0.3250
   17SAPC  H13R 2198   5.993   2.337   8.952 -1.1389  1.5939 -0.7298
   17SAPC  H13S 2199   6.134   2.367   9.048  0.1024 -1.6590 -1.7585
   17SAPC  C214 2200   6.080   2.527   8.918  0.1483  0.1643  0.4297
   17SAPC  H14R 2201   6.186   2.556   8.923  0.1231  0.4373 -0.4595
   17SAPC  C215 2202   5.998   2.593   8.831 -0.0429 -0.4924  0.2720
   17SAPC  H15R 2203   6.046   2.670   8.769  0.1657  0.5343  1.6725
   17SAPC  C216 2204   5.857   2.565   8.797  0.3768 -0.9047 -0.3183
   17SAPC  H16R 2205   5.824   2.650   8.733  0.3382 -1.2025 -0.7003
   17SAPC  H16S 2206   5.788   2.553   8.883  1.2111  2.4513  0.9948
   17SAPC  C217 2207   5.829   2.441   8.718 -0.6972  0.1950 -0.3237
   17SAPC  H17R 2208   5.719   2.435   8.702 -0.8652 -2.6954  1.1531
   17SAPC  H17S 2209   5.853   2.343   8.766 -0.2368  0.2528 -0.4337
   17SAPC  C218 2210   5.892   2.429   8.577 -0.1909  0.1070  0.1390
   17SAPC  H18R 2211   5.881   2.327   8.534 -3.1749  0.6183 -0.5346
   17SAPC  H18S 2212   5.999   2.451   8.597  0.8965 -2.1941 -2.5662
   17SAPC  C219 2213   5.847   2.525   8.470 -0.1281 -0.9677  0.6357
   17SAPC  H19R 2214   5.823   2.622   8.518 -1.7105 -1.5803  1.1507
   17SAPC  H19S 2215   5.751   2.488   8.428 -1.4936  1.2948  1.5595
   17SAPC  C220 2216   5.951   2.548   8.359 -0.4031 -0.0826  0.3128
   17SAPC  H20R 2217   5.958   2.452   8.305 -0.3680  0.9021 -1.5200
   17SAPC  H20S 2218   6.050   2.576   8.402 -1.2849 -0.1315  2.5034
   17SAPC  H20T 2219   5.923   2.628   8.288 -1.7166  0.9084  1.8584
   17SAPC   C33 2220   5.380   2.065   9.572  0.0804 -0.5888 -0.4016
   17SAPC   H3X 2221   5.276   2.102   9.562  0.2524 -0.1421 -0.5458
   17SAPC   H3Y 2222   5.387   1.960   9.535  2.6396 -0.6225 -0.0011
   17SAPC   C34 2223   5.467   2.166   9.508  0.2018  0.3747  0.1443
   17SAPC   H4X 2224   5.572   2.138   9.532  1.1110  1.2186 -2.5096
   17SAPC   H4Y 2225   5.445   2.264   9.555 -0.8849 -0.5577  1.6648
   17SAPC   C35 2226   5.468   2.175   9.353 -0.7757 -0.5168  0.1825
   17SAPC   H5X 2227   5.368   2.202   9.313 -0.2851  1.9498  0.4447
   17SAPC   H5Y 2228   5.486   2.074   9.311  1.7435  0.0656 -0.3264
   17SAPC   C36 2229   5.577   2.271   9.306 -0.2345 -0.0398  0.2983
   17SAPC   H6X 2230   5.667   2.269   9.371  0.0246  1.3338 -0.0008
   17SAPC   H6Y 2231   5.528   2.370   9.314  2.7109  1.8437 -2.4275
   17SAPC   C37 2232   5.612   2.270   9.155 -0.9422  0.6588  0.2831
   17SAPC   H7X 2233   5.681   2.350   9.122 -0.4943  0.3954  0.5673
   17SAPC   H7Y 2234   5.523   2.266   9.088 -1.2104 -1.6070  0.6937
   17SAPC   C38 2235   5.668   2.138   9.113 -0.5865  0.3897  0.8236
   17SAPC   H8X 2236   5.589   2.060   9.105  1.5714 -1.7924 -0.4002
   17SAPC   H8Y 2237   5.742   2.092   9.181 -0.2694  0.9184  0.8465
   17SAPC   C39 2238   5.733   2.152   8.976 -0.0919 -0.3731 -0.0088
   17SAPC   H9X 2239   5.828   2.209   8.979  0.5339 -1.4277  1.1851
   17SAPC   H9Y 2240   5.660   2.202   8.909  0.5488  0.8202  0.1474
   17SAPC  C310 2241   5.780   2.011   8.927  0.0050  0.0889 -0.0478
   17SAPC  H10X 2242   5.692   1.946   8.944  0.5696 -0.6773 -0.0059
   17SAPC  H10Y 2243   5.872   1.980   8.981 -0.1372 -0.6776 -0.2353
   17SAPC  C311 2244   5.801   2.012   8.773  0.5500 -0.6248 -0.3034
   17SAPC  H11X 2245   5.846   2.106   8.736 -1.2363 -0.0698 -1.1762
   17SAPC  H11Y 2246   5.703   2.019   8.722  0.1738 -1.1324  0.3264
   17SAPC  C312 2247   5.856   1.878   8.724 -0.5876 -0.6184  0.2048
   17SAPC  H12X 2248   5.938   1.842   8.790 -2.7818 -2.2749  2.2099
   17SAPC  H12Y 2249   5.900   1.894   8.624  0.1085 -0.2292  0.5652
   17SAPC  C313 2250   5.751   1.768   8.710 -0.6169 -0.5146  0.3111
   17SAPC  H13X 2251   5.670   1.801   8.641 -0.8427 -1.9123 -0.1105
   17SAPC  H13Y 2252   5.714   1.746   8.813  0.6386  0.6034  1.0364
   17SAPC  C314 2253   5.819   1.632   8.662  0.9173  0.3422 -0.0807
   17SAPC  H14X 2254   5.757   1.540   8.663  0.6361  0.4822 -1.6135
   17SAPC  H14Y 2255   5.917   1.618   8.712  1.2611 -1.6218 -1.2009
   17SAPC  C315 2256   5.858   1.653   8.512  0.4588  0.1147 -0.3547
   17SAPC  H15X 2257   5.948   1.719   8.510  2.7747 -2.8379 -1.4953
   17SAPC  H15Y 2258   5.776   1.707   8.461  1.4430  1.8369 -0.2034
   17SAPC  C316 2259   5.895   1.523   8.434  0.2738 -0.2949  0.0101
   17SAPC  H16X 2260   5.899   1.544   8.325  0.4862  3.3874  0.5991
   17SAPC  H16Y 2261   5.817   1.446   8.455  0.5921 -0.1112  2.0387
   17SAPC  C317 2262   6.030   1.470   8.480  0.2592  0.4966 -0.0180
   17SAPC  H17X 2263   6.047   1.501   8.586 -1.1394  0.3476  0.2675
   17SAPC  H17Y 2264   6.111   1.521   8.424 -0.1411  0.8430 -0.2848
   17SAPC  C318 2265   6.054   1.321   8.470  0.2083  0.5069  0.2876
   17SAPC  H18X 2266   5.958   1.265   8.476  0.8517 -0.4483  2.7665
   17SAPC  H18Y 2267   6.100   1.306   8.370  2.4009  4.4151  0.5100
   17SAPC  H18Z 2268   6.114   1.291   8.558 -0.1924  0.8316  0.6753
   18SAPC     N 2269   4.613   2.120  10.869 -1.0115 -0.2278 -0.5026
   18SAPC   C12 2270   4.693   2.070  10.992  0.1055 -0.3534  0.4743
   18SAPC  H12A 2271   4.619   2.015  11.048 -0.2918 -0.1998  0.1085
   18SAPC  H12B 2272   4.724   2.152  11.054  2.9193 -1.6334  0.9184
   18SAPC   C13 2273   4.578   2.006  10.785  0.6467  0.4245  0.4286
   18SAPC  H13A 2274   4.533   1.926  10.840 -0.9521  0.7311 -0.3822
   18SAPC  H13B 2275   4.512   2.043  10.708  1.1801  1.9478  0.6629
   18SAPC  H13C 2276   4.666   1.960  10.741 -0.8797 -1.3553 -0.8931
   18SAPC   C14 2277   4.491   2.196  10.921  0.5113  0.9481  0.1053
   18SAPC  H14A 2278   4.433   2.130  10.985  0.7725  1.0680  0.4670
   18SAPC  H14B 2279   4.515   2.280  10.984  0.5913  0.3236  0.9129
   18SAPC  H14C 2280   4.431   2.241  10.843 -0.5280  0.9997  0.9254
   18SAPC   C15 2281   4.702   2.212  10.793 -0.0276 -0.9557 -0.0275
   18SAPC  H15A 2282   4.691   2.310  10.838 -1.1201 -0.4874 -1.2512
   18SAPC  H15B 2283   4.806   2.184  10.781  0.5540  1.4937 -1.6213
   18SAPC  H15C 2284   4.663   2.226  10.693  2.0493 -1.5938 -0.9847
   18SAPC   C11 2285   4.806   1.969  10.973 -0.5091 -0.1793 -0.4075
   18SAPC  H11A 2286   4.770   1.878  10.920  0.7771  0.1387 -1.9199
   18SAPC  H11B 2287   4.847   1.935  11.070 -2.2805 -0.4351  0.2757
   18SAPC     P 2288   4.992   1.965  10.778  0.0359  0.1074  0.4366
   18SAPC   O13 2289   5.069   2.075  10.715 -0.6404  0.0683 -0.5191
   18SAPC   O14 2290   5.070   1.843  10.807  0.2781 -0.2646 -0.2567
   18SAPC   O12 2291   4.930   2.026  10.908  0.2579 -0.3181 -0.2555
   18SAPC   O11 2292   4.874   1.941  10.681  0.4058 -0.2150 -0.6906
   18SAPC    C1 2293   4.850   1.806  10.645 -0.3876 -0.2623  0.3777
   18SAPC    HA 2294   4.822   1.736  10.726 -3.1970  2.0485  1.5749
   18SAPC    HB 2295   4.752   1.815  10.592  0.3801  1.7220 -0.8283
   18SAPC    C2 2296   4.946   1.735  10.546 -0.5225  0.0711  0.0479
   18SAPC    HS 2297   5.041   1.730  10.602 -0.3077  0.3102 -0.2878
   18SAPC   O21 2298   4.967   1.812  10.424 -0.7243  0.1971 -0.4080
   18SAPC   C21 2299   5.081   1.798  10.361 -0.2475 -0.0711  0.2715
   18SAPC   O22 2300   5.173   1.725  10.390 -0.4254 -0.4909 -0.6995
   18SAPC   C22 2301   5.057   1.876  10.228  0.1925  0.8334 -0.0313
   18SAPC   H2R 2302   4.959   1.845  10.187 -0.1069  1.7105  0.0039
   18SAPC   H2S 2303   5.058   1.981  10.263  3.3673  1.5436 -1.8925
   18SAPC    C3 2304   4.893   1.587  10.518  0.0904 -0.5960 -0.0178
   18SAPC    HX 2305   4.860   1.539  10.613 -1.6794 -2.6413 -1.5648
   18SAPC    HY 2306   4.986   1.533  10.488  0.1107 -0.9800  0.7096
   18SAPC   O31 2307   4.769   1.582  10.438 -0.9764 -0.0069  0.5307
   18SAPC   C31 2308   4.795   1.572  10.312 -0.3595  0.4986 -0.4902
   18SAPC   O32 2309   4.904   1.560  10.257 -0.3382  0.2175 -0.1438
   18SAPC   C32 2310   4.660   1.571  10.240  0.0168 -0.4486  0.7415
   18SAPC   H2X 2311   4.590   1.642  10.290  0.6326  1.3258 -0.7689
   18SAPC   H2Y 2312   4.616   1.472  10.265  0.4221 -1.4361 -2.0885
   18SAPC   C23 2313   5.166   1.870  10.113  0.3522  0.3759 -0.5305
   18SAPC   H3R 2314   5.258   1.884  10.173  0.3755  0.2897 -0.5474
   18SAPC   H3S 2315   5.162   1.961  10.049 -0.3976  1.0800  0.4753
   18SAPC   C24 2316   5.138   1.747  10.028  0.4140  0.0675 -0.2170
   18SAPC   H4R 2317   5.040   1.760   9.976  0.8428  1.0169 -0.8179
   18SAPC   H4S 2318   5.118   1.654  10.085 -2.7425 -0.1274 -1.4350
   18SAPC   C25 2319   5.248   1.726   9.933 -0.5405 -0.2408  0.5844
   18SAPC   H5R 2320   5.347   1.715   9.980  0.6943  1.4846 -1.4448
   18SAPC   C26 2321   5.243   1.721   9.797  0.6267 -0.0281 -0.0219
   18SAPC   H6R 2322   5.334   1.687   9.743  0.8678 -0.0775  0.4146
   18SAPC   C27 2323   5.121   1.731   9.707 -0.0135  0.1122 -0.8261
   18SAPC   H7R 2324   5.045   1.667   9.756  0.1984  0.4695 -0.0190
   18SAPC   H7S 2325   5.143   1.691   9.606 -1.3261  1.1630 -1.5671
   18SAPC   C28 2326   5.052   1.867   9.709 -0.3553  0.4634  0.3751
   18SAPC   H8R 2327   5.046   1.912   9.809  2.0135 -0.1154  0.8158
   18SAPC   C29 2328   4.994   1.926   9.597 -0.5521  0.2042  0.2106
   18SAPC   H9R 2329   4.932   2.015   9.612  0.8309  1.1547  0.4851
   18SAPC  C210 2330   4.991   1.861   9.456 -0.4629 -0.6826 -0.6824
   18SAPC  H10R 2331   5.028   1.757   9.449 -0.4972 -0.6431 -1.6143
   18SAPC  H10S 2332   5.062   1.924   9.397 -0.7676  2.3888  1.9478
   18SAPC  C211 2333   4.848   1.883   9.407  0.4521  0.1269  0.0034
   18SAPC  H11R 2334   4.764   1.839   9.465 -1.2113 -0.6965 -2.8426
   18SAPC  C212 2335   4.804   1.948   9.295  0.3081  0.5694 -0.0208
   18SAPC  H12R 2336   4.695   1.956   9.280  0.2484  0.1835  0.1920
   18SAPC  C213 2337   4.889   2.027   9.196 -0.4028  0.0372 -0.1808
   18SAPC  H13R 2338   4.883   1.977   9.097 -0.5758 -1.6839  0.6572
   18SAPC  H13S 2339   4.993   2.028   9.235 -0.4082  2.3436 -0.0793
   18SAPC  C214 2340   4.846   2.174   9.178  0.4432 -0.9308  0.0147
   18SAPC  H14R 2341   4.872   2.243   9.260 -0.2803 -1.6461  0.8699
   18SAPC  C215 2342   4.785   2.223   9.075 -0.3271  0.3887 -1.0194
   18SAPC  H15R 2343   4.747   2.327   9.069 -0.2655  0.4296 -0.6941
   18SAPC  C216 2344   4.737   2.143   8.954 -0.3567 -0.0251  0.1028
   18SAPC  H16R 2345   4.626   2.145   8.944 -0.4393  1.2604  1.0491
   18SAPC  H16S 2346   4.765   2.036   8.953 -0.8980 -0.1709  0.2172
   18SAPC  C217 2347   4.781   2.198   8.816  1.0664 -0.5604  0.8174
   18SAPC  H17R 2348   4.760   2.305   8.795  0.1350 -0.7101  0.9195
   18SAPC  H17S 2349   4.741   2.134   8.734 -2.5727  1.1444  1.0447
   18SAPC  C218 2350   4.940   2.180   8.790 -0.0900  0.3507 -0.4440
   18SAPC  H18R 2351   4.961   2.074   8.815 -1.4610  0.3914  1.0770
   18SAPC  H18S 2352   4.988   2.242   8.869 -0.9743  3.4284 -2.1611
   18SAPC  C219 2353   4.993   2.213   8.647  0.3489  0.1475 -1.2607
   18SAPC  H19R 2354   4.958   2.317   8.632 -2.0854 -0.3063  0.4767
   18SAPC  H19S 2355   4.940   2.161   8.564 -0.9130  1.4947 -1.3389
   18SAPC  C220 2356   5.138   2.186   8.629  0.2992 -0.1059  0.5017
   18SAPC  H20R 2357   5.198   2.271   8.669 -0.2154  0.9340 -0.8670
   18SAPC  H20S 2358   5.158   2.191   8.520  1.0538  0.6194  0.6616
   18SAPC  H20T 2359   5.165   2.083   8.661 -1.3740 -0.3563  1.2116
   18SAPC   C33 2360   4.661   1.595  10.087  0.4707  0.1469  0.7147
   18SAPC   H3X 2361   4.558   1.569  10.056 -0.1693 -0.6064  3.2413
   18SAPC   H3Y 2362   4.732   1.525  10.037  1.3899 -0.6022  2.9276
   18SAPC   C34 2363   4.698   1.743  10.056 -0.5255 -0.0584  0.3158
   18SAPC   H4X 2364   4.792   1.769  10.109 -1.7578  0.9026  2.1314
   18SAPC   H4Y 2365   4.621   1.810  10.100 -2.0869 -2.4367  1.3905
   18SAPC   C35 2366   4.714   1.769   9.904 -0.3267  0.1779 -0.6104
   18SAPC   H5X 2367   4.742   1.671   9.860  0.0075  0.2221 -0.4992
   18SAPC   H5Y 2368   4.799   1.836   9.877  1.0523 -1.9859 -1.8777
   18SAPC   C36 2369   4.581   1.820   9.838 -0.2351  0.3563  0.0689
   18SAPC   H6X 2370   4.530   1.888   9.910 -1.8020  0.9169 -1.4994
   18SAPC   H6Y 2371   4.513   1.733   9.824 -0.1431  0.6018 -2.2585
   18SAPC   C37 2372   4.611   1.888   9.702 -0.3880  0.5549 -0.2234
   18SAPC   H7X 2373   4.656   1.813   9.633  0.0664  0.0949  0.5501
   18SAPC   H7Y 2374   4.682   1.972   9.714 -0.2751  0.4031  0.1972
   18SAPC   C38 2375   4.483   1.943   9.637 -0.7873 -0.3516  0.3413
   18SAPC   H8X 2376   4.431   2.013   9.705 -0.1347  0.4649  0.0095
   18SAPC   H8Y 2377   4.412   1.860   9.614  0.2096 -0.8091 -1.2451
   18SAPC   C39 2378   4.509   2.006   9.492 -0.8951  0.1210  0.3391
   18SAPC   H9X 2379   4.506   1.916   9.426 -0.6296 -1.1159  1.9590
   18SAPC   H9Y 2380   4.609   2.055   9.490 -0.5862 -0.5076  0.2989
   18SAPC  C310 2381   4.402   2.107   9.453  0.3077  0.4274 -0.0149
   18SAPC  H10X 2382   4.428   2.138   9.349 -1.0425 -0.9393 -0.8194
   18SAPC  H10Y 2383   4.399   2.198   9.516  2.3988 -1.2305  2.7197
   18SAPC  C311 2384   4.262   2.042   9.447 -0.3832  0.1940  0.0430
   18SAPC  H11X 2385   4.229   2.047   9.553 -0.1698  0.3121  0.1054
   18SAPC  H11Y 2386   4.273   1.940   9.404  0.5096  0.9312 -1.5503
   18SAPC  C312 2387   4.161   2.120   9.360  0.2543  0.0344  0.0146
   18SAPC  H12X 2388   4.200   2.129   9.256  0.5311  0.0928  0.1233
   18SAPC  H12Y 2389   4.162   2.224   9.398  0.4676  0.4485 -1.0744
   18SAPC  C313 2390   4.029   2.057   9.365  0.3309  0.5211 -0.0200
   18SAPC  H13X 2391   3.971   2.070   9.459 -1.9525 -0.7716 -1.1498
   18SAPC  H13Y 2392   4.031   1.946   9.353  1.0367  0.2242  2.3730
   18SAPC  C314 2393   3.945   2.109   9.244  0.3444 -0.3611 -0.4203
   18SAPC  H14X 2394   3.844   2.064   9.241  0.2265 -0.0590 -1.2892
   18SAPC  H14Y 2395   3.989   2.056   9.157  2.1933 -3.8766  2.4057
   18SAPC  C315 2396   3.935   2.258   9.239  0.0639 -0.1476  0.0626
   18SAPC  H15X 2397   4.036   2.301   9.220  1.5222 -2.6884  1.4734
   18SAPC  H15Y 2398   3.905   2.296   9.340  1.7415 -1.8912  1.2945
   18SAPC  C316 2399   3.840   2.300   9.122  0.9857  0.4814 -0.2217
   18SAPC  H16X 2400   3.826   2.410   9.129  0.6205  0.7180 -3.2353
   18SAPC  H16Y 2401   3.744   2.244   9.125  2.3464 -1.9303  0.2778
   18SAPC  C317 2402   3.902   2.284   8.982  0.2813  0.2140  0.4755
   18SAPC  H17X 2403   3.918   2.179   8.950  0.4690  0.6065 -0.8033
   18SAPC  H17Y 2404   4.002   2.331   8.998 -0.2744  0.8867  2.1176
   18SAPC  C318 2405   3.821   2.352   8.880  0.6421 -0.5458  0.6784
   18SAPC  H18X 2406   3.816   2.463   8.884  0.0772 -0.3712 -2.2591
   18SAPC  H18Y 2407   3.718   2.312   8.881  0.4030  0.0588  0.6159
   18SAPC  H18Z 2408   3.852   2.339   8.774  2.0089  1.9693  0.6936
   19SAPC     N 2409   5.459   3.893  10.946  1.0031 -0.6875  0.1875
   19SAPC   C12 2410   5.550   3.923  10.827  0.1326  0.6439 -0.0579
   19SAPC  H12A 2411   5.553   3.832  10.771 -4.4884  1.0257 -1.3458
   19SAPC  H12B 2412   5.650   3.949  10.860  0.1291 -0.2456  0.6776
   19SAPC   C13 2413   5.318   3.873  10.885 -0.7905 -0.1208  0.0220
   19SAPC  H13A 2414   5.316   3.797  10.808  3.7908 -0.0938 -0.4177
   19SAPC  H13B 2415   5.249   3.840  10.961 -1.6259  0.7264 -0.3632
   19SAPC  H13C 2416   5.280   3.960  10.835  0.2310 -0.1353 -0.8111
   19SAPC   C14 2417   5.494   3.767  11.018 -0.7090 -0.5392  0.2832
   19SAPC  H14A 2418   5.589   3.778  11.067  0.3272  0.1794 -1.7512
   19SAPC  H14B 2419   5.426   3.743  11.097 -0.6734  0.9633  0.8085
   19SAPC  H14C 2420   5.509   3.683  10.952  2.1093 -0.8201  1.1539
   19SAPC   C15 2421   5.458   4.002  11.044 -0.2348 -0.3048  0.6647
   19SAPC  H15A 2422   5.377   3.985  11.113 -1.3538 -2.1264 -0.9987
   19SAPC  H15B 2423   5.556   4.023  11.085  0.5547 -0.3789 -1.1261
   19SAPC  H15C 2424   5.436   4.099  11.003  0.6538  0.1730  1.2759
   19SAPC   C11 2425   5.507   4.030  10.722  0.0721 -0.3601  0.6378
   19SAPC  H11A 2426   5.405   4.017  10.680  0.2742 -0.7977  0.2678
   19SAPC  H11B 2427   5.569   4.023  10.630 -0.4595  2.5110 -0.0600
   19SAPC     P 2428   5.421   4.271  10.792 -0.0731  0.0340  0.0012
   19SAPC   O13 2429   5.343   4.240  10.911  0.1050 -0.1652 -0.2115
   19SAPC   O14 2430   5.483   4.402  10.777  0.0535 -0.0264  0.1290
   19SAPC   O12 2431   5.537   4.159  10.778 -0.0237  0.0995  0.1071
   19SAPC   O11 2432   5.326   4.251  10.664  0.3035 -0.0173 -0.3795
   19SAPC    C1 2433   5.344   4.291  10.531 -0.5363  0.5058  0.0286
   19SAPC    HA 2434   5.437   4.351  10.524 -1.6548  2.2874 -0.3965
   19SAPC    HB 2435   5.362   4.201  10.469 -1.6191  0.2154  0.1083
   19SAPC    C2 2436   5.223   4.370  10.460 -0.0744  0.2241 -0.1758
   19SAPC    HS 2437   5.137   4.300  10.465  1.3847 -1.8423 -1.9613
   19SAPC   O21 2438   5.263   4.408  10.328  0.3585  0.7356  0.6776
   19SAPC   C21 2439   5.245   4.309  10.241  0.1040 -0.3094 -0.6866
   19SAPC   O22 2440   5.210   4.196  10.276 -0.5026 -0.3693  0.2956
   19SAPC   C22 2441   5.292   4.361  10.109 -0.9013 -0.1909  0.3968
   19SAPC   H2R 2442   5.287   4.472  10.105  1.7700  0.0083  0.4441
   19SAPC   H2S 2443   5.397   4.332  10.084 -0.5478  2.5017 -1.8097
   19SAPC    C3 2444   5.190   4.505  10.539 -0.4376 -0.4336  0.2547
   19SAPC    HX 2445   5.284   4.553  10.574 -0.8136 -0.7104  1.7115
   19SAPC    HY 2446   5.146   4.467  10.633 -0.2817  0.1969  0.5916
   19SAPC   O31 2447   5.095   4.586  10.473 -0.1101 -0.2574  0.0071
   19SAPC   C31 2448   5.084   4.709  10.539 -1.1267  0.3199  0.1837
   19SAPC   O32 2449   5.161   4.753  10.620 -0.1641 -0.3102  0.3499
   19SAPC   C32 2450   4.955   4.776  10.500 -0.6004 -0.1301 -0.8662
   19SAPC   H2X 2451   4.903   4.789  10.597  0.1056  1.3458 -0.6635
   19SAPC   H2Y 2452   4.891   4.717  10.430 -0.7261  0.2167 -1.0427
   19SAPC   C23 2453   5.213   4.281  10.004  0.5873 -0.3565  0.6201
   19SAPC   H3R 2454   5.105   4.304  10.015  0.9270  1.2286  0.7810
   19SAPC   H3S 2455   5.215   4.171  10.020 -3.2978 -0.4544  1.3012
   19SAPC   C24 2456   5.241   4.331   9.864  0.9474 -0.1121  0.2374
   19SAPC   H4R 2457   5.348   4.315   9.839  1.0989 -0.3235  0.9747
   19SAPC   H4S 2458   5.220   4.440   9.859  1.8321  0.2316  2.5865
   19SAPC   C25 2459   5.157   4.246   9.766 -0.1873 -0.1346 -0.3370
   19SAPC   H5R 2460   5.082   4.180   9.812  0.1975 -0.5978 -0.3614
   19SAPC   C26 2461   5.172   4.245   9.633  0.0494  0.3218 -0.0723
   19SAPC   H6R 2462   5.107   4.177   9.576  0.8136 -0.7173  0.2623
   19SAPC   C27 2463   5.275   4.314   9.552 -0.6937  0.4475  0.8293
   19SAPC   H7R 2464   5.336   4.236   9.503 -1.0832  0.9590 -0.5249
   19SAPC   H7S 2465   5.345   4.375   9.612  2.8900 -0.8566 -1.7212
   19SAPC   C28 2466   5.223   4.410   9.451 -0.0704 -0.6273 -0.5317
   19SAPC   H8R 2467   5.159   4.489   9.492  0.6514  1.5273 -3.2751
   19SAPC   C29 2468   5.243   4.403   9.315 -0.3281  0.4139 -0.4891
   19SAPC   H9R 2469   5.201   4.484   9.254 -2.9162 -0.3910  0.0909
   19SAPC  C210 2470   5.310   4.297   9.244 -0.3942  0.1538  0.1115
   19SAPC  H10R 2471   5.394   4.265   9.309 -0.2895  2.0647  0.9937
   19SAPC  H10S 2472   5.352   4.336   9.149  0.1293 -0.4614  0.0852
   19SAPC  C211 2473   5.222   4.173   9.216 -0.4641 -0.2088  0.4206
   19SAPC  H11R 2474   5.152   4.155   9.299 -0.8822 -2.3779 -0.3393
   19SAPC  C212 2475   5.211   4.099   9.104  0.0297 -0.5385  0.2505
   19SAPC  H12R 2476   5.124   4.032   9.096  0.6944 -1.6576  1.7344
   19SAPC  C213 2477   5.293   4.110   8.975 -0.3431 -0.3935 -0.4078
   19SAPC  H13R 2478   5.386   4.170   8.988  0.4232 -1.6839  0.2816
   19SAPC  H13S 2479   5.237   4.169   8.900  2.7546  0.3475 -2.3521
   19SAPC  C214 2480   5.323   3.984   8.900  0.8242  0.1485 -0.3885
   19SAPC  H14R 2481   5.324   3.900   8.971 -0.4851  1.2518  1.0166
   19SAPC  C215 2482   5.357   3.969   8.770  0.1863  0.3630 -0.0311
   19SAPC  H15R 2483   5.382   3.869   8.733 -3.5211 -0.2482 -1.2935
   19SAPC  C216 2484   5.377   4.079   8.664  0.2809  0.3160 -0.0385
   19SAPC  H16R 2485   5.374   4.182   8.704 -4.6759  0.2386  0.3782
   19SAPC  H16S 2486   5.286   4.076   8.600  0.8923  1.8092 -1.0262
   19SAPC  C217 2487   5.498   4.077   8.570 -0.4671  0.1277 -0.1076
   19SAPC  H17R 2488   5.590   4.087   8.632 -1.4291 -2.8580  2.0232
   19SAPC  H17S 2489   5.495   4.163   8.499  3.2259  1.7289  1.3884
   19SAPC  C218 2490   5.502   3.944   8.483 -0.1845 -0.3748 -0.4812
   19SAPC  H18R 2491   5.403   3.902   8.453  1.5268 -3.2372 -2.7032
   19SAPC  H18S 2492   5.540   3.858   8.544 -0.8958 -0.3630 -0.0041
   19SAPC  C219 2493   5.602   3.958   8.370  0.5293  0.3716  0.1413
   19SAPC  H19R 2494   5.698   3.959   8.427  0.7621 -0.9406 -0.2065
   19SAPC  H19S 2495   5.587   4.061   8.330 -1.2902 -0.1450 -0.6216
   19SAPC  C220 2496   5.606   3.851   8.267  0.2997 -0.5474 -0.2193
   19SAPC  H20R 2497   5.502   3.839   8.229  1.4136  0.2800 -3.8553
   19SAPC  H20S 2498   5.645   3.760   8.316 -2.0256 -0.0625  2.8441
   19SAPC  H20T 2499   5.671   3.885   8.184  0.0656 -1.3615 -0.7437
   19SAPC   C33 2500   4.969   4.924  10.445 -0.0721 -0.0073  0.6027
   19SAPC   H3X 2501   5.039   4.939  10.360 -2.2396  1.6075 -0.9966
   19SAPC   H3Y 2502   5.021   4.978  10.527 -0.6359  0.8715  0.3951
   19SAPC   C34 2503   4.837   5.005  10.423  0.1254  0.4175  0.1520
   19SAPC   H4X 2504   4.862   5.112  10.444  0.7330  0.0786  1.2376
   19SAPC   H4Y 2505   4.760   4.965  10.493  2.2647 -0.4096  2.1787
   19SAPC   C35 2506   4.783   4.985  10.282  0.5199  0.3913 -0.8042
   19SAPC   H5X 2507   4.679   5.025  10.281  1.4919  3.4693  2.3007
   19SAPC   H5Y 2508   4.789   4.875  10.264  0.4769  0.3271 -0.4216
   19SAPC   C36 2509   4.857   5.063  10.171  0.0829 -0.0174  0.3754
   19SAPC   H6X 2510   4.967   5.049  10.172  0.3898  1.5478 -1.8366
   19SAPC   H6Y 2511   4.832   5.172  10.167 -0.7620 -0.2164 -0.1969
   19SAPC   C37 2512   4.807   5.011  10.034 -0.0621 -0.3384  0.5089
   19SAPC   H7X 2513   4.697   5.018  10.021  0.2475 -0.6459 -4.0951
   19SAPC   H7Y 2514   4.812   4.902  10.014 -2.1721 -0.2936 -0.5868
   19SAPC   C38 2515   4.863   5.102   9.926 -0.3015 -0.2798  0.2967
   19SAPC   H8X 2516   4.966   5.125   9.960 -0.4133  0.5062  0.1349
   19SAPC   H8Y 2517   4.804   5.196   9.935 -0.0146  0.1107 -1.4212
   19SAPC   C39 2518   4.846   5.048   9.782 -0.5665  0.4944  0.6271
   19SAPC   H9X 2519   4.737   5.042   9.760 -0.3249 -0.4818 -0.4163
   19SAPC   H9Y 2520   4.869   4.939   9.775  0.9225  0.8978 -1.6517
   19SAPC  C310 2521   4.928   5.116   9.673  0.3537 -0.1845  0.2509
   19SAPC  H10X 2522   4.865   5.112   9.582  0.6239  2.1589 -0.0930
   19SAPC  H10Y 2523   5.017   5.053   9.650 -1.1256 -2.1373 -0.3994
   19SAPC  C311 2524   4.955   5.261   9.702 -0.8331 -0.4494  0.4536
   19SAPC  H11X 2525   5.037   5.276   9.775 -0.2888  2.9237 -0.6556
   19SAPC  H11Y 2526   4.863   5.306   9.743 -1.0261  0.4077 -0.8594
   19SAPC  C312 2527   4.992   5.347   9.571  0.9629 -0.0838 -0.4129
   19SAPC  H12X 2528   5.001   5.455   9.596 -0.3614 -0.3189  1.1756
   19SAPC  H12Y 2529   4.914   5.340   9.493  1.3414  2.3070 -1.1044
   19SAPC  C313 2530   5.117   5.305   9.504  0.5239  0.0024 -0.0771
   19SAPC  H13X 2531   5.121   5.197   9.475  0.5898  0.1611 -0.6732
   19SAPC  H13Y 2532   5.206   5.317   9.570  0.6706  0.3587 -0.3420
   19SAPC  C314 2533   5.147   5.373   9.367 -0.3135 -0.0946 -0.2690
   19SAPC  H14X 2534   5.165   5.479   9.393 -2.0530 -0.0927  1.0556
   19SAPC  H14Y 2535   5.047   5.370   9.318 -0.6078 -1.2800  0.3670
   19SAPC  C315 2536   5.262   5.322   9.280  0.8906  0.2605  0.2503
   19SAPC  H15X 2537   5.239   5.229   9.224 -1.1057  0.6021  0.4315
   19SAPC  H15Y 2538   5.343   5.309   9.356  0.0795  0.7222  1.2162
   19SAPC  C316 2539   5.318   5.406   9.164  0.0977 -0.1496 -0.5496
   19SAPC  H16X 2540   5.420   5.370   9.140  1.2556  2.5928 -0.1489
   19SAPC  H16Y 2541   5.336   5.513   9.189  1.3860 -0.1543 -1.3713
   19SAPC  C317 2542   5.235   5.412   9.034  0.1726 -0.1006 -0.6057
   19SAPC  H17X 2543   5.185   5.321   8.997 -0.2664 -0.7838  1.5541
   19SAPC  H17Y 2544   5.300   5.447   8.951 -0.4696  0.9744 -0.6726
   19SAPC  C318 2545   5.122   5.520   9.038 -0.2244 -0.4191 -0.0195
   19SAPC  H18X 2546   5.170   5.616   9.067  0.9513 -0.6907 -0.9861
   19SAPC  H18Y 2547   5.048   5.486   9.113 -1.1279  0.2761 -0.5793
   19SAPC  H18Z 2548   5.085   5.531   8.934 -1.6594  1.8952  0.6667
   20SAPC     N 2549   5.330   1.363  11.219 -0.0361  0.0191  0.3368
   20SAPC   C12 2550   5.456   1.421  11.146  0.5693 -1.6866  0.3147
   20SAPC  H12A 2551   5.550   1.399  11.194  0.1140 -0.3177  1.9116
   20SAPC  H12B 2552   5.448   1.527  11.161 -2.8690 -1.9272  0.9513
   20SAPC   C13 2553   5.324   1.212  11.200  0.0861  0.0634  0.0109
   20SAPC  H13A 2554   5.236   1.170  11.245 -0.2941 -0.9280 -1.5775
   20SAPC  H13B 2555   5.326   1.192  11.094  0.1826 -0.4193  0.1019
   20SAPC  H13C 2556   5.414   1.176  11.248  0.2996  0.3390 -0.1751
   20SAPC   C14 2557   5.345   1.389  11.367 -0.5026  0.6738 -0.1488
   20SAPC  H14A 2558   5.258   1.360  11.424 -0.2007 -1.4117 -0.6599
   20SAPC  H14B 2559   5.423   1.321  11.398 -0.8609  0.4154  0.1845
   20SAPC  H14C 2560   5.375   1.487  11.399  0.4402  0.8900 -1.5976
   20SAPC   C15 2561   5.207   1.428  11.177 -0.4649 -0.5878  0.0942
   20SAPC  H15A 2562   5.116   1.401  11.230 -0.1767  1.5270  1.8202
   20SAPC  H15B 2563   5.217   1.536  11.178  0.2441 -0.6301  1.8718
   20SAPC  H15C 2564   5.186   1.407  11.074 -0.3348 -2.4000  0.4023
   20SAPC   C11 2565   5.461   1.401  10.986  0.0715  0.0694 -0.1888
   20SAPC  H11A 2566   5.532   1.485  10.968  0.0965  0.9946  3.4251
   20SAPC  H11B 2567   5.366   1.419  10.931  1.2497  0.0727 -2.3414
   20SAPC     P 2568   5.653   1.218  11.005 -0.1811  0.6756 -0.0618
   20SAPC   O13 2569   5.735   1.320  11.079 -0.0723  0.2127 -0.3663
   20SAPC   O14 2570   5.639   1.094  11.078  0.0475 -0.3600  0.2564
   20SAPC   O12 2571   5.517   1.268  10.957  0.3586 -0.8463 -0.1817
   20SAPC   O11 2572   5.727   1.187  10.867  0.0902  0.3599  0.1681
   20SAPC    C1 2573   5.806   1.280  10.788  0.1980 -0.4341 -0.8357
   20SAPC    HA 2574   5.761   1.381  10.787 -1.0908 -0.9844 -1.7687
   20SAPC    HB 2575   5.907   1.285  10.834  0.2064 -0.3272 -0.8660
   20SAPC    C2 2576   5.820   1.218  10.647 -0.1550  0.0415  0.6103
   20SAPC    HS 2577   5.902   1.271  10.595 -1.8650  0.1849 -2.1771
   20SAPC   O21 2578   5.694   1.237  10.575 -0.0131  0.2143  0.2801
   20SAPC   C21 2579   5.660   1.357  10.533  0.4386  0.1070 -0.4742
   20SAPC   O22 2580   5.715   1.465  10.546  0.3762  0.0910  0.6072
   20SAPC   C22 2581   5.512   1.356  10.489  0.3722 -0.0404 -0.1035
   20SAPC   H2R 2582   5.463   1.290  10.563  0.3670  0.8536  0.7158
   20SAPC   H2S 2583   5.474   1.461  10.489  0.6866  0.0907 -1.4490
   20SAPC    C3 2584   5.850   1.064  10.645 -0.0216  0.2039  0.1426
   20SAPC    HX 2585   5.760   1.000  10.630 -0.4848  0.1775  2.5676
   20SAPC    HY 2586   5.887   1.031  10.745  0.6738  0.1691 -0.1258
   20SAPC   O31 2587   5.950   1.041  10.543 -0.8811  0.5279 -0.2141
   20SAPC   C31 2588   5.990   0.917  10.527  0.2672  0.1988  0.3449
   20SAPC   O32 2589   5.986   0.834  10.620  0.2936 -0.6025 -0.4658
   20SAPC   C32 2590   6.068   0.909  10.406 -0.0471  0.2198 -0.6370
   20SAPC   H2X 2591   6.173   0.901  10.440  0.1297  2.3578 -0.5241
   20SAPC   H2Y 2592   6.066   1.011  10.363 -0.9281  0.2616 -0.5235
   20SAPC   C23 2593   5.489   1.288  10.356 -0.6304 -0.7213 -0.0810
   20SAPC   H3R 2594   5.387   1.244  10.351 -0.5101 -1.2013  1.3646
   20SAPC   H3S 2595   5.561   1.206  10.335  0.8802  0.7104 -0.7782
   20SAPC   C24 2596   5.515   1.388  10.237 -0.9763 -0.7876  0.2565
   20SAPC   H4R 2597   5.486   1.330  10.147  1.1676 -1.3955 -0.0786
   20SAPC   H4S 2598   5.621   1.419  10.236 -0.5497 -2.1730 -0.1833
   20SAPC   C25 2599   5.411   1.500  10.247  0.2636 -0.2142  0.0699
   20SAPC   H5R 2600   5.306   1.482  10.275 -0.5296  2.3383 -0.9789
   20SAPC   C26 2601   5.449   1.630  10.229  0.0333  0.1057 -0.0792
   20SAPC   H6R 2602   5.372   1.708  10.226  1.6166  1.7678 -4.4542
   20SAPC   C27 2603   5.581   1.682  10.193  0.1169  0.6684 -0.2256
   20SAPC   H7R 2604   5.639   1.601  10.143 -2.7451 -0.7587 -1.4688
   20SAPC   H7S 2605   5.633   1.703  10.289  0.1151  0.9866 -0.2924
   20SAPC   C28 2606   5.573   1.815  10.116 -0.4028 -0.5826 -0.3534
   20SAPC   H8R 2607   5.558   1.902  10.181  0.1580 -1.7892  1.4525
   20SAPC   C29 2608   5.605   1.834   9.984  0.4989 -0.0341 -0.0867
   20SAPC   H9R 2609   5.609   1.931   9.932 -0.7419  1.0455  1.7125
   20SAPC  C210 2610   5.644   1.720   9.892 -0.1244 -0.1754 -0.4127
   20SAPC  H10R 2611   5.585   1.732   9.799 -0.2395 -0.5926 -0.3961
   20SAPC  H10S 2612   5.617   1.622   9.937 -3.2480 -0.3447 -2.3496
   20SAPC  C211 2613   5.793   1.719   9.857  0.0730 -0.7467  0.0149
   20SAPC  H11R 2614   5.865   1.715   9.940 -1.4698  0.5923  1.4759
   20SAPC  C212 2615   5.844   1.697   9.734  0.0283 -0.1578  0.8160
   20SAPC  H12R 2616   5.953   1.694   9.721  0.1642  0.1758  1.7927
   20SAPC  C213 2617   5.767   1.670   9.607  0.7169  0.5338  0.4555
   20SAPC  H13R 2618   5.681   1.603   9.628  0.4460  0.6297 -0.3220
   20SAPC  H13S 2619   5.831   1.615   9.535  0.6612  0.5837  0.3684
   20SAPC  C214 2620   5.723   1.801   9.554 -0.2987 -0.1750  0.4721
   20SAPC  H14R 2621   5.723   1.885   9.626  0.0458 -1.1238  1.6287
   20SAPC  C215 2622   5.697   1.833   9.426  0.7186  0.0532 -0.3334
   20SAPC  H15R 2623   5.665   1.933   9.393 -1.0652 -0.3431  0.1138
   20SAPC  C216 2624   5.706   1.739   9.310 -0.0161  0.4257  0.4515
   20SAPC  H16R 2625   5.612   1.734   9.251  0.0414  3.0715 -0.0020
   20SAPC  H16S 2626   5.731   1.636   9.344  0.5521  1.0791  2.1137
   20SAPC  C217 2627   5.833   1.781   9.224 -0.2620 -0.1024 -0.2987
   20SAPC  H17R 2628   5.920   1.795   9.292 -0.7889  1.7798  0.0698
   20SAPC  H17S 2629   5.813   1.881   9.180 -4.1123  0.3713  1.9744
   20SAPC  C218 2630   5.864   1.675   9.123 -0.1123  0.2836 -0.2535
   20SAPC  H18R 2631   5.777   1.654   9.056 -0.3912 -1.3926  0.5793
   20SAPC  H18S 2632   5.871   1.578   9.176  0.0585  0.0573 -0.6887
   20SAPC  C219 2633   5.987   1.710   9.036  0.2279  0.0309 -0.2263
   20SAPC  H19R 2634   6.070   1.752   9.096  1.3636 -1.3759 -0.7657
   20SAPC  H19S 2635   5.962   1.789   8.962  0.6829 -0.6553 -1.1323
   20SAPC  C220 2636   6.048   1.596   8.955  0.0611  0.4024 -0.9415
   20SAPC  H20R 2637   5.959   1.551   8.906  0.5200 -1.7705  0.0676
   20SAPC  H20S 2638   6.093   1.523   9.027 -1.8924  1.6731  1.7611
   20SAPC  H20T 2639   6.127   1.638   8.890  0.1810  1.4295 -0.1610
   20SAPC   C33 2640   6.022   0.788  10.320  0.3244  0.0419  0.0348
   20SAPC   H3X 2641   5.911   0.788  10.316  0.0951  2.1555  3.0059
   20SAPC   H3Y 2642   6.050   0.693  10.371  0.2997  0.4278  0.7889
   20SAPC   C34 2643   6.073   0.792  10.172 -0.1124  0.0760 -0.7542
   20SAPC   H4X 2644   6.182   0.808  10.176 -0.1227 -0.0680  0.2691
   20SAPC   H4Y 2645   6.045   0.886  10.121  2.0993  1.3572  0.2487
   20SAPC   C35 2646   6.026   0.657  10.106 -0.4739 -0.1299 -0.5831
   20SAPC   H5X 2647   5.919   0.679  10.089 -0.4739 -0.2600 -0.7505
   20SAPC   H5Y 2648   6.035   0.567  10.169  0.7602  1.0032  0.9339
   20SAPC   C36 2649   6.105   0.626   9.977  0.2413  0.7025 -0.3205
   20SAPC   H6X 2650   6.078   0.528   9.932 -0.5707 -0.6096  2.7893
   20SAPC   H6Y 2651   6.211   0.623  10.011  0.4361 -1.7316 -0.9212
   20SAPC   C37 2652   6.082   0.727   9.873  0.2885  0.0195  0.2574
   20SAPC   H7X 2653   6.103   0.832   9.904  0.0299  0.4062 -0.8045
   20SAPC   H7Y 2654   5.977   0.726   9.837  0.3118  1.5835  0.0517
   20SAPC   C38 2655   6.172   0.695   9.753  0.1425 -0.9489 -0.1318
   20SAPC   H8X 2656   6.174   0.587   9.727  1.4019 -0.8253 -0.6178
   20SAPC   H8Y 2657   6.271   0.729   9.788 -0.2912  1.1038 -0.7203
   20SAPC   C39 2658   6.130   0.767   9.626 -0.2706 -0.0835 -0.4619
   20SAPC   H9X 2659   6.081   0.865   9.645  3.2436  1.8812 -0.6598
   20SAPC   H9Y 2660   6.059   0.702   9.571 -0.8696  2.0098 -2.3114
   20SAPC  C310 2661   6.239   0.800   9.532 -0.0459  0.3379  0.7014
   20SAPC  H10X 2662   6.286   0.700   9.514  0.3431  0.6020  0.2192
   20SAPC  H10Y 2663   6.316   0.868   9.573 -1.2545  0.3791  3.0552
   20SAPC  C311 2664   6.181   0.872   9.409  0.0298  0.0286 -0.0433
   20SAPC  H11X 2665   6.147   0.976   9.430  0.5024  0.6719 -2.1695
   20SAPC  H11Y 2666   6.093   0.824   9.362  0.2391  1.1264 -1.6501
   20SAPC  C312 2667   6.288   0.889   9.300 -0.2277  0.4631  0.2895
   20SAPC  H12X 2668   6.325   0.786   9.284 -1.1222 -0.0566  1.4653
   20SAPC  H12Y 2669   6.359   0.969   9.330  1.5639 -0.0506 -2.2557
   20SAPC  C313 2670   6.237   0.937   9.161 -0.5853  0.0168 -0.5529
   20SAPC  H13X 2671   6.325   0.943   9.094 -0.6966  0.2353 -0.6790
   20SAPC  H13Y 2672   6.182   1.032   9.178 -0.2487  0.0392  0.5082
   20SAPC  C314 2673   6.127   0.856   9.085 -1.0277  0.2729 -0.1591
   20SAPC  H14X 2674   6.041   0.834   9.152 -1.5262  0.1446 -0.8272
   20SAPC  H14Y 2675   6.159   0.752   9.063  1.5093  0.6321  1.4574
   20SAPC  C315 2676   6.079   0.935   8.962 -0.0997  0.8920  0.4344
   20SAPC  H15X 2677   6.166   0.931   8.894 -1.3196 -0.4332 -1.1660
   20SAPC  H15Y 2678   6.053   1.038   8.994  0.8972  1.2695  0.0484
   20SAPC  C316 2679   5.956   0.870   8.891 -0.0931  0.2823 -0.0020
   20SAPC  H16X 2680   5.928   0.939   8.809 -0.2337 -0.8596 -0.9308
   20SAPC  H16Y 2681   5.871   0.865   8.962 -0.3665 -3.2408 -0.3993
   20SAPC  C317 2682   5.982   0.727   8.838 -0.2105 -0.3728 -0.3414
   20SAPC  H17X 2683   5.887   0.672   8.819 -1.1132 -0.2479  3.2207
   20SAPC  H17Y 2684   6.019   0.671   8.926  1.7630  1.2996 -0.0264
   20SAPC  C318 2685   6.086   0.723   8.729  1.2735 -0.4483 -0.6778
   20SAPC  H18X 2686   6.175   0.781   8.760  1.8985 -1.2743 -0.8848
   20SAPC  H18Y 2687   6.048   0.774   8.637 -0.1171  0.6787  0.4762
   20SAPC  H18Z 2688   6.124   0.623   8.699  1.7327 -0.7877  0.9302
   21SAPC     N 2689   4.990   0.492  10.803 -0.1286 -0.0146  0.1266
   21SAPC   C12 2690   4.936   0.369  10.733  0.2409 -0.9191 -0.5268
   21SAPC  H12A 2691   4.911   0.296  10.809  1.6772 -0.9857 -0.0823
   21SAPC  H12B 2692   5.012   0.317  10.677  0.3162 -0.2010 -1.1111
   21SAPC   C13 2693   5.081   0.451  10.910  0.4376  0.0160 -0.1934
   21SAPC  H13A 2694   5.041   0.368  10.966 -0.0416  0.6148  0.3710
   21SAPC  H13B 2695   5.182   0.430  10.879  1.6101  0.9545  2.6203
   21SAPC  H13C 2696   5.105   0.530  10.980 -0.7896 -0.3441  0.6844
   21SAPC   C14 2697   5.073   0.580  10.714 -0.5083 -0.0455  0.9497
   21SAPC  H14A 2698   5.070   0.683  10.747 -0.7661  0.3816 -0.3544
   21SAPC  H14B 2699   5.172   0.537  10.720 -0.9663 -1.5668 -1.2291
   21SAPC  H14C 2700   5.049   0.566  10.610 -0.3290 -2.7220  1.1895
   21SAPC   C15 2701   4.876   0.577  10.848  1.3954  0.3598 -0.3648
   21SAPC  H15A 2702   4.791   0.558  10.784 -1.3371 -0.0107  3.0324
   21SAPC  H15B 2703   4.851   0.567  10.953  0.2347  0.1304 -0.6487
   21SAPC  H15C 2704   4.913   0.678  10.840  2.7262 -0.2546 -2.7947
   21SAPC   C11 2705   4.824   0.381  10.633  0.2344  0.4992 -0.2347
   21SAPC  H11A 2706   4.820   0.285  10.578  0.9289  0.6783 -0.6200
   21SAPC  H11B 2707   4.840   0.452  10.548  0.6063 -0.6645 -1.1662
   21SAPC     P 2708   4.608   0.302  10.750  0.2183  0.0195  0.1117
   21SAPC   O13 2709   4.681   0.207  10.838  0.0909 -0.1371 -0.4629
   21SAPC   O14 2710   4.486   0.359  10.801  0.0633 -0.4318 -0.4537
   21SAPC   O12 2711   4.701   0.418  10.703  0.0825 -0.3612 -0.4294
   21SAPC   O11 2712   4.567   0.229  10.617 -0.1561  0.1007 -0.3698
   21SAPC    C1 2713   4.450   0.267  10.540  0.2679  0.5501 -0.1044
   21SAPC    HA 2714   4.392   0.356  10.573 -1.4019 -0.2225 -0.8344
   21SAPC    HB 2715   4.487   0.283  10.436  1.6402 -0.4534  0.2137
   21SAPC    C2 2716   4.342   0.152  10.538  0.0379 -0.3181  0.6037
   21SAPC    HS 2717   4.333   0.117  10.643 -4.0456 -0.7980  0.2811
   21SAPC   O21 2718   4.391   0.043  10.456 -0.2950  0.0895  0.5858
   21SAPC   C21 2719   4.350  -0.078  10.486  0.0678  0.3963  0.2784
   21SAPC   O22 2720   4.287  -0.106  10.587  0.0827 -0.0865  0.2048
   21SAPC   C22 2721   4.381  -0.179  10.377  0.4138 -0.9122  0.2807
   21SAPC   H2R 2722   4.289  -0.183  10.314  2.0842  1.1221 -2.4951
   21SAPC   H2S 2723   4.463  -0.135  10.318 -1.3323  2.2627  0.0106
   21SAPC    C3 2724   4.204   0.198  10.484 -0.1969 -0.2521 -0.3653
   21SAPC    HX 2725   4.165   0.276  10.553  0.0291 -0.0669 -0.4436
   21SAPC    HY 2726   4.127   0.117  10.481 -0.8110  0.2118  1.5901
   21SAPC   O31 2727   4.229   0.261  10.358 -0.0893  0.3184 -0.1286
   21SAPC   C31 2728   4.222   0.183  10.253 -0.2518 -0.4638 -0.2668
   21SAPC   O32 2729   4.178   0.067  10.252 -0.1220  0.4575 -0.0417
   21SAPC   C32 2730   4.282   0.250  10.131  0.0051  0.0864  0.8796
   21SAPC   H2X 2731   4.388   0.275  10.155 -0.0174 -1.8036  3.2536
   21SAPC   H2Y 2732   4.226   0.344  10.110  1.9025  1.1882  0.4995
   21SAPC   C23 2733   4.430  -0.322  10.430  0.0605 -0.4157  0.0388
   21SAPC   H3R 2734   4.341  -0.371  10.475 -1.2003  1.7650  0.0476
   21SAPC   H3S 2735   4.514  -0.302  10.500 -0.8522  1.5435  0.6375
   21SAPC   C24 2736   4.475  -0.411  10.309  0.0467  0.1933  1.1281
   21SAPC   H4R 2737   4.384  -0.433  10.250  0.6330 -0.7306  0.5357
   21SAPC   H4S 2738   4.509  -0.510  10.347 -0.2372 -0.6285 -0.6624
   21SAPC   C25 2739   4.584  -0.356  10.216 -0.5308 -0.2063  0.2821
   21SAPC   H5R 2740   4.684  -0.345  10.260  0.7464  2.4935 -2.8765
   21SAPC   C26 2741   4.582  -0.309  10.088 -0.4436  0.6173 -0.0550
   21SAPC   H6R 2742   4.682  -0.289  10.044  0.5078 -1.3998  1.0604
   21SAPC   C27 2743   4.459  -0.316  10.000  0.6554 -0.3551 -0.2925
   21SAPC   H7R 2744   4.430  -0.217   9.958  4.1373  1.7078  1.6659
   21SAPC   H7S 2745   4.364  -0.345  10.050  1.3157 -1.3899  0.3997
   21SAPC   C28 2746   4.481  -0.411   9.884  0.0970 -0.1605 -0.0999
   21SAPC   H8R 2747   4.486  -0.516   9.915 -2.5104 -0.5345 -0.7584
   21SAPC   C29 2748   4.508  -0.390   9.751 -0.2040 -0.0014  0.5943
   21SAPC   H9R 2749   4.528  -0.476   9.686 -0.5356 -0.1711  0.7140
   21SAPC  C210 2750   4.512  -0.247   9.691  0.7836 -0.3114  0.8417
   21SAPC  H10R 2751   4.551  -0.171   9.762  3.3093 -0.7996  0.0488
   21SAPC  H10S 2752   4.405  -0.228   9.668  1.1403 -0.9890 -1.6647
   21SAPC  C211 2753   4.598  -0.224   9.566  1.2072 -0.6496 -0.4094
   21SAPC  H11R 2754   4.698  -0.269   9.561  1.6519  0.4049 -1.7749
   21SAPC  C212 2755   4.566  -0.171   9.449 -0.3406 -0.4958  0.5925
   21SAPC  H12R 2756   4.641  -0.162   9.369  0.1359  0.7953  1.1659
   21SAPC  C213 2757   4.432  -0.101   9.414  0.1514  0.2778 -0.3043
   21SAPC  H13R 2758   4.389  -0.055   9.506  1.2153  0.2632  0.2153
   21SAPC  H13S 2759   4.361  -0.182   9.384 -1.2653  0.4568  2.2162
   21SAPC  C214 2760   4.433  -0.005   9.295  0.4819  0.4751  0.4589
   21SAPC  H14R 2761   4.431   0.102   9.318  2.5733  0.5895  0.3294
   21SAPC  C215 2762   4.465  -0.047   9.166  0.6213 -0.5286  0.3022
   21SAPC  H15R 2763   4.447   0.024   9.085 -0.4072 -1.9512 -0.7643
   21SAPC  C216 2764   4.507  -0.191   9.129  0.1192 -0.0829 -0.4253
   21SAPC  H16R 2765   4.473  -0.257   9.212 -2.5504  2.6052  0.7993
   21SAPC  H16S 2766   4.618  -0.204   9.122  0.3127 -0.0730  1.9950
   21SAPC  C217 2767   4.431  -0.250   9.012  0.3076 -0.3983  0.1526
   21SAPC  H17R 2768   4.322  -0.257   9.032  0.3048  1.1052  0.7548
   21SAPC  H17S 2769   4.471  -0.352   8.990  0.9222  0.2208 -1.8634
   21SAPC  C218 2770   4.451  -0.171   8.884 -0.0139 -0.3067 -0.5568
   21SAPC  H18R 2771   4.556  -0.135   8.880  0.3176 -0.7187  2.1137
   21SAPC  H18S 2772   4.393  -0.077   8.887  0.8889  0.2758 -0.7635
   21SAPC  C219 2773   4.385  -0.238   8.760  0.3362 -0.1601 -0.1042
   21SAPC  H19R 2774   4.383  -0.146   8.698  0.5057 -0.0367  0.0732
   21SAPC  H19S 2775   4.293  -0.296   8.785  0.5920 -0.6903 -0.3848
   21SAPC  C220 2776   4.491  -0.329   8.705 -0.3573 -0.2576 -0.2271
   21SAPC  H20R 2777   4.463  -0.383   8.611 -1.3148 -2.2927  1.1492
   21SAPC  H20S 2778   4.528  -0.397   8.785  0.0665  0.0270 -0.1747
   21SAPC  H20T 2779   4.571  -0.261   8.667 -0.6903  1.2927  1.7214
   21SAPC   C33 2780   4.271   0.164   9.998  0.3387 -0.2044  0.4149
   21SAPC   H3X 2781   4.167   0.126   9.992  0.8356 -1.5310 -0.1979
   21SAPC   H3Y 2782   4.338   0.075   9.999  0.8041  0.1442  0.8966
   21SAPC   C34 2783   4.324   0.242   9.876  0.3179  0.8442  0.7647
   21SAPC   H4X 2784   4.433   0.219   9.870  0.1690  0.4182 -0.4071
   21SAPC   H4Y 2785   4.325   0.351   9.899 -2.4631  1.1366 -0.2255
   21SAPC   C35 2786   4.250   0.206   9.749 -0.1034 -0.3210  0.8774
   21SAPC   H5X 2787   4.145   0.238   9.766 -0.5359 -1.9483  1.4105
   21SAPC   H5Y 2788   4.255   0.096   9.740  1.1771 -0.4183  2.3513
   21SAPC   C36 2789   4.318   0.271   9.623 -0.1742 -0.2312  0.1847
   21SAPC   H6X 2790   4.416   0.222   9.607 -1.5599 -3.8247  1.7287
   21SAPC   H6Y 2791   4.336   0.378   9.647 -0.3451 -0.4688  1.4678
   21SAPC   C37 2792   4.241   0.257   9.497  0.4335  0.3240  0.0574
   21SAPC   H7X 2793   4.137   0.291   9.513  0.3006 -0.0653  0.0240
   21SAPC   H7Y 2794   4.232   0.153   9.460  2.3879  0.0254  0.3244
   21SAPC   C38 2795   4.298   0.353   9.385 -0.2388 -0.2574 -0.0849
   21SAPC   H8X 2796   4.405   0.329   9.373 -0.1220 -0.0232  0.4391
   21SAPC   H8Y 2797   4.279   0.459   9.415 -0.4343  0.3492 -2.2111
   21SAPC   C39 2798   4.233   0.344   9.246 -0.1677 -0.3073  0.1215
   21SAPC   H9X 2799   4.131   0.386   9.256 -1.0150 -1.6429 -2.1813
   21SAPC   H9Y 2800   4.204   0.238   9.229  1.0471 -0.7786  0.8575
   21SAPC  C310 2801   4.319   0.421   9.140 -0.1511 -0.1359  0.7807
   21SAPC  H10X 2802   4.422   0.380   9.138 -0.2510 -0.4413  1.4998
   21SAPC  H10Y 2803   4.329   0.526   9.173 -0.4237  1.8349 -4.4119
   21SAPC  C311 2804   4.251   0.438   8.996 -0.0082 -0.4398  0.0923
   21SAPC  H11X 2805   4.302   0.512   8.930 -2.1625  3.0584  2.0700
   21SAPC  H11Y 2806   4.146   0.470   9.015  0.3886  2.2932 -1.7155
   21SAPC  C312 2807   4.250   0.301   8.927  0.1102 -0.3272 -0.0406
   21SAPC  H12X 2808   4.207   0.226   8.997 -0.4926 -2.8055 -2.8394
   21SAPC  H12Y 2809   4.348   0.260   8.896 -0.6747 -0.8814 -1.9772
   21SAPC  C313 2810   4.156   0.294   8.810  0.2909  0.7277  0.5670
   21SAPC  H13X 2811   4.187   0.365   8.730  2.5618  0.4635  1.1632
   21SAPC  H13Y 2812   4.058   0.339   8.839  0.8377  3.3223 -1.1857
   21SAPC  C314 2813   4.159   0.149   8.753 -0.5945  0.0786  0.3953
   21SAPC  H14X 2814   4.263   0.111   8.762 -0.8020 -0.8327 -0.7946
   21SAPC  H14Y 2815   4.130   0.159   8.646 -0.9746  1.8507  0.6244
   21SAPC  C315 2816   4.064   0.060   8.825  0.7660  0.8610  0.0657
   21SAPC  H15X 2817   3.957   0.088   8.810 -0.3117 -0.9619  3.4012
   21SAPC  H15Y 2818   4.087   0.073   8.933  2.1196 -1.7988  0.1654
   21SAPC  C316 2819   4.077  -0.095   8.813  0.0757  0.4788 -0.5396
   21SAPC  H16X 2820   4.004  -0.128   8.890  0.6754  0.1499 -0.0977
   21SAPC  H16Y 2821   4.173  -0.131   8.857 -0.9792 -1.1731  0.4844
   21SAPC  C317 2822   4.042  -0.156   8.682 -0.0375 -0.1943  0.3229
   21SAPC  H17X 2823   4.098  -0.105   8.600  0.5470 -0.4955  0.5255
   21SAPC  H17Y 2824   3.934  -0.143   8.658  0.0950 -0.7187 -0.5983
   21SAPC  C318 2825   4.080  -0.308   8.661  0.0442  0.1023  0.4004
   21SAPC  H18X 2826   4.006  -0.335   8.583 -0.6004 -2.0128  1.6595
   21SAPC  H18Y 2827   4.060  -0.367   8.753 -1.5058  2.3980  1.6512
   21SAPC  H18Z 2828   4.181  -0.318   8.617  0.4546 -0.1444  1.3560
   22SAPC     N 2829   4.369   2.820  10.851  0.2470  0.2587  0.6373
   22SAPC   C12 2830   4.340   2.941  10.931 -0.2058 -0.0314  0.1110
   22SAPC  H12A 2831   4.248   2.932  10.985 -0.3400  1.0604  0.1016
   22SAPC  H12B 2832   4.330   3.032  10.872 -0.2726  3.2537  4.6579
   22SAPC   C13 2833   4.503   2.830  10.782 -0.9411 -0.8454 -0.1437
   22SAPC  H13A 2834   4.580   2.839  10.857 -1.5359  2.0638  0.2298
   22SAPC  H13B 2835   4.522   2.738  10.729  0.5202 -1.4682  1.3951
   22SAPC  H13C 2836   4.522   2.911  10.713  1.1577  1.9321  3.3299
   22SAPC   C14 2837   4.365   2.709  10.955 -0.8772 -0.6690  0.5740
   22SAPC  H14A 2838   4.415   2.618  10.925 -0.0799 -0.1481  0.2795
   22SAPC  H14B 2839   4.416   2.748  11.042  0.3716 -1.0809  0.0493
   22SAPC  H14C 2840   4.264   2.676  10.971 -1.0200 -0.3536  0.3267
   22SAPC   C15 2841   4.262   2.794  10.746  0.3718 -0.6145 -0.5227
   22SAPC  H15A 2842   4.264   2.876  10.675 -0.1192 -0.9096 -0.8834
   22SAPC  H15B 2843   4.272   2.701  10.693 -3.2871 -2.9193  2.3346
   22SAPC  H15C 2844   4.161   2.789  10.784 -0.7890  0.3503 -3.1812
   22SAPC   C11 2845   4.447   2.997  11.038  0.4016 -0.0395  0.2758
   22SAPC  H11A 2846   4.480   2.908  11.095  0.2785  0.6206  1.4125
   22SAPC  H11B 2847   4.397   3.072  11.103  2.2315  0.5657  1.0496
   22SAPC     P 2848   4.552   3.203  10.908  0.3780 -0.4856 -0.1616
   22SAPC   O13 2849   4.578   3.302  11.014  0.0688  0.0445  0.3770
   22SAPC   O14 2850   4.645   3.208  10.796 -0.0869 -0.9515  0.6302
   22SAPC   O12 2851   4.557   3.058  10.975 -0.5686 -0.1992 -0.1918
   22SAPC   O11 2852   4.407   3.209  10.848 -0.7154 -0.3535 -0.2207
   22SAPC    C1 2853   4.392   3.179  10.709 -0.1189 -0.5165 -0.1648
   22SAPC    HA 2854   4.456   3.100  10.665 -0.4477 -1.3810  0.8865
   22SAPC    HB 2855   4.288   3.142  10.702 -0.4911  0.2968  0.7466
   22SAPC    C2 2856   4.388   3.310  10.616  0.3829  0.1373  0.3400
   22SAPC    HS 2857   4.480   3.364  10.647 -0.4901  0.6692  2.1771
   22SAPC   O21 2858   4.267   3.381  10.656  0.2931  0.4907 -0.7970
   22SAPC   C21 2859   4.282   3.512  10.656  0.4179 -0.3949 -0.5521
   22SAPC   O22 2860   4.381   3.573  10.626  0.2827 -0.3547  0.0009
   22SAPC   C22 2861   4.158   3.578  10.716  0.1751  0.0086  0.4241
   22SAPC   H2R 2862   4.135   3.533  10.815 -0.3448 -0.3998  0.1197
   22SAPC   H2S 2863   4.172   3.688  10.724  2.1923 -0.2277  0.7264
   22SAPC    C3 2864   4.390   3.274  10.463  0.4263  0.5354 -0.4467
   22SAPC    HX 2865   4.287   3.239  10.442  0.4574 -0.1255  0.4191
   22SAPC    HY 2866   4.460   3.190  10.443 -0.2655 -0.0673 -0.3765
   22SAPC   O31 2867   4.395   3.384  10.367  0.4052  0.8895 -0.1937
   22SAPC   C31 2868   4.515   3.439  10.363  0.9656  0.1450 -0.0769
   22SAPC   O32 2869   4.614   3.392  10.411  0.0691  0.6349  0.3441
   22SAPC   C32 2870   4.499   3.572  10.292 -0.2293  0.0807 -0.4298
   22SAPC   H2X 2871   4.559   3.647  10.347 -1.6057  0.2301  0.9222
   22SAPC   H2Y 2872   4.394   3.607  10.297  0.5164  2.3301  2.3569
   22SAPC   C23 2873   4.032   3.552  10.633 -0.3710 -0.2879 -0.1602
   22SAPC   H3R 2874   3.956   3.619  10.679  0.7220  0.9746 -0.1495
   22SAPC   H3S 2875   3.989   3.451  10.648  0.2584 -0.3436  1.4513
   22SAPC   C24 2876   4.045   3.574  10.482 -0.0935  0.7172 -0.2905
   22SAPC   H4R 2877   4.112   3.496  10.441  1.4662  2.2201 -0.7030
   22SAPC   H4S 2878   4.101   3.667  10.460 -1.0451  1.5398  0.6477
   22SAPC   C25 2879   3.911   3.568  10.419  0.4058 -0.1168  0.0479
   22SAPC   H5R 2880   3.842   3.491  10.456  2.1496 -1.3130  0.9478
   22SAPC   C26 2881   3.881   3.621  10.299 -0.1245 -0.1577  0.1230
   22SAPC   H6R 2882   3.779   3.603  10.260  0.9971 -0.2993 -3.0689
   22SAPC   C27 2883   3.960   3.710  10.212 -0.0495 -0.1603  0.0342
   22SAPC   H7R 2884   3.913   3.709  10.111  0.8035 -1.2326 -0.3626
   22SAPC   H7S 2885   4.061   3.666  10.199 -0.0676 -0.5026  0.9962
   22SAPC   C28 2886   3.970   3.855  10.268  0.3074  0.2153 -0.3651
   22SAPC   H8R 2887   3.962   3.875  10.376  0.5197  1.4146 -0.5579
   22SAPC   C29 2888   3.990   3.964  10.193 -0.4074  0.1915 -0.0117
   22SAPC   H9R 2889   4.001   4.056  10.252  0.0922 -0.6823  1.3059
   22SAPC  C210 2890   4.009   3.975  10.041  0.4597 -0.3298 -0.0437
   22SAPC  H10R 2891   3.999   4.084  10.022 -1.8996 -0.7316 -1.4859
   22SAPC  H10S 2892   3.918   3.938   9.990 -0.2695  0.9142  0.3234
   22SAPC  C211 2893   4.130   3.900   9.991  0.7481 -0.1721 -0.9324
   22SAPC  H11R 2894   4.180   3.832  10.062 -0.4129 -3.1129 -2.7096
   22SAPC  C212 2895   4.178   3.892   9.867  0.4863  0.9063 -0.1669
   22SAPC  H12R 2896   4.277   3.844   9.862 -0.0527 -0.2787  0.2511
   22SAPC  C213 2897   4.135   3.958   9.739 -0.0596 -0.3631 -0.5437
   22SAPC  H13R 2898   4.087   4.053   9.771 -0.4030  0.0593 -2.2023
   22SAPC  H13S 2899   4.058   3.903   9.681 -0.6689  0.3049 -0.3859
   22SAPC  C214 2900   4.252   3.991   9.653 -0.2112  0.0384  0.0119
   22SAPC  H14R 2901   4.320   4.051   9.714 -0.4385 -1.0404  1.3677
   22SAPC  C215 2902   4.272   3.966   9.526  0.4344 -0.0166  0.2352
   22SAPC  H15R 2903   4.360   3.997   9.468 -0.6329  1.4930 -0.6510
   22SAPC  C216 2904   4.177   3.887   9.436 -0.2298 -0.2958  0.3092
   22SAPC  H16R 2905   4.155   3.951   9.349 -1.8954  0.8944  1.5484
   22SAPC  H16S 2906   4.076   3.879   9.481 -0.3966 -4.3065 -0.4231
   22SAPC  C217 2907   4.227   3.751   9.399  0.3709 -0.3800  0.0130
   22SAPC  H17R 2908   4.335   3.755   9.372  0.9177 -1.6759  1.8033
   22SAPC  H17S 2909   4.171   3.716   9.310  1.6165 -2.0240 -0.1862
   22SAPC  C218 2910   4.221   3.660   9.521 -0.0118 -0.4200  0.7300
   22SAPC  H18R 2911   4.119   3.668   9.564 -1.0032  0.7768 -1.6745
   22SAPC  H18S 2912   4.296   3.680   9.602  0.6196  0.2922 -0.0137
   22SAPC  C219 2913   4.251   3.506   9.494 -0.0930  0.5138  0.0541
   22SAPC  H19R 2914   4.285   3.469   9.593  0.9908 -1.6180 -1.0539
   22SAPC  H19S 2915   4.342   3.516   9.431  1.6675 -0.6113  2.2724
   22SAPC  C220 2916   4.136   3.419   9.432 -0.9885 -0.5747  0.3613
   22SAPC  H20R 2917   4.093   3.481   9.350  0.9338  0.1970 -0.1194
   22SAPC  H20S 2918   4.070   3.405   9.520 -0.4114 -1.6563  0.6380
   22SAPC  H20T 2919   4.179   3.321   9.400  0.1476 -0.6970  2.1131
   22SAPC   C33 2920   4.547   3.566  10.151  0.7129 -0.0879  0.1290
   22SAPC   H3X 2921   4.651   3.526  10.145 -0.4143 -3.0773 -2.2753
   22SAPC   H3Y 2922   4.554   3.672  10.119  1.4301  0.2413  1.3166
   22SAPC   C34 2923   4.438   3.519  10.044  0.7628 -1.2038  0.2097
   22SAPC   H4X 2924   4.346   3.576  10.068 -0.0510 -3.0391  1.7612
   22SAPC   H4Y 2925   4.417   3.410  10.056  1.5760 -1.2256  1.5996
   22SAPC   C35 2926   4.482   3.549   9.895  0.3637 -0.1959 -0.1542
   22SAPC   H5X 2927   4.479   3.657   9.871 -1.1347 -0.0924  0.3967
   22SAPC   H5Y 2928   4.413   3.504   9.820  3.3401  0.4695 -3.5661
   22SAPC   C36 2929   4.629   3.504   9.884  0.2419  0.6177  0.4925
   22SAPC   H6X 2930   4.647   3.409   9.938 -1.2519  0.6401  1.1045
   22SAPC   H6Y 2931   4.688   3.586   9.929 -1.4188  1.2904  1.5685
   22SAPC   C37 2932   4.669   3.491   9.735 -0.4897  0.3719 -0.5994
   22SAPC   H7X 2933   4.642   3.576   9.668 -1.4795 -0.4859 -1.3097
   22SAPC   H7Y 2934   4.606   3.405   9.705 -0.9564 -0.2264  1.8988
   22SAPC   C38 2935   4.818   3.447   9.718  0.6865  0.0170 -0.5976
   22SAPC   H8X 2936   4.831   3.357   9.782  1.9585 -1.4574 -2.7791
   22SAPC   H8Y 2937   4.890   3.526   9.748  1.1479  0.3619 -2.4773
   22SAPC   C39 2938   4.852   3.424   9.568 -0.8591  0.1795  0.2247
   22SAPC   H9X 2939   4.824   3.517   9.513 -0.8772  0.3320  0.4904
   22SAPC   H9Y 2940   4.792   3.344   9.520  0.6819 -0.9670  0.1247
   22SAPC  C310 2941   4.999   3.387   9.543  0.6557  0.2532 -0.1005
   22SAPC  H10X 2942   5.028   3.288   9.585 -1.1341 -0.1159  0.3665
   22SAPC  H10Y 2943   5.063   3.462   9.594 -2.0865  1.6547  1.4774
   22SAPC  C311 2944   5.045   3.372   9.396 -0.2422 -0.0407  0.6212
   22SAPC  H11X 2945   5.145   3.325   9.394  0.1547  0.7864  0.6554
   22SAPC  H11Y 2946   5.075   3.468   9.348  1.7580 -1.1600 -0.5030
   22SAPC  C312 2947   4.943   3.294   9.312 -0.4912 -0.1891 -0.5007
   22SAPC  H12X 2948   4.847   3.346   9.292  0.1342  1.5422  0.7583
   22SAPC  H12Y 2949   4.920   3.196   9.359 -1.2325  0.2146  0.0047
   22SAPC  C313 2950   5.003   3.267   9.174 -0.0470  0.0584 -0.0334
   22SAPC  H13X 2951   5.084   3.339   9.151 -1.4766  1.8003  0.1687
   22SAPC  H13Y 2952   4.923   3.296   9.102  1.5463  0.2356 -1.8029
   22SAPC  C314 2953   5.030   3.124   9.147  0.5995  0.2064  0.0314
   22SAPC  H14X 2954   4.940   3.059   9.148  0.1288  0.8257 -0.7430
   22SAPC  H14Y 2955   5.104   3.079   9.217 -1.1336 -0.5434  1.4533
   22SAPC  C315 2956   5.093   3.103   9.007  0.1845 -0.7696 -0.5107
   22SAPC  H15X 2957   5.193   3.150   9.022 -1.1997  2.2112 -0.0266
   22SAPC  H15Y 2958   5.040   3.162   8.930  0.8882 -1.5522 -1.6356
   22SAPC  C316 2959   5.104   2.953   8.975  0.5601 -0.8417  0.1738
   22SAPC  H16X 2960   5.004   2.907   8.965  0.7512 -1.5744  1.3984
   22SAPC  H16Y 2961   5.148   2.902   9.064  0.9726 -0.6538  0.0812
   22SAPC  C317 2962   5.189   2.922   8.858  0.0201  0.4207  0.7439
   22SAPC  H17X 2963   5.189   2.810   8.855  0.6302  0.4143 -2.0043
   22SAPC  H17Y 2964   5.289   2.966   8.877 -1.0013  2.7069  1.0605
   22SAPC  C318 2965   5.129   2.971   8.728 -0.0241  0.6382 -0.0511
   22SAPC  H18X 2966   5.103   3.078   8.745 -1.4469  0.3787 -0.4051
   22SAPC  H18Y 2967   5.032   2.923   8.701 -1.7488  4.3861 -1.2238
   22SAPC  H18Z 2968   5.198   2.964   8.641 -0.4425  1.0327 -0.4256
   23SAPC     N 2969   5.645   6.315  11.271 -0.9907  0.5239  0.0894
   23SAPC   C12 2970   5.559   6.438  11.227  0.0818 -0.1255 -0.1639
   23SAPC  H12A 2971   5.593   6.525  11.282  0.1678 -0.1565 -0.1671
   23SAPC  H12B 2972   5.457   6.414  11.254  1.2453 -4.6742  1.1871
   23SAPC   C13 2973   5.645   6.291  11.415  0.6372  0.1792 -0.4422
   23SAPC  H13A 2974   5.659   6.380  11.474 -0.8566  0.4454 -0.4463
   23SAPC  H13B 2975   5.557   6.240  11.452  0.1471  1.6713  0.5252
   23SAPC  H13C 2976   5.722   6.218  11.437  0.6179  0.3763  0.3095
   23SAPC   C14 2977   5.593   6.193  11.197 -0.1399 -0.1199 -0.2969
   23SAPC  H14A 2978   5.492   6.169  11.224 -0.2551  0.0355 -0.5958
   23SAPC  H14B 2979   5.615   6.209  11.093  2.4222  0.2670  0.2229
   23SAPC  H14C 2980   5.645   6.102  11.223 -2.7985 -1.9081 -0.8954
   23SAPC   C15 2981   5.791   6.329  11.237  0.1270  0.1159  0.4731
   23SAPC  H15A 2982   5.803   6.333  11.130 -0.2552 -0.9480  0.3715
   23SAPC  H15B 2983   5.819   6.426  11.273  1.7397  0.4325 -1.4312
   23SAPC  H15C 2984   5.853   6.246  11.268 -0.9261 -0.8709  0.0360
   23SAPC   C11 2985   5.556   6.477  11.068  0.1024  0.7692 -0.2567
   23SAPC  H11A 2986   5.478   6.555  11.052  0.5665  0.9215 -1.9965
   23SAPC  H11B 2987   5.506   6.392  11.017  1.7400 -1.7923  2.1659
   23SAPC     P 2988   5.767   6.461  10.907  0.0782 -0.4531 -0.0864
   23SAPC   O13 2989   5.914   6.489  10.927  0.2005 -0.5562 -0.5413
   23SAPC   O14 2990   5.722   6.319  10.892  0.3278 -0.3960  0.4852
   23SAPC   O12 2991   5.684   6.526  11.031 -0.0093  0.0386 -0.0687
   23SAPC   O11 2992   5.718   6.549  10.787  0.2972 -0.2883 -0.1712
   23SAPC    C1 2993   5.579   6.548  10.738  0.1640  0.2592  0.1105
   23SAPC    HA 2994   5.520   6.459  10.766 -1.7357  1.9137  1.6681
   23SAPC    HB 2995   5.523   6.628  10.791  0.5214 -0.0561  0.9857
   23SAPC    C2 2996   5.570   6.577  10.581 -0.0509  0.3280 -0.9429
   23SAPC    HS 2997   5.464   6.561  10.551 -0.7920 -0.1844  1.6955
   23SAPC   O21 2998   5.658   6.500  10.502 -0.2736  0.6841  0.1961
   23SAPC   C21 2999   5.627   6.372  10.499 -0.0517  0.3985  0.2915
   23SAPC   O22 3000   5.542   6.318  10.558 -0.4570  0.5885  0.2871
   23SAPC   C22 3001   5.719   6.295  10.402  0.1452 -0.0610  0.1031
   23SAPC   H2R 3002   5.814   6.350  10.383 -0.7922  1.2631 -0.9017
   23SAPC   H2S 3003   5.729   6.192  10.444 -0.8574 -0.3718 -0.4030
   23SAPC    C3 3004   5.602   6.725  10.558 -0.1228 -0.2297 -0.4615
   23SAPC    HX 3005   5.706   6.742  10.594 -1.2487  1.5591  2.3168
   23SAPC    HY 3006   5.538   6.796  10.615 -0.0461 -0.1245 -0.5041
   23SAPC   O31 3007   5.604   6.767  10.422  0.6193  0.5761 -0.2908
   23SAPC   C31 3008   5.479   6.792  10.369  0.3055  0.1655  0.8154
   23SAPC   O32 3009   5.378   6.786  10.433  0.5694 -0.0903 -0.0154
   23SAPC   C32 3010   5.478   6.802  10.220 -0.2179 -0.4624  0.0586
   23SAPC   H2X 3011   5.548   6.727  10.175  1.2657  0.4282  0.8157
   23SAPC   H2Y 3012   5.532   6.896  10.194  2.4850 -1.7566  0.5775
   23SAPC   C23 3013   5.654   6.272  10.259 -0.7715 -0.1246 -0.0501
   23SAPC   H3R 3014   5.568   6.203  10.272  0.2629 -1.1266  1.8766
   23SAPC   H3S 3015   5.726   6.223  10.191  1.8651  1.4011  1.4958
   23SAPC   C24 3016   5.611   6.402  10.190 -0.1998  1.1605  0.4815
   23SAPC   H4R 3017   5.697   6.472  10.195  1.2205 -0.4558 -0.1995
   23SAPC   H4S 3018   5.525   6.436  10.252 -0.8365 -1.2504  1.0126
   23SAPC   C25 3019   5.560   6.380  10.047 -0.6590 -0.2062 -0.2362
   23SAPC   H5R 3020   5.469   6.318  10.048  0.1651 -1.4734  1.6184
   23SAPC   C26 3021   5.598   6.442   9.938  0.8116 -0.1259 -0.2914
   23SAPC   H6R 3022   5.556   6.400   9.845 -2.0203 -0.5069  1.0283
   23SAPC   C27 3023   5.704   6.547   9.920  0.4079 -0.0132 -0.6688
   23SAPC   H7R 3024   5.799   6.501   9.889 -1.0170 -1.7176 -2.7958
   23SAPC   H7S 3025   5.720   6.581  10.025  1.1108 -1.2383 -0.3665
   23SAPC   C28 3026   5.660   6.657   9.827 -0.9615 -0.1858  0.2678
   23SAPC   H8R 3027   5.615   6.744   9.879  1.1815  0.7164  0.6982
   23SAPC   C29 3028   5.699   6.668   9.698  0.3944  0.5179 -0.1659
   23SAPC   H9R 3029   5.652   6.747   9.637  3.0372  1.0920 -1.6458
   23SAPC  C210 3030   5.782   6.564   9.623 -0.0038 -0.1885 -0.5625
   23SAPC  H10R 3031   5.793   6.472   9.684 -0.2513 -1.1263 -1.8834
   23SAPC  H10S 3032   5.883   6.611   9.622 -1.0959  2.3733 -0.4219
   23SAPC  C211 3033   5.734   6.543   9.480  1.0007 -0.2499  0.5154
   23SAPC  H11R 3034   5.647   6.476   9.474  1.6174 -1.0909  0.7585
   23SAPC  C212 3035   5.784   6.594   9.368  0.0207 -0.4166 -0.6048
   23SAPC  H12R 3036   5.723   6.578   9.278  0.3366 -1.1968 -0.6843
   23SAPC  C213 3037   5.906   6.689   9.360  0.0557  0.2180  0.2254
   23SAPC  H13R 3038   5.952   6.711   9.459  1.0828  0.7183 -0.3431
   23SAPC  H13S 3039   5.875   6.791   9.331 -0.0948  1.4238  4.0729
   23SAPC  C214 3040   6.013   6.627   9.276 -0.2200 -0.2381  0.3304
   23SAPC  H14R 3041   6.090   6.581   9.340  1.5989  0.6225 -1.1459
   23SAPC  C215 3042   6.018   6.625   9.141 -0.3326 -0.1245  0.3760
   23SAPC  H15R 3043   6.108   6.588   9.088 -1.4969 -1.4933 -0.7472
   23SAPC  C216 3044   5.923   6.683   9.043  0.4523  0.5465  0.1200
   23SAPC  H16R 3045   5.980   6.729   8.959  0.5450 -0.7732 -0.5633
   23SAPC  H16S 3046   5.856   6.761   9.084 -3.5916 -2.2924 -0.5250
   23SAPC  C217 3047   5.821   6.571   8.980 -0.3581  0.1063  0.3677
   23SAPC  H17R 3048   5.760   6.525   9.061 -0.6586 -1.3537 -0.6437
   23SAPC  H17S 3049   5.890   6.499   8.930  1.0691  2.0727 -0.6364
   23SAPC  C218 3050   5.722   6.631   8.878  0.1636  0.2823  0.8315
   23SAPC  H18R 3051   5.782   6.692   8.808 -1.4214  1.4216  0.4171
   23SAPC  H18S 3052   5.649   6.702   8.922  0.9111  0.4586  1.8351
   23SAPC  C219 3053   5.647   6.517   8.811  0.3849  0.5715  0.7104
   23SAPC  H19R 3054   5.538   6.535   8.819  0.3819  0.4652  0.9001
   23SAPC  H19S 3055   5.655   6.417   8.859  0.0371  0.5273  0.6830
   23SAPC  C220 3056   5.692   6.500   8.668  0.2512  1.0244  0.8468
   23SAPC  H20R 3057   5.679   6.593   8.609  2.2381  0.1615 -1.1157
   23SAPC  H20S 3058   5.635   6.418   8.619  1.0080  1.4106 -0.7231
   23SAPC  H20T 3059   5.801   6.478   8.661  0.0520  0.5717 -2.0768
   23SAPC   C33 3060   5.341   6.788  10.159  0.4209  0.1307  0.2171
   23SAPC   H3X 3061   5.276   6.867  10.202  0.3802  0.0393  0.3224
   23SAPC   H3Y 3062   5.304   6.686  10.179 -1.6480  1.0897  1.5979
   23SAPC   C34 3063   5.338   6.797  10.004 -0.7977 -0.0009  0.4768
   23SAPC   H4X 3064   5.238   6.764   9.970  1.3091 -3.4090 -3.4148
   23SAPC   H4Y 3065   5.407   6.726   9.954  0.0524  1.1031  0.0308
   23SAPC   C35 3066   5.371   6.943   9.952 -0.6702  0.5374 -0.3561
   23SAPC   H5X 3067   5.472   6.980   9.981 -1.0843  0.5015  1.1926
   23SAPC   H5Y 3068   5.293   7.014   9.986 -0.1160  0.6505  0.7321
   23SAPC   C36 3069   5.368   6.948   9.795  0.0085  0.3727 -0.0236
   23SAPC   H6X 3070   5.270   6.905   9.763  0.8562 -0.1232 -2.0599
   23SAPC   H6Y 3071   5.444   6.878   9.757 -0.1275  1.8779 -3.4215
   23SAPC   C37 3072   5.396   7.082   9.717  0.6472 -0.1903 -0.4341
   23SAPC   H7X 3073   5.499   7.123   9.720  0.1111  1.3165 -1.5686
   23SAPC   H7Y 3074   5.328   7.158   9.759  1.0847  0.3341 -0.6565
   23SAPC   C38 3075   5.356   7.071   9.571 -0.2460 -0.2353 -0.4499
   23SAPC   H8X 3076   5.247   7.049   9.557 -0.1039  0.2977 -2.8402
   23SAPC   H8Y 3077   5.408   6.982   9.528  0.3749 -0.0693 -0.0407
   23SAPC   C39 3078   5.386   7.193   9.485  0.8128 -0.0207 -0.7233
   23SAPC   H9X 3079   5.493   7.220   9.480  0.6052  1.3109  0.9956
   23SAPC   H9Y 3080   5.334   7.278   9.535  1.3453 -0.6198  0.9069
   23SAPC  C310 3081   5.327   7.184   9.344  0.7386  0.3035 -0.4284
   23SAPC  H10X 3082   5.240   7.115   9.338  1.0161 -0.1512  0.4747
   23SAPC  H10Y 3083   5.404   7.143   9.275  0.9826 -1.7810  0.9868
   23SAPC  C311 3084   5.288   7.323   9.283 -0.5246  0.1004 -0.3110
   23SAPC  H11X 3085   5.383   7.380   9.287  0.7578 -1.7361 -2.1734
   23SAPC  H11Y 3086   5.221   7.380   9.351  0.8525  0.7460  0.5569
   23SAPC  C312 3087   5.240   7.314   9.142  0.1072 -0.3241  0.1828
   23SAPC  H12X 3088   5.137   7.275   9.131  0.3135 -0.7016 -0.5086
   23SAPC  H12Y 3089   5.300   7.247   9.077  0.9461  1.4358 -0.9348
   23SAPC  C313 3090   5.250   7.448   9.073 -0.1211  0.0019  0.1310
   23SAPC  H13X 3091   5.184   7.521   9.126  0.3630  1.1331 -0.7859
   23SAPC  H13Y 3092   5.194   7.452   8.977 -1.0384  2.8555  0.6640
   23SAPC  C314 3093   5.393   7.512   9.064 -0.2927  0.3039  0.0300
   23SAPC  H14X 3094   5.452   7.509   9.158 -1.4619  0.0103  0.7781
   23SAPC  H14Y 3095   5.365   7.619   9.052 -2.2039 -0.1122  0.4817
   23SAPC  C315 3096   5.473   7.450   8.946  0.1943  0.3324  0.2086
   23SAPC  H15X 3097   5.406   7.401   8.872  0.5801  0.6108 -0.3253
   23SAPC  H15Y 3098   5.521   7.356   8.983  2.0113  0.4790 -1.6399
   23SAPC  C316 3099   5.583   7.526   8.880  0.3279  0.0915  0.2119
   23SAPC  H16X 3100   5.631   7.460   8.805 -1.3245 -0.1506 -0.6713
   23SAPC  H16Y 3101   5.649   7.557   8.964 -0.4367 -0.1609  0.9271
   23SAPC  C317 3102   5.539   7.650   8.798 -0.2260  0.0777  0.1051
   23SAPC  H17X 3103   5.629   7.703   8.760 -1.5524  2.6212  0.2982
   23SAPC  H17Y 3104   5.490   7.723   8.867  0.4622  0.7552 -0.1015
   23SAPC  C318 3105   5.438   7.617   8.687 -0.1727 -0.2832 -1.0630
   23SAPC  H18X 3106   5.430   7.717   8.638  0.0306 -0.3902 -1.3145
   23SAPC  H18Y 3107   5.343   7.571   8.723 -0.2264  1.2655  0.9442
   23SAPC  H18Z 3108   5.476   7.544   8.613 -1.8255 -1.8577 -0.4517
   24SAPC     N 3109   0.696   4.042  11.157 -0.1796  0.1591 -0.1176
   24SAPC   C12 3110   0.768   3.980  11.042  0.1419  0.6715 -1.0341
   24SAPC  H12A 3111   0.714   3.895  11.002 -0.7887  1.3788 -1.3155
   24SAPC  H12B 3112   0.858   3.926  11.070 -0.8994 -1.2196 -1.1305
   24SAPC   C13 3113   0.784   4.135  11.229 -0.1203  0.3456  0.4839
   24SAPC  H13A 3114   0.811   4.216  11.162  1.2588  0.6374  1.3651
   24SAPC  H13B 3115   0.739   4.179  11.317  1.9535  0.2954  1.6217
   24SAPC  H13C 3116   0.876   4.082  11.245 -0.0817  0.0734 -0.5423
   24SAPC   C14 3117   0.566   4.098  11.104  0.5046 -0.1035 -0.5547
   24SAPC  H14A 3118   0.501   4.142  11.180 -0.5430 -3.8086  0.9069
   24SAPC  H14B 3119   0.596   4.183  11.044 -1.5745  3.1334  2.5812
   24SAPC  H14C 3120   0.503   4.031  11.048 -1.6871  0.7767  0.7008
   24SAPC   C15 3121   0.676   3.924  11.250  0.2550  0.3318  0.4866
   24SAPC  H15A 3122   0.588   3.869  11.217 -0.2498  1.0014  0.6928
   24SAPC  H15B 3123   0.763   3.860  11.254  0.1388 -0.1690 -2.3956
   24SAPC  H15C 3124   0.681   3.959  11.352  1.3755  0.4504  0.4026
   24SAPC   C11 3125   0.817   4.064  10.920 -0.5304 -0.6127  0.0974
   24SAPC  H11A 3126   0.727   4.111  10.875 -1.7649 -2.0909  0.9621
   24SAPC  H11B 3127   0.866   3.999  10.846  0.6371  0.2863  0.0411
   24SAPC     P 3128   1.053   4.133  11.014 -0.0991  0.1719 -0.3196
   24SAPC   O13 3129   1.111   4.247  11.088 -0.9264 -0.8360 -0.1202
   24SAPC   O14 3130   1.045   4.004  11.088  0.4799  0.0150 -0.0277
   24SAPC   O12 3131   0.913   4.170  10.956  0.4951 -0.2109 -0.2510
   24SAPC   O11 3132   1.144   4.103  10.888 -0.1854  0.2147  0.0042
   24SAPC    C1 3133   1.141   4.181  10.764  0.2770  0.4519 -0.3950
   24SAPC    HA 3134   1.103   4.284  10.780 -1.9453 -0.1683 -1.2832
   24SAPC    HB 3135   1.248   4.197  10.739  0.1685  1.4440 -0.2390
   24SAPC    C2 3136   1.078   4.119  10.635  0.1759 -0.0636  0.4647
   24SAPC    HS 3137   0.971   4.091  10.650  0.5918 -1.0093  1.9515
   24SAPC   O21 3138   1.155   4.011  10.593 -0.2948 -0.5455 -0.2842
   24SAPC   C21 3139   1.106   3.894  10.618 -0.0302  0.4232  0.1504
   24SAPC   O22 3140   0.995   3.872  10.662 -0.0810 -0.1287 -0.1057
   24SAPC   C22 3141   1.207   3.797  10.550  0.5854  0.1989 -0.5357
   24SAPC   H2R 3142   1.152   3.701  10.560 -0.9831  1.1804  0.7476
   24SAPC   H2S 3143   1.213   3.836  10.445  0.8512 -1.1099 -1.0221
   24SAPC    C3 3144   1.081   4.219  10.522  0.2111  0.5957  0.7769
   24SAPC    HX 3145   1.011   4.296  10.561  1.1640  1.2820  1.1653
   24SAPC    HY 3146   1.040   4.169  10.431  1.8529  0.3565  0.1209
   24SAPC   O31 3147   1.207   4.278  10.498  0.4250  0.3230  0.0813
   24SAPC   C31 3148   1.207   4.402  10.451 -0.1206  0.7176 -0.0368
   24SAPC   O32 3149   1.107   4.461  10.414 -0.1331 -0.5084 -0.2440
   24SAPC   C32 3150   1.347   4.454  10.459 -0.0233  0.0742 -0.5486
   24SAPC   H2X 3151   1.415   4.368  10.439 -2.0220 -1.4276 -1.1300
   24SAPC   H2Y 3152   1.359   4.494  10.563 -1.8944 -1.3924  0.2814
   24SAPC   C23 3153   1.352   3.797  10.610  0.6927  0.4771 -0.3051
   24SAPC   H3R 3154   1.358   3.741  10.705  1.1076 -0.7613 -1.0313
   24SAPC   H3S 3155   1.378   3.904  10.627 -1.6301  1.0272  0.0378
   24SAPC   C24 3156   1.451   3.715  10.526 -0.3501  0.1280 -0.3525
   24SAPC   H4R 3157   1.449   3.753  10.421 -1.1452  1.0987 -0.0060
   24SAPC   H4S 3158   1.409   3.614  10.510  0.4762 -0.4026  0.7023
   24SAPC   C25 3159   1.594   3.722  10.583  0.9588  0.5332 -0.0194
   24SAPC   H5R 3160   1.626   3.654  10.664 -0.7204  0.2945  0.4969
   24SAPC   C26 3161   1.693   3.801  10.536  0.2111  0.3312 -0.1053
   24SAPC   H6R 3162   1.792   3.792  10.583  0.2613  0.2798 -0.2204
   24SAPC   C27 3163   1.682   3.889  10.412 -0.7995 -0.3129 -0.1080
   24SAPC   H7R 3164   1.628   3.829  10.336 -0.2275 -0.1326 -0.6660
   24SAPC   H7S 3165   1.786   3.903  10.375 -1.6101 -0.0248 -2.4338
   24SAPC   C28 3166   1.628   4.028  10.442  0.4060 -0.3116 -0.4828
   24SAPC   H8R 3167   1.677   4.076  10.527 -1.7906  0.5015  0.4158
   24SAPC   C29 3168   1.533   4.090  10.372 -0.2688 -0.3606 -0.2278
   24SAPC   H9R 3169   1.495   4.188  10.405 -1.0179 -1.1469  1.3387
   24SAPC  C210 3170   1.467   4.034  10.255 -1.0308 -0.4418 -0.3552
   24SAPC  H10R 3171   1.472   3.923  10.264 -0.7906 -0.5662 -1.8282
   24SAPC  H10S 3172   1.515   4.061  10.159 -1.1979  0.7422 -0.1181
   24SAPC  C211 3173   1.324   4.076  10.254 -0.1193  0.3564 -0.8241
   24SAPC  H11R 3174   1.276   4.089  10.352 -1.3061 -2.1953 -0.9659
   24SAPC  C212 3175   1.235   4.095  10.154 -0.8809 -0.7019  0.3618
   24SAPC  H12R 3176   1.135   4.133  10.177 -1.0527 -1.0545  0.2148
   24SAPC  C213 3177   1.275   4.092  10.010  0.0522  0.1246 -0.3992
   24SAPC  H13R 3178   1.258   3.989   9.973  0.4442  0.2650 -0.9958
   24SAPC  H13S 3179   1.382   4.121   9.998  0.2515 -0.3882  0.1166
   24SAPC  C214 3180   1.200   4.193   9.928  0.3476 -0.4743  0.1442
   24SAPC  H14R 3181   1.217   4.300   9.948 -2.3280 -0.1562  0.9762
   24SAPC  C215 3182   1.105   4.168   9.837  0.2600 -0.6131  0.6799
   24SAPC  H15R 3183   1.062   4.253   9.782 -0.5130 -0.0524  2.1102
   24SAPC  C216 3184   1.042   4.035   9.805 -0.3323 -0.0260 -0.1226
   24SAPC  H16R 3185   0.934   4.031   9.778  0.1960  2.5539 -3.1417
   24SAPC  H16S 3186   1.050   3.966   9.891  0.6374 -0.3129 -0.4298
   24SAPC  C217 3187   1.121   3.960   9.695  0.3658 -0.2882 -0.4395
   24SAPC  H17R 3188   1.080   3.857   9.686  1.1895 -0.5840 -0.9560
   24SAPC  H17S 3189   1.228   3.954   9.721  0.3204 -1.7105 -0.5010
   24SAPC  C218 3190   1.112   4.024   9.556 -0.5238 -0.6803  0.0099
   24SAPC  H18R 3191   1.122   4.135   9.564  2.1217 -0.8267 -0.4856
   24SAPC  H18S 3192   1.014   3.996   9.511 -2.7688  3.5784  1.6020
   24SAPC  C219 3193   1.219   3.979   9.460  0.3766  0.5548  0.4029
   24SAPC  H19R 3194   1.220   3.868   9.460 -1.6953  0.5067 -0.0234
   24SAPC  H19S 3195   1.313   4.018   9.505  1.2080 -1.7978  0.8649
   24SAPC  C220 3196   1.196   4.028   9.315 -0.0447 -0.0912 -0.2585
   24SAPC  H20R 3197   1.214   4.138   9.317 -3.3962  0.5433  1.0159
   24SAPC  H20S 3198   1.087   4.018   9.296  0.0066  1.6972 -1.7796
   24SAPC  H20T 3199   1.254   3.959   9.250  0.0270 -2.7742  2.4423
   24SAPC   C33 3200   1.381   4.559  10.356  0.0678  0.3356 -0.1999
   24SAPC   H3X 3201   1.478   4.605  10.386 -0.8732  0.3798  3.0621
   24SAPC   H3Y 3202   1.305   4.640  10.358 -1.7086 -1.2692 -0.6383
   24SAPC   C34 3203   1.383   4.495  10.216  0.3238 -0.1097 -0.2130
   24SAPC   H4X 3204   1.301   4.421  10.204  1.3930 -1.4415  0.4123
   24SAPC   H4Y 3205   1.472   4.430  10.213  0.0525 -0.4741 -0.3888
   24SAPC   C35 3206   1.401   4.596  10.102 -0.1958 -0.0805 -0.3567
   24SAPC   H5X 3207   1.463   4.680  10.140  0.2867  1.1023 -3.4415
   24SAPC   H5Y 3208   1.304   4.635  10.062  0.3338  0.6430 -0.9692
   24SAPC   C36 3209   1.472   4.544   9.974 -0.2664 -0.9231  0.5756
   24SAPC   H6X 3210   1.424   4.454   9.928  0.0554 -0.9973  0.3806
   24SAPC   H6Y 3211   1.576   4.528  10.007 -0.3197  1.2979  2.0144
   24SAPC   C37 3212   1.488   4.650   9.861  0.3659  0.5455  0.5893
   24SAPC   H7X 3213   1.594   4.662   9.829 -0.2984  0.7637 -1.7353
   24SAPC   H7Y 3214   1.461   4.749   9.903 -0.1335  1.4967 -1.8181
   24SAPC   C38 3215   1.395   4.622   9.739 -0.4805  0.2543 -0.2257
   24SAPC   H8X 3216   1.395   4.712   9.675  0.9143 -0.0856 -0.7588
   24SAPC   H8Y 3217   1.291   4.609   9.773  0.4378  0.6537  3.0490
   24SAPC   C39 3218   1.453   4.509   9.655 -0.0737 -0.3043 -0.0238
   24SAPC   H9X 3219   1.433   4.417   9.713  1.9720  0.0404  1.3332
   24SAPC   H9Y 3220   1.564   4.512   9.644  0.0278  2.5419  0.9004
   24SAPC  C310 3221   1.407   4.504   9.507  0.6839  0.0822 -0.7480
   24SAPC  H10X 3222   1.402   4.607   9.466 -0.5357  1.3240  2.1904
   24SAPC  H10Y 3223   1.299   4.477   9.503  0.4755  0.9985 -1.8969
   24SAPC  C311 3224   1.485   4.408   9.411  0.6956  0.0884 -0.0174
   24SAPC  H11X 3225   1.467   4.304   9.446 -0.5908  0.0945 -0.6182
   24SAPC  H11Y 3226   1.596   4.418   9.410  0.8115 -0.9028 -1.9541
   24SAPC  C312 3227   1.448   4.432   9.261 -0.0877  0.4121 -0.8757
   24SAPC  H12X 3228   1.470   4.536   9.228  1.6492  0.7768  1.1927
   24SAPC  H12Y 3229   1.343   4.412   9.234  0.1043  1.3581 -2.4105
   24SAPC  C313 3230   1.538   4.355   9.162 -0.5355  0.1254 -0.2179
   24SAPC  H13X 3231   1.499   4.354   9.058  1.3613  2.7634 -1.0554
   24SAPC  H13Y 3232   1.557   4.249   9.192 -2.3349 -0.5043 -1.1997
   24SAPC  C314 3233   1.666   4.436   9.135 -0.1091  0.6343 -0.0826
   24SAPC  H14X 3234   1.702   4.487   9.227 -0.2127  1.8189 -0.6861
   24SAPC  H14Y 3235   1.644   4.515   9.059 -0.2091 -1.7748 -2.7325
   24SAPC  C315 3236   1.780   4.339   9.093  0.1642  0.3159  0.5418
   24SAPC  H15X 3237   1.789   4.247   9.155 -0.8017 -1.3323 -1.6095
   24SAPC  H15Y 3238   1.876   4.395   9.086  0.5651 -0.2226  1.5338
   24SAPC  C316 3239   1.756   4.293   8.949 -0.0670  0.6935 -0.3322
   24SAPC  H16X 3240   1.762   4.382   8.883  2.6639  1.8573  1.2853
   24SAPC  H16Y 3241   1.652   4.253   8.944 -0.2327  0.4719  2.6697
   24SAPC  C317 3242   1.861   4.192   8.909 -0.1364 -0.1588  0.0143
   24SAPC  H17X 3243   1.864   4.106   8.980  1.4249 -0.9655 -0.9756
   24SAPC  H17Y 3244   1.965   4.231   8.913 -0.3519  0.3814  0.5362
   24SAPC  C318 3245   1.834   4.127   8.772  1.0118  0.3618  0.3308
   24SAPC  H18X 3246   1.735   4.078   8.762 -0.1175  2.8124 -1.4263
   24SAPC  H18Y 3247   1.914   4.051   8.760  1.4617  0.7202  1.0029
   24SAPC  H18Z 3248   1.842   4.201   8.690 -0.2045  1.3278  1.0563
   25SAPC     N 3249   6.332   0.600   6.401 -0.1256  0.2791 -0.1771
   25SAPC   C12 3250   6.189   0.663   6.396 -0.3201 -0.0851 -0.4053
   25SAPC  H12A 3251   6.152   0.622   6.489  1.5773 -1.3587 -0.1597
   25SAPC  H12B 3252   6.137   0.625   6.310  1.0971 -1.5395 -0.6594
   25SAPC   C13 3253   6.384   0.599   6.262 -0.3130  0.4702  0.7245
   25SAPC  H13A 3254   6.474   0.540   6.251 -1.4737 -1.3257  0.5087
   25SAPC  H13B 3255   6.321   0.540   6.197  3.2712 -3.0720  0.0696
   25SAPC  H13C 3256   6.397   0.700   6.225  2.3435 -0.2562 -0.6517
   25SAPC   C14 3257   6.433   0.670   6.496  0.3459 -0.4012  0.4566
   25SAPC  H14A 3258   6.526   0.622   6.469  0.9456  0.2611  1.2843
   25SAPC  H14B 3259   6.430   0.773   6.465 -2.1071 -0.5961 -0.1616
   25SAPC  H14C 3260   6.415   0.671   6.602  0.9135  0.3110  0.5585
   25SAPC   C15 3261   6.312   0.459   6.443 -0.1905  0.2937  0.4906
   25SAPC  H15A 3262   6.277   0.462   6.545  2.5692  3.7323  1.5394
   25SAPC  H15B 3263   6.233   0.407   6.390 -0.6790  0.1244  1.3647
   25SAPC  H15C 3264   6.409   0.412   6.451  0.8261  2.3204  0.6991
   25SAPC   C11 3265   6.189   0.820   6.404  0.3048 -0.8458  0.2415
   25SAPC  H11A 3266   6.222   0.854   6.504 -2.4381 -0.9233  1.2456
   25SAPC  H11B 3267   6.084   0.856   6.406  1.2296  2.0712  2.5512
   25SAPC     P 3268   6.263   1.015   6.261 -0.0480 -0.3631  0.3671
   25SAPC   O13 3269   6.376   1.041   6.168  0.2622 -0.9458  0.4554
   25SAPC   O14 3270   6.133   1.061   6.204 -0.4882 -0.2827 -0.0081
   25SAPC   O12 3271   6.266   0.865   6.298 -0.1037 -0.2190  0.5360
   25SAPC   O11 3272   6.281   1.095   6.401  0.0501  0.3771 -0.4581
   25SAPC    C1 3273   6.404   1.070   6.472  0.2935 -0.4741 -0.0016
   25SAPC    HA 3274   6.404   0.970   6.520  0.2830 -0.3153  0.3355
   25SAPC    HB 3275   6.490   1.089   6.405 -1.4031  2.0691 -1.6560
   25SAPC    C2 3276   6.429   1.171   6.581  0.6768 -0.1322  0.1998
   25SAPC    HS 3277   6.539   1.165   6.595  0.4643 -2.4071  1.3166
   25SAPC   O21 3278   6.348   1.136   6.694  0.2255  0.2353  0.4456
   25SAPC   C21 3279   6.411   1.139   6.815  0.5570  0.6485  0.2305
   25SAPC   O22 3280   6.531   1.160   6.825 -0.0327 -0.2445  0.4223
   25SAPC   C22 3281   6.314   1.093   6.926  0.2056 -0.4695  0.3086
   25SAPC   H2R 3282   6.235   1.171   6.928 -0.8485 -1.4678 -0.7259
   25SAPC   H2S 3283   6.252   1.004   6.901 -0.9144  0.5844 -0.8021
   25SAPC    C3 3284   6.388   1.318   6.547 -0.2156  0.9469 -0.0021
   25SAPC    HX 3285   6.278   1.315   6.558 -0.4471 -3.1586 -1.4603
   25SAPC    HY 3286   6.407   1.349   6.442 -0.9090  1.1245 -0.0790
   25SAPC   O31 3287   6.442   1.408   6.650  0.2882 -0.0951  0.3926
   25SAPC   C31 3288   6.566   1.444   6.634  0.1753 -0.0873  0.3331
   25SAPC   O32 3289   6.646   1.416   6.547  0.1504  0.4063 -0.0225
   25SAPC   C32 3290   6.595   1.555   6.739 -0.4401 -0.5343  0.2697
   25SAPC   H2X 3291   6.582   1.650   6.683 -0.0042 -1.6879 -1.9253
   25SAPC   H2Y 3292   6.705   1.552   6.754 -0.5730  0.7456  1.7457
   25SAPC   C23 3293   6.371   1.074   7.067 -0.4093 -0.6994 -0.8585
   25SAPC   H3R 3294   6.471   1.027   7.071 -0.9200 -1.7576  0.7430
   25SAPC   H3S 3295   6.302   1.011   7.127 -1.1469  0.5959 -0.2782
   25SAPC   C24 3296   6.398   1.214   7.141  0.1917  0.4330  0.3594
   25SAPC   H4R 3297   6.461   1.277   7.075  1.0544 -0.5082  0.2619
   25SAPC   H4S 3298   6.467   1.198   7.227  0.7316 -2.4263 -0.4838
   25SAPC   C25 3299   6.281   1.290   7.199 -0.5502  0.2729  0.4218
   25SAPC   H5R 3300   6.209   1.319   7.121  1.7538  0.0906 -1.9293
   25SAPC   C26 3301   6.255   1.291   7.329 -0.2532 -0.1212 -0.5172
   25SAPC   H6R 3302   6.165   1.342   7.366  1.4291  1.1623  2.1098
   25SAPC   C27 3303   6.333   1.227   7.439 -0.3316  0.5708  0.2725
   25SAPC   H7R 3304   6.378   1.132   7.404  1.9786  1.7380 -0.1206
   25SAPC   H7S 3305   6.258   1.217   7.520 -2.0168  0.0598 -1.2976
   25SAPC   C28 3306   6.440   1.318   7.485 -1.3999  0.1076  0.2816
   25SAPC   H8R 3307   6.465   1.404   7.420  0.9470  0.4730  1.5337
   25SAPC   C29 3308   6.505   1.303   7.605  0.4482  0.2865 -0.1190
   25SAPC   H9R 3309   6.584   1.371   7.641  2.1320 -1.3848 -0.5058
   25SAPC  C210 3310   6.482   1.202   7.713  0.5173  0.7436 -0.4554
   25SAPC  H10R 3311   6.382   1.155   7.699  0.9199 -0.2533 -0.0799
   25SAPC  H10S 3312   6.476   1.255   7.810  1.2563 -1.0157  0.5829
   25SAPC  C211 3313   6.580   1.084   7.713 -0.2410 -0.0623 -0.1618
   25SAPC  H11R 3314   6.565   1.020   7.625 -0.8986  1.4220 -1.1721
   25SAPC  C212 3315   6.693   1.065   7.792 -0.3365 -0.3023 -0.5294
   25SAPC  H12R 3316   6.755   0.976   7.776  1.1359  0.3349  1.2245
   25SAPC  C213 3317   6.753   1.149   7.904 -0.4950  0.6965  0.0321
   25SAPC  H13R 3318   6.678   1.225   7.934 -0.3482  0.8601 -0.0178
   25SAPC  H13S 3319   6.834   1.213   7.863 -0.2791 -0.1115 -0.8207
   25SAPC  C214 3320   6.809   1.072   8.029 -0.1631  0.4000  1.4055
   25SAPC  H14R 3321   6.793   0.964   8.038  2.0713 -0.2033 -0.8521
   25SAPC  C215 3322   6.905   1.121   8.106  0.0498  0.2989 -0.0578
   25SAPC  H15R 3323   6.958   1.053   8.174 -0.4110  1.1576  1.2022
   25SAPC  C216 3324   6.976   1.249   8.099  0.3341 -0.5259 -0.3378
   25SAPC  H16R 3325   6.945   1.311   8.012  0.7442 -0.2596 -0.2965
   25SAPC  H16S 3326   7.087   1.241   8.089  0.9879  5.2265 -0.9561
   25SAPC  C217 3327   6.958   1.340   8.225 -0.7106  0.2435  0.2336
   25SAPC  H17R 3328   6.997   1.277   8.308 -2.1435 -2.0021 -0.7052
   25SAPC  H17S 3329   6.849   1.357   8.243 -0.8082 -1.2606  1.2077
   25SAPC  C218 3330   7.029   1.476   8.218  0.3734 -0.3487 -0.0495
   25SAPC  H18R 3331   6.997   1.511   8.117 -0.6357  1.3150  0.8132
   25SAPC  H18S 3332   7.140   1.472   8.221  0.3322 -2.1089  0.2567
   25SAPC  C219 3333   6.985   1.573   8.334  0.2092 -0.0958  0.3579
   25SAPC  H19R 3334   6.881   1.609   8.318  0.9561  0.7645 -3.7942
   25SAPC  H19S 3335   7.040   1.666   8.307  0.8310 -0.3626  0.6972
   25SAPC  C220 3336   7.008   1.513   8.477  0.5899 -0.6750  0.2513
   25SAPC  H20R 3337   6.944   1.425   8.502 -0.2350 -0.2613 -0.3602
   25SAPC  H20S 3338   6.994   1.590   8.556  0.4754 -1.0947  0.6457
   25SAPC  H20T 3339   7.114   1.482   8.487  1.3427  1.7432  0.3134
   25SAPC   C33 3340   6.518   1.541   6.870 -0.7777 -0.8981 -0.4116
   25SAPC   H3X 3341   6.534   1.448   6.929 -1.8006 -0.5309  0.4731
   25SAPC   H3Y 3342   6.409   1.543   6.852 -1.2356  0.0535  2.0513
   25SAPC   C34 3343   6.540   1.658   6.965  0.6865  0.2419  0.1322
   25SAPC   H4X 3344   6.474   1.743   6.937 -0.2787 -1.2922 -2.7043
   25SAPC   H4Y 3345   6.648   1.685   6.957  0.6430 -0.1123 -2.7997
   25SAPC   C35 3346   6.500   1.627   7.114  0.0249 -0.4658  0.0059
   25SAPC   H5X 3347   6.568   1.553   7.162  1.4048  0.9707  0.3604
   25SAPC   H5Y 3348   6.397   1.586   7.119 -0.2975  0.3123 -0.1897
   25SAPC   C36 3349   6.510   1.753   7.210 -0.1815 -1.1846 -0.7995
   25SAPC   H6X 3350   6.442   1.835   7.179  0.5100  0.3454  1.4518
   25SAPC   H6Y 3351   6.616   1.788   7.201 -0.7803  0.9477 -0.1144
   25SAPC   C37 3352   6.468   1.724   7.354 -0.3052 -0.5437  0.9005
   25SAPC   H7X 3353   6.533   1.643   7.394  2.2000  0.8407 -0.1267
   25SAPC   H7Y 3354   6.360   1.698   7.354 -0.2441 -0.7982  0.3178
   25SAPC   C38 3355   6.495   1.854   7.439  0.0693 -0.2343  0.6014
   25SAPC   H8X 3356   6.444   1.942   7.394  0.6403  0.3966  1.1566
   25SAPC   H8Y 3357   6.603   1.878   7.439 -0.3239  1.7435 -0.6287
   25SAPC   C39 3358   6.430   1.825   7.578  0.0047 -0.2063 -0.3569
   25SAPC   H9X 3359   6.446   1.716   7.597  1.1775  0.1335  0.7232
   25SAPC   H9Y 3360   6.319   1.828   7.581  0.0086 -0.0846  3.2687
   25SAPC  C310 3361   6.492   1.904   7.690 -0.1631 -0.5176  0.2245
   25SAPC  H10X 3362   6.510   2.008   7.656 -2.0039  0.0142  0.7361
   25SAPC  H10Y 3363   6.592   1.866   7.720 -0.7321 -2.0456  0.2942
   25SAPC  C311 3364   6.409   1.907   7.819 -0.2405 -0.4939  0.2453
   25SAPC  H11X 3365   6.408   1.817   7.883 -2.0549 -0.6361  0.0942
   25SAPC  H11Y 3366   6.304   1.927   7.787 -0.0483  0.2193  0.0544
   25SAPC  C312 3367   6.451   2.018   7.915  0.0009 -0.5526  0.4358
   25SAPC  H12X 3368   6.461   2.117   7.865 -1.7594  0.7440  2.4605
   25SAPC  H12Y 3369   6.555   1.998   7.949  0.6270 -1.3000 -1.7853
   25SAPC  C313 3370   6.353   2.038   8.033 -0.4100  0.6295 -0.3703
   25SAPC  H13X 3371   6.357   1.941   8.086 -0.0620  0.8605  0.0344
   25SAPC  H13Y 3372   6.254   2.045   7.983 -0.2194 -3.0917 -1.5549
   25SAPC  C314 3373   6.396   2.156   8.127  0.0287  0.0529  0.6994
   25SAPC  H14X 3374   6.402   2.250   8.068  2.0201 -0.0601  0.6399
   25SAPC  H14Y 3375   6.502   2.133   8.153  0.1719 -0.5577 -0.3609
   25SAPC  C315 3376   6.299   2.157   8.241 -0.1928  0.1305 -0.2682
   25SAPC  H15X 3377   6.301   2.065   8.304  0.1467  0.6807  0.5456
   25SAPC  H15Y 3378   6.197   2.158   8.199 -1.6251 -3.1911  2.6366
   25SAPC  C316 3379   6.317   2.280   8.329  0.0063 -0.1523  0.0126
   25SAPC  H16X 3380   6.292   2.374   8.275 -2.0595 -0.4832  0.3112
   25SAPC  H16Y 3381   6.423   2.283   8.362 -0.4693 -2.0618  1.9432
   25SAPC  C317 3382   6.223   2.274   8.444  0.6206 -0.1329 -0.4630
   25SAPC  H17X 3383   6.226   2.177   8.497  2.0879  1.0514  1.7320
   25SAPC  H17Y 3384   6.114   2.270   8.419  0.4425 -1.9492  0.5041
   25SAPC  C318 3385   6.250   2.380   8.549 -0.3145  0.3265 -0.3329
   25SAPC  H18X 3386   6.360   2.378   8.568 -0.4635  0.6717  0.6258
   25SAPC  H18Y 3387   6.186   2.361   8.638 -0.5432 -2.3460 -1.0051
   25SAPC  H18Z 3388   6.211   2.474   8.505 -4.4738 -2.0638 -2.2805
   26SAPC     N 3389   4.705   4.719   6.058  0.1635  0.3680  0.2334
   26SAPC   C12 3390   4.762   4.641   6.179 -0.6409 -0.2038 -0.0957
   26SAPC  H12A 3391   4.837   4.706   6.221 -0.4336 -0.2106 -0.4500
   26SAPC  H12B 3392   4.816   4.552   6.147 -1.2119  0.1243 -2.1215
   26SAPC   C13 3393   4.621   4.840   6.106  0.2370 -0.3103  0.3970
   26SAPC  H13A 3394   4.526   4.810   6.147 -0.2015  1.1171  0.4615
   26SAPC  H13B 3395   4.670   4.901   6.180 -1.3677  1.3159  0.1597
   26SAPC  H13C 3396   4.600   4.911   6.028  1.0852  0.3029  0.7159
   26SAPC   C14 3397   4.814   4.789   5.966  0.3497  0.4504  0.4850
   26SAPC  H14A 3398   4.872   4.863   6.019 -2.0750  3.0884 -0.3310
   26SAPC  H14B 3399   4.881   4.720   5.918  1.2660  0.5424  1.5778
   26SAPC  H14C 3400   4.760   4.845   5.891  1.2907 -0.9078 -1.2880
   26SAPC   C15 3401   4.617   4.643   5.962 -0.6371  0.1460  0.4087
   26SAPC  H15A 3402   4.588   4.705   5.878 -1.3161  1.0302  1.2721
   26SAPC  H15B 3403   4.662   4.548   5.939 -0.5311  0.0897  0.8423
   26SAPC  H15C 3404   4.522   4.620   6.008  0.7580 -1.8340  2.5052
   26SAPC   C11 3405   4.659   4.601   6.287 -0.6458 -0.3247  0.2933
   26SAPC  H11A 3406   4.603   4.690   6.323  2.5418  1.3651  1.4475
   26SAPC  H11B 3407   4.711   4.549   6.370 -1.7867 -0.2060  1.1000
   26SAPC     P 3408   4.553   4.360   6.264  0.0737  0.1476  0.1769
   26SAPC   O13 3409   4.413   4.318   6.234  0.1282 -0.2443  0.5653
   26SAPC   O14 3410   4.662   4.282   6.200  0.2172 -0.0876 -0.5808
   26SAPC   O12 3411   4.570   4.509   6.228  0.2406  0.8548  0.5854
   26SAPC   O11 3412   4.576   4.356   6.422 -0.8319 -0.6795  0.2407
   26SAPC    C1 3413   4.471   4.430   6.493  0.5862  0.4075  0.2421
   26SAPC    HA 3414   4.466   4.539   6.474 -1.2205  1.5175  5.3952
   26SAPC    HB 3415   4.375   4.385   6.460  0.7369  0.0886  0.2377
   26SAPC    C2 3416   4.482   4.396   6.646 -0.7539 -0.4180 -0.3062
   26SAPC    HS 3417   4.400   4.452   6.697 -0.0076 -0.3391  0.8501
   26SAPC   O21 3418   4.615   4.425   6.697  0.3574  0.5325  0.3680
   26SAPC   C21 3419   4.659   4.554   6.694  0.4455  0.0153  0.2617
   26SAPC   O22 3420   4.591   4.650   6.658  0.5045  0.7301  0.0516
   26SAPC   C22 3421   4.802   4.555   6.751  0.0518  1.1455  0.2195
   26SAPC   H2R 3422   4.848   4.455   6.736 -1.6887  0.3322  0.1339
   26SAPC   H2S 3423   4.858   4.633   6.694  3.0539 -0.9306  0.0644
   26SAPC    C3 3424   4.456   4.245   6.674  0.2435 -0.2665  0.1188
   26SAPC    HX 3425   4.524   4.184   6.611  1.3939 -1.1063  2.0798
   26SAPC    HY 3426   4.354   4.226   6.635 -0.1883  2.1506 -0.0891
   26SAPC   O31 3427   4.469   4.208   6.813 -0.0402  0.5705 -0.1492
   26SAPC   C31 3428   4.591   4.171   6.850  0.4491  1.0036 -0.0133
   26SAPC   O32 3429   4.686   4.155   6.775  0.4084 -0.0952 -0.7821
   26SAPC   C32 3430   4.604   4.147   7.007  0.0832 -0.3021 -0.1758
   26SAPC   H2X 3431   4.519   4.082   7.036  0.9618 -1.2456  0.3305
   26SAPC   H2Y 3432   4.586   4.253   7.038  1.2013  1.5351 -4.9459
   26SAPC   C23 3433   4.807   4.615   6.893 -0.3973 -0.3805  0.2333
   26SAPC   H3R 3434   4.734   4.698   6.903 -0.4027  0.1263 -2.8969
   26SAPC   H3S 3435   4.905   4.664   6.910  0.5510 -2.1405  0.0516
   26SAPC   C24 3436   4.801   4.500   6.999  0.0191  0.3087  0.0510
   26SAPC   H4R 3437   4.866   4.413   6.975  1.4567  2.0481 -3.0059
   26SAPC   H4S 3438   4.694   4.470   7.001  0.4329 -1.2158  0.4300
   26SAPC   C25 3439   4.828   4.547   7.142 -0.9668 -0.4579  0.6815
   26SAPC   H5R 3440   4.762   4.632   7.166 -1.2271 -0.0611 -1.2869
   26SAPC   C26 3441   4.904   4.497   7.244  0.2984  0.2752 -0.1832
   26SAPC   H6R 3442   4.911   4.548   7.341  1.0891  1.0019 -0.6079
   26SAPC   C27 3443   4.975   4.364   7.236 -0.2698 -0.2471 -0.1501
   26SAPC   H7R 3444   4.959   4.318   7.136  0.2751  0.8459 -0.7688
   26SAPC   H7S 3445   4.932   4.297   7.313 -0.3445  1.5024  1.4223
   26SAPC   C28 3446   5.123   4.364   7.254  0.1566 -0.8105 -0.2780
   26SAPC   H8R 3447   5.181   4.344   7.163 -0.3663 -1.0788 -0.5506
   26SAPC   C29 3448   5.198   4.384   7.369  0.5487 -0.4322  0.4477
   26SAPC   H9R 3449   5.306   4.377   7.347  0.5332 -2.5352  0.8110
   26SAPC  C210 3450   5.142   4.434   7.501 -0.3143  0.2463 -0.7910
   26SAPC  H10R 3451   5.032   4.430   7.510 -0.3862  3.1120  0.5195
   26SAPC  H10S 3452   5.163   4.542   7.515  4.2525 -0.3531 -1.4330
   26SAPC  C211 3453   5.211   4.368   7.621  0.0144 -1.0035 -0.1075
   26SAPC  H11R 3454   5.310   4.324   7.605  1.1489 -0.4574  4.1601
   26SAPC  C212 3455   5.153   4.355   7.745  0.5878  0.0459  0.1803
   26SAPC  H12R 3456   5.211   4.313   7.829 -0.7317 -0.1026  1.0503
   26SAPC  C213 3457   5.017   4.404   7.785  0.0449 -0.5129 -0.1500
   26SAPC  H13R 3458   4.955   4.445   7.703 -0.6171  2.0322  1.5136
   26SAPC  H13S 3459   5.041   4.503   7.829  1.5618  1.0865 -4.0579
   26SAPC  C214 3460   4.942   4.322   7.878 -0.3889 -0.1242  0.1577
   26SAPC  H14R 3461   4.940   4.218   7.844  1.1117 -0.3133  0.5844
   26SAPC  C215 3462   4.867   4.357   7.981 -1.1668  0.2779 -0.5679
   26SAPC  H15R 3463   4.826   4.267   8.029  1.1006 -0.6474 -0.2718
   26SAPC  C216 3464   4.837   4.492   8.053 -0.7937  0.0448  0.0208
   26SAPC  H16R 3465   4.728   4.511   8.061 -0.3450  2.7462  0.7378
   26SAPC  H16S 3466   4.872   4.581   7.996 -1.7417 -1.0375 -2.4134
   26SAPC  C217 3467   4.905   4.491   8.190 -1.0107 -0.1386 -0.8387
   26SAPC  H17R 3468   5.015   4.478   8.184 -0.9280 -1.1419  1.6319
   26SAPC  H17S 3469   4.874   4.402   8.250 -1.2926  0.0933 -0.6369
   26SAPC  C218 3470   4.858   4.615   8.267 -0.1594 -0.2212 -0.5297
   26SAPC  H18R 3471   4.747   4.621   8.270 -0.1414  0.0479 -0.3350
   26SAPC  H18S 3472   4.901   4.701   8.211  2.4375 -2.1197 -1.6191
   26SAPC  C219 3473   4.925   4.616   8.407  0.1638 -0.2698  0.4577
   26SAPC  H19R 3474   5.035   4.599   8.400  0.1162 -0.5104  0.3005
   26SAPC  H19S 3475   4.884   4.541   8.478 -1.6063 -0.6917 -0.9376
   26SAPC  C220 3476   4.917   4.757   8.473 -0.3781  1.0473  0.7393
   26SAPC  H20R 3477   4.819   4.807   8.464 -0.1275  1.6711  1.3313
   26SAPC  H20S 3478   4.982   4.825   8.414 -1.1497  4.4034  3.3901
   26SAPC  H20T 3479   4.959   4.753   8.576  3.8042 -1.9569 -0.8021
   26SAPC   C33 3480   4.733   4.104   7.069 -0.4935  0.3649 -0.5802
   26SAPC   H3X 3481   4.788   4.200   7.083  2.2249 -1.1427 -0.1111
   26SAPC   H3Y 3482   4.786   4.021   7.016 -0.8900 -0.2763  0.0055
   26SAPC   C34 3483   4.714   4.051   7.211  0.0351 -0.2015  0.1611
   26SAPC   H4X 3484   4.635   3.972   7.212 -0.2313  0.0610  1.1825
   26SAPC   H4Y 3485   4.688   4.145   7.263  3.2300  0.2147  1.2333
   26SAPC   C35 3486   4.855   3.999   7.242  1.3333  0.2798 -0.3019
   26SAPC   H5X 3487   4.929   4.076   7.211  0.1580  0.6899 -2.2401
   26SAPC   H5Y 3488   4.864   3.906   7.183  0.7795  0.6717 -1.0233
   26SAPC   C36 3489   4.868   3.988   7.390 -0.3998 -0.0068 -0.3895
   26SAPC   H6X 3490   4.786   3.922   7.425  1.5017 -2.7301 -0.7371
   26SAPC   H6Y 3491   4.855   4.085   7.441 -0.0147 -2.1916  4.4608
   26SAPC   C37 3492   5.008   3.937   7.430  0.1288 -0.3321 -0.3309
   26SAPC   H7X 3493   5.087   3.999   7.383  0.1467  0.7408  1.0410
   26SAPC   H7Y 3494   5.030   3.834   7.395  1.8374 -0.6504  1.4811
   26SAPC   C38 3495   5.036   3.939   7.584  0.3401  0.0812 -0.5540
   26SAPC   H8X 3496   5.028   4.041   7.628 -1.0888  0.0737 -0.7571
   26SAPC   H8Y 3497   5.136   3.902   7.616  0.2179 -0.1378 -0.4241
   26SAPC   C39 3498   4.935   3.858   7.662 -0.3870  0.2852 -0.3059
   26SAPC   H9X 3499   4.990   3.764   7.685  2.6141  1.7018 -1.1774
   26SAPC   H9Y 3500   4.844   3.832   7.604  0.0833  0.5799 -1.1935
   26SAPC  C310 3501   4.883   3.931   7.785  0.1615  0.6234  0.5975
   26SAPC  H10X 3502   4.828   4.020   7.747  0.8241  0.8615  0.1880
   26SAPC  H10Y 3503   4.968   3.972   7.843  0.1761  0.1748  0.8999
   26SAPC  C311 3504   4.793   3.842   7.868  0.4963  0.0212 -0.7408
   26SAPC  H11X 3505   4.852   3.752   7.895  0.3547  0.0036 -0.4870
   26SAPC  H11Y 3506   4.700   3.818   7.812  1.1576 -2.8243 -0.7266
   26SAPC  C312 3507   4.759   3.908   8.006 -0.1660  0.0175  0.3134
   26SAPC  H12X 3508   4.709   4.007   7.991 -0.8281 -0.6719 -2.6754
   26SAPC  H12Y 3509   4.855   3.908   8.062  0.5083 -2.7303 -0.7086
   26SAPC  C313 3510   4.667   3.815   8.084  0.0872 -0.3963 -0.1952
   26SAPC  H13X 3511   4.727   3.722   8.077  2.4439  1.0988 -0.7053
   26SAPC  H13Y 3512   4.575   3.804   8.021 -0.5395 -0.5440  0.7234
   26SAPC  C314 3513   4.617   3.870   8.222  0.1430 -0.0641 -0.3175
   26SAPC  H14X 3514   4.526   3.931   8.207  0.9892  0.7927 -2.4793
   26SAPC  H14Y 3515   4.692   3.937   8.270 -0.1229 -0.3122  0.4662
   26SAPC  C315 3516   4.589   3.757   8.326  0.2281 -0.2571  0.4364
   26SAPC  H15X 3517   4.689   3.710   8.334  0.9382  1.2185  0.4783
   26SAPC  H15Y 3518   4.513   3.694   8.275  1.1797  0.8053 -2.5146
   26SAPC  C316 3519   4.539   3.799   8.471  0.1337 -0.1030  0.9556
   26SAPC  H16X 3520   4.624   3.837   8.531  0.0843  0.4737  0.6591
   26SAPC  H16Y 3521   4.503   3.709   8.526  2.2617 -1.6801 -0.0764
   26SAPC  C317 3522   4.423   3.902   8.471 -0.0243 -0.0073 -0.5874
   26SAPC  H17X 3523   4.453   3.981   8.400 -0.2941 -0.4942 -1.2513
   26SAPC  H17Y 3524   4.425   3.947   8.573 -2.2380 -1.5405  0.2133
   26SAPC  C318 3525   4.285   3.835   8.445  0.3202 -0.6871 -0.0870
   26SAPC  H18X 3526   4.206   3.890   8.500  1.1332  0.8037 -0.3350
   26SAPC  H18Y 3527   4.290   3.733   8.487 -0.8945 -0.2022  1.3344
   26SAPC  H18Z 3528   4.274   3.828   8.335  0.8441  0.6559 -0.2507
   27SAPC     N 3529   3.452   6.154   6.652  0.7215 -0.2090 -0.4890
   27SAPC   C12 3530   3.344   6.055   6.693  0.0428  0.1236 -0.4269
   27SAPC  H12A 3531   3.384   5.955   6.684 -1.4464 -0.3293 -3.5041
   27SAPC  H12B 3532   3.269   6.058   6.615  1.1611 -1.2327 -1.6158
   27SAPC   C13 3533   3.568   6.126   6.743 -0.4597  0.2589 -0.5126
   27SAPC  H13A 3534   3.649   6.194   6.717  0.5181 -1.1544 -1.2885
   27SAPC  H13B 3535   3.547   6.139   6.849  0.1543 -0.3995 -0.3012
   27SAPC  H13C 3536   3.597   6.024   6.727 -0.6042 -0.5469  3.3666
   27SAPC   C14 3537   3.493   6.140   6.512 -0.1645  0.3701  0.1833
   27SAPC  H14A 3538   3.522   6.039   6.485 -1.8006 -0.5691  1.6985
   27SAPC  H14B 3539   3.413   6.173   6.447  0.3470 -1.9185 -1.7756
   27SAPC  H14C 3540   3.580   6.203   6.496 -0.6277  0.8765 -0.4110
   27SAPC   C15 3541   3.409   6.293   6.680 -0.2142  0.0111 -0.4703
   27SAPC  H15A 3542   3.385   6.307   6.784 -0.5394 -1.4837 -0.3220
   27SAPC  H15B 3543   3.495   6.354   6.656  1.7781 -3.2578 -2.3292
   27SAPC  H15C 3544   3.326   6.331   6.622 -0.0235  1.5533  0.2054
   27SAPC   C11 3545   3.271   6.059   6.833 -0.5112 -0.5269  0.4059
   27SAPC  H11A 3546   3.235   6.164   6.846 -0.3306 -0.6400  2.1237
   27SAPC  H11B 3547   3.343   6.042   6.916  0.7742 -0.5949 -0.6933
   27SAPC     P 3548   3.037   5.962   6.758 -0.0451 -0.3313  0.4326
   27SAPC   O13 3549   3.064   6.041   6.637 -0.6826 -0.0608 -0.3742
   27SAPC   O14 3550   2.983   5.829   6.757  0.3136  0.0613  0.0575
   27SAPC   O12 3551   3.163   5.958   6.852  0.0043 -0.2506  0.0116
   27SAPC   O11 3552   2.947   6.064   6.848  0.6899 -0.2246  0.2881
   27SAPC    C1 3553   2.906   6.022   6.975 -0.2007  0.0872  0.0366
   27SAPC    HA 3554   2.874   5.916   6.973 -1.8989  0.5764 -0.9000
   27SAPC    HB 3555   2.990   6.021   7.047 -0.9040 -1.7517  0.8765
   27SAPC    C2 3556   2.783   6.104   7.019  0.3647 -1.1818  0.2297
   27SAPC    HS 3557   2.807   6.207   6.986 -3.8248 -0.6281 -1.8382
   27SAPC   O21 3558   2.774   6.097   7.162  0.1321 -0.4496  0.4047
   27SAPC   C21 3559   2.839   6.183   7.230  0.0879 -0.4217  0.5341
   27SAPC   O22 3560   2.924   6.261   7.184  0.0369 -0.0942  0.3270
   27SAPC   C22 3561   2.801   6.164   7.375 -0.4170 -0.4340 -0.0237
   27SAPC   H2R 3562   2.690   6.168   7.386 -0.6509 -2.1908 -1.3381
   27SAPC   H2S 3563   2.831   6.062   7.407  0.9623  0.3070  1.1475
   27SAPC    C3 3564   2.646   6.080   6.948 -0.0346 -0.4878 -0.1593
   27SAPC    HX 3565   2.615   5.979   6.981  0.2848 -0.5816 -0.1491
   27SAPC    HY 3566   2.668   6.077   6.839  1.4007 -0.6056  0.1154
   27SAPC   O31 3567   2.547   6.180   6.974 -0.0129 -0.0483 -0.5228
   27SAPC   C31 3568   2.470   6.171   7.085 -0.2885  0.2252  0.0573
   27SAPC   O32 3569   2.463   6.070   7.155  0.3450 -0.3081  0.5348
   27SAPC   C32 3570   2.403   6.299   7.098 -0.2937 -0.3476 -1.0711
   27SAPC   H2X 3571   2.325   6.304   7.019  0.0465 -1.3612 -1.4956
   27SAPC   H2Y 3572   2.480   6.373   7.067 -1.2473  0.8137 -0.7150
   27SAPC   C23 3573   2.874   6.254   7.480  0.3238 -0.3141  0.9112
   27SAPC   H3R 3574   2.811   6.345   7.493 -0.0672 -0.4211 -0.1012
   27SAPC   H3S 3575   2.979   6.256   7.445 -0.0255 -1.4708 -0.2798
   27SAPC   C24 3576   2.886   6.193   7.620  0.1603  0.7327  0.7003
   27SAPC   H4R 3577   2.934   6.093   7.614 -0.8871  0.2490  0.0181
   27SAPC   H4S 3578   2.784   6.175   7.661  0.4624 -2.4653  0.2536
   27SAPC   C25 3579   2.964   6.277   7.716 -0.2516  0.5116 -0.1275
   27SAPC   H5R 3580   3.018   6.357   7.663  0.0491 -1.1022 -2.3773
   27SAPC   C26 3581   2.966   6.283   7.851 -0.1258  0.2902 -0.1698
   27SAPC   H6R 3582   3.028   6.359   7.902  0.5274 -0.9352  0.9493
   27SAPC   C27 3583   2.887   6.195   7.939 -0.2584  0.3306  0.4326
   27SAPC   H7R 3584   2.843   6.114   7.877 -0.5347 -0.0653  1.1369
   27SAPC   H7S 3585   2.799   6.250   7.977 -0.1560  0.8192 -0.0391
   27SAPC   C28 3586   2.973   6.128   8.043  0.2542 -0.3359 -0.2524
   27SAPC   H8R 3587   3.033   6.043   8.008  1.0288  0.4060 -0.7813
   27SAPC   C29 3588   2.994   6.166   8.172  0.2418  0.1343 -0.2223
   27SAPC   H9R 3589   3.065   6.101   8.226 -0.1725 -0.5991 -0.5367
   27SAPC  C210 3590   2.928   6.276   8.243 -0.1528  0.2741 -0.7918
   27SAPC  H10R 3591   2.888   6.257   8.345 -0.5467 -0.1522 -1.0235
   27SAPC  H10S 3592   2.847   6.320   8.180 -0.2508  0.9334 -0.2290
   27SAPC  C211 3593   3.034   6.377   8.260 -0.4702  0.4828  0.4024
   27SAPC  H11R 3594   3.076   6.419   8.167  2.0281 -1.8468  0.3683
   27SAPC  C212 3595   3.088   6.436   8.372  0.3761  0.0384 -0.4059
   27SAPC  H12R 3596   3.169   6.509   8.367  0.9189 -0.3836  1.4111
   27SAPC  C213 3597   3.054   6.406   8.514  0.2698  0.0455 -0.8605
   27SAPC  H13R 3598   2.956   6.355   8.522 -0.1711  1.0820  0.8678
   27SAPC  H13S 3599   3.044   6.500   8.571 -1.6275 -1.3090  1.2357
   27SAPC  C214 3600   3.151   6.327   8.590  0.2013 -0.6370 -0.4966
   27SAPC  H14R 3601   3.240   6.306   8.530  0.6650  2.4227 -1.0720
   27SAPC  C215 3602   3.141   6.286   8.720 -0.1571 -0.4494  0.2740
   27SAPC  H15R 3603   3.218   6.218   8.760 -1.5220 -1.0771  1.9381
   27SAPC  C216 3604   3.019   6.301   8.816 -0.2529 -0.2586  0.1780
   27SAPC  H16R 3605   2.995   6.202   8.862  2.6619 -0.1371  2.2948
   27SAPC  H16S 3606   2.927   6.323   8.759  0.2853 -0.8229 -0.9452
   27SAPC  C217 3607   3.050   6.405   8.930  0.7034  0.6536 -0.5054
   27SAPC  H17R 3608   3.080   6.500   8.882 -1.1375  1.0136 -1.0305
   27SAPC  H17S 3609   3.138   6.369   8.987 -0.9215 -1.1571  1.0303
   27SAPC  C218 3610   2.922   6.424   9.022  0.0780  0.1766 -0.2319
   27SAPC  H18R 3611   2.890   6.332   9.075 -1.6017  1.0456  0.3042
   27SAPC  H18S 3612   2.839   6.458   8.956 -1.0633 -0.2144  0.9691
   27SAPC  C219 3613   2.944   6.537   9.126 -0.3610 -0.5687 -0.2299
   27SAPC  H19R 3614   2.849   6.560   9.179  0.0437 -0.6765  0.5636
   27SAPC  H19S 3615   2.966   6.632   9.073  0.2997 -0.2893  0.5092
   27SAPC  C220 3616   3.057   6.523   9.232  0.0105 -0.5760  0.2071
   27SAPC  H20R 3617   3.042   6.614   9.293 -2.8286  0.6277 -2.0100
   27SAPC  H20S 3618   3.153   6.515   9.177  0.5913 -1.6294  1.3371
   27SAPC  H20T 3619   3.032   6.438   9.299 -0.8430  0.1391  0.8243
   27SAPC   C33 3620   2.339   6.331   7.239 -0.7588  0.6523  0.3366
   27SAPC   H3X 3621   2.283   6.237   7.259 -0.9599  0.0521 -2.6124
   27SAPC   H3Y 3622   2.262   6.410   7.232 -1.1157  0.1945 -1.6044
   27SAPC   C34 3623   2.457   6.359   7.341 -0.3060  0.5879  0.1015
   27SAPC   H4X 3624   2.534   6.424   7.296 -2.9792  2.1198 -2.7116
   27SAPC   H4Y 3625   2.504   6.258   7.338 -1.1215  0.1376  1.6027
   27SAPC   C35 3626   2.404   6.376   7.484 -0.6103  0.1221  0.0297
   27SAPC   H5X 3627   2.321   6.307   7.511 -1.6053  1.3748  0.3111
   27SAPC   H5Y 3628   2.351   6.474   7.491  1.4310  1.5040 -2.3209
   27SAPC   C36 3629   2.518   6.367   7.585 -0.3545 -0.1422 -0.0386
   27SAPC   H6X 3630   2.576   6.461   7.594 -0.9089  0.0394  2.1178
   27SAPC   H6Y 3631   2.592   6.290   7.553 -0.9286  0.2104 -2.4620
   27SAPC   C37 3632   2.449   6.337   7.719  0.0719  0.3269 -0.3051
   27SAPC   H7X 3633   2.430   6.229   7.736 -1.3452  0.4716 -0.8325
   27SAPC   H7Y 3634   2.347   6.381   7.720  0.4625  1.3228 -1.5168
   27SAPC   C38 3635   2.522   6.374   7.848 -0.5487  0.1072 -0.2705
   27SAPC   H8X 3636   2.546   6.482   7.855  0.6741 -0.2167  0.9021
   27SAPC   H8Y 3637   2.621   6.323   7.848 -0.9528 -0.7090 -0.9293
   27SAPC   C39 3638   2.460   6.338   7.982 -0.2373 -0.3494 -0.5466
   27SAPC   H9X 3639   2.471   6.229   7.995  1.5953 -0.1860 -0.4660
   27SAPC   H9Y 3640   2.355   6.372   7.996  0.4225  0.4242  3.8331
   27SAPC  C310 3641   2.540   6.393   8.103 -0.8817 -0.3057 -0.0030
   27SAPC  H10X 3642   2.526   6.503   8.106  0.1806 -0.1474 -0.4238
   27SAPC  H10Y 3643   2.649   6.374   8.094 -0.6156  0.7048  0.8768
   27SAPC  C311 3644   2.491   6.328   8.230  0.0924  0.0612 -0.0656
   27SAPC  H11X 3645   2.479   6.218   8.225 -3.3958  0.2919  0.6408
   27SAPC  H11Y 3646   2.384   6.353   8.246 -0.7927 -1.1452 -3.2354
   27SAPC  C312 3647   2.563   6.379   8.353  0.7560  0.1759  0.1639
   27SAPC  H12X 3648   2.581   6.487   8.335 -0.3255  0.4561  0.7006
   27SAPC  H12Y 3649   2.659   6.324   8.369 -0.1425 -0.8712  2.3811
   27SAPC  C313 3650   2.482   6.372   8.482  0.6412  0.0377 -0.3753
   27SAPC  H13X 3651   2.438   6.270   8.488 -0.8100  0.7080  1.7562
   27SAPC  H13Y 3652   2.410   6.456   8.497  0.8230  0.4432 -1.6973
   27SAPC  C314 3653   2.569   6.379   8.607  0.3830  0.6227  0.9009
   27SAPC  H14X 3654   2.629   6.472   8.594  1.5835 -0.5562 -3.6867
   27SAPC  H14Y 3655   2.635   6.290   8.599 -2.2092 -1.4116  0.8552
   27SAPC  C315 3656   2.490   6.382   8.739 -0.6776 -0.4498  0.0065
   27SAPC  H15X 3657   2.397   6.442   8.741  0.3496  1.2127 -0.3514
   27SAPC  H15Y 3658   2.563   6.428   8.810 -2.3362 -0.4235  1.7786
   27SAPC  C316 3659   2.432   6.247   8.787  0.0117  0.4392  1.0347
   27SAPC  H16X 3660   2.521   6.183   8.807 -0.7574 -0.6982  0.8907
   27SAPC  H16Y 3661   2.385   6.192   8.703 -0.4877 -1.1908  2.3311
   27SAPC  C317 3662   2.341   6.242   8.914 -0.3380 -0.5295  0.7500
   27SAPC  H17X 3663   2.329   6.136   8.944  0.4582 -1.0300 -0.6171
   27SAPC  H17Y 3664   2.244   6.281   8.879 -0.2800  0.0815  1.2342
   27SAPC  C318 3665   2.373   6.332   9.030  0.0720  0.3036  0.5803
   27SAPC  H18X 3666   2.459   6.285   9.082  0.8712  0.8144 -0.2564
   27SAPC  H18Y 3667   2.295   6.343   9.108 -0.8896  0.9847 -0.4500
   27SAPC  H18Z 3668   2.410   6.434   9.008 -2.8560  1.2656 -0.3285
   28SAPC     N 3669   0.766   3.905   6.570  0.4510  0.1362 -0.0235
   28SAPC   C12 3670   0.765   3.809   6.687  0.5438  0.0781  0.3178
   28SAPC  H12A 3671   0.682   3.830   6.753  1.9101  1.3326  1.7099
   28SAPC  H12B 3672   0.846   3.830   6.755  0.0329 -3.4481  2.2047
   28SAPC   C13 3673   0.881   3.897   6.478  0.1136 -0.1922 -0.4385
   28SAPC  H13A 3674   0.963   3.935   6.537 -0.3358 -1.6506  1.2011
   28SAPC  H13B 3675   0.897   3.796   6.442  0.4742 -0.9883  1.7723
   28SAPC  H13C 3676   0.862   3.969   6.400 -2.0559  1.2313  1.2789
   28SAPC   C14 3677   0.648   3.872   6.488 -0.6861 -0.3385 -0.0385
   28SAPC  H14A 3678   0.658   3.771   6.453  1.5290 -0.2818  0.2647
   28SAPC  H14B 3679   0.554   3.887   6.541 -1.4423 -0.3432 -1.3482
   28SAPC  H14C 3680   0.641   3.934   6.400 -0.1393 -0.5908 -0.2571
   28SAPC   C15 3681   0.755   4.048   6.623  0.1707 -0.1837 -0.1526
   28SAPC  H15A 3682   0.837   4.067   6.691 -0.6110 -0.2891  0.8441
   28SAPC  H15B 3683   0.760   4.110   6.535  2.9586 -1.3440 -0.9229
   28SAPC  H15C 3684   0.670   4.068   6.687 -1.0164 -3.3384 -0.5962
   28SAPC   C11 3685   0.768   3.659   6.651 -0.0169 -0.4315  0.2585
   28SAPC  H11A 3686   0.679   3.637   6.589 -2.1779  2.1456  2.2057
   28SAPC  H11B 3687   0.758   3.606   6.748  0.7338 -0.8535  0.1094
   28SAPC     P 3688   0.933   3.489   6.533 -0.0235 -0.1988  0.1608
   28SAPC   O13 3689   0.825   3.389   6.572 -0.7218 -0.2617  0.6618
   28SAPC   O14 3690   0.954   3.496   6.389  0.1092  0.2084  0.5298
   28SAPC   O12 3691   0.890   3.634   6.582  0.0144 -0.0769  0.2494
   28SAPC   O11 3692   1.074   3.457   6.611  0.4127 -1.1273  0.1244
   28SAPC    C1 3693   1.113   3.549   6.721  1.1454  0.7350  0.3449
   28SAPC    HA 3694   1.224   3.554   6.727  1.1717  1.4743 -0.5395
   28SAPC    HB 3695   1.086   3.655   6.703 -1.3942  0.2893  1.1752
   28SAPC    C2 3696   1.061   3.500   6.855  0.7005 -0.3114 -1.1051
   28SAPC    HS 3697   0.950   3.497   6.854  0.6101  0.3326  1.0617
   28SAPC   O21 3698   1.105   3.594   6.961  0.9344  0.2768 -0.1075
   28SAPC   C21 3699   1.053   3.714   6.970  0.8091 -0.0819  0.4941
   28SAPC   O22 3700   0.968   3.762   6.896 -0.3753  0.5179  0.0031
   28SAPC   C22 3701   1.118   3.798   7.087  0.1708  0.3089 -0.0366
   28SAPC   H2R 3702   1.228   3.783   7.078  0.3366 -0.4620  2.5414
   28SAPC   H2S 3703   1.081   3.900   7.066 -1.9011 -0.4472 -0.2627
   28SAPC    C3 3704   1.123   3.362   6.884  0.3826  0.2811  0.5967
   28SAPC    HX 3705   1.230   3.369   6.853  0.3709  0.5451  0.6078
   28SAPC    HY 3706   1.077   3.288   6.815 -1.0295  1.3195  0.3676
   28SAPC   O31 3707   1.126   3.317   7.022  0.0602 -0.2574  0.0724
   28SAPC   C31 3708   1.011   3.267   7.063  0.8750  0.4465 -0.0909
   28SAPC   O32 3709   0.916   3.238   6.997 -0.2347  0.3915  0.1208
   28SAPC   C32 3710   1.027   3.241   7.213 -0.3965 -0.1195  0.1189
   28SAPC   H2X 3711   1.129   3.273   7.245  0.1860 -2.2749  0.5926
   28SAPC   H2Y 3712   1.025   3.130   7.226  2.6891 -0.0239  2.4411
   28SAPC   C23 3713   1.078   3.747   7.227  0.8924 -0.1710  0.4898
   28SAPC   H3R 3714   1.140   3.661   7.260  0.5544  0.0582  1.7753
   28SAPC   H3S 3715   0.975   3.705   7.216  0.1634  1.5391  0.5212
   28SAPC   C24 3716   1.069   3.863   7.329 -0.1460  0.0357  0.4244
   28SAPC   H4R 3717   1.015   3.950   7.285  0.5033 -0.1896 -0.8660
   28SAPC   H4S 3718   1.009   3.844   7.420 -2.7971  3.2727 -0.4327
   28SAPC   C25 3719   1.208   3.905   7.368  0.1039  0.6363 -0.1456
   28SAPC   H5R 3720   1.270   3.919   7.278  0.3497  0.3462 -0.0221
   28SAPC   C26 3721   1.265   3.915   7.494 -0.7257  0.2611 -0.3205
   28SAPC   H6R 3722   1.371   3.945   7.498 -0.0801 -1.9954  1.2058
   28SAPC   C27 3723   1.195   3.888   7.624 -0.1891  0.0521 -0.2038
   28SAPC   H7R 3724   1.275   3.855   7.693  0.4284  0.8604 -0.5108
   28SAPC   H7S 3725   1.118   3.809   7.611 -1.0392  0.7488  0.4544
   28SAPC   C28 3726   1.123   4.007   7.690 -0.0040  0.7372 -0.0474
   28SAPC   H8R 3727   1.030   4.041   7.642 -0.3007  0.0874  0.0449
   28SAPC   C29 3728   1.138   4.047   7.819  0.3784  0.1305 -0.6856
   28SAPC   H9R 3729   1.083   4.137   7.851 -0.2476 -0.1799 -0.8800
   28SAPC  C210 3730   1.234   4.011   7.924 -0.4064  0.5647 -0.2854
   28SAPC  H10R 3731   1.250   4.095   7.995  0.0423  0.9315 -0.8197
   28SAPC  H10S 3732   1.329   3.994   7.870 -0.0561  1.0930  0.1609
   28SAPC  C211 3733   1.178   3.890   8.004 -0.6422 -0.2050 -0.3940
   28SAPC  H11R 3734   1.182   3.796   7.945  0.0646 -1.4964  1.6263
   28SAPC  C212 3735   1.130   3.885   8.136  0.0489 -0.6946 -0.2904
   28SAPC  H12R 3736   1.098   3.787   8.174 -1.1187  0.2753  1.3521
   28SAPC  C213 3737   1.113   4.007   8.228  0.0110 -0.0961  0.5509
   28SAPC  H13R 3738   1.056   3.974   8.317  0.1621  1.1929  1.1527
   28SAPC  H13S 3739   1.053   4.084   8.175 -0.0006 -1.5849 -1.7079
   28SAPC  C214 3740   1.240   4.077   8.281  0.9124 -0.2817 -0.4448
   28SAPC  H14R 3741   1.261   4.167   8.221  1.5226 -0.1464 -0.0370
   28SAPC  C215 3742   1.326   4.037   8.376 -0.2285 -0.3066 -0.1547
   28SAPC  H15R 3743   1.416   4.094   8.403  0.0694  0.1921 -2.0237
   28SAPC  C216 3744   1.316   3.905   8.452  0.2137  0.9258 -0.6080
   28SAPC  H16R 3745   1.415   3.867   8.483  1.4256 -0.4681 -5.4459
   28SAPC  H16S 3746   1.296   3.828   8.374  3.0605  0.6910 -1.2153
   28SAPC  C217 3747   1.207   3.901   8.565  0.9097  1.0329  0.2515
   28SAPC  H17R 3748   1.156   3.802   8.577  0.7799  1.2946  2.1160
   28SAPC  H17S 3749   1.117   3.961   8.541  0.3345  0.2764  0.4462
   28SAPC  C218 3750   1.258   3.945   8.705  0.4251  0.7273 -0.0682
   28SAPC  H18R 3751   1.301   4.047   8.694  0.4958  0.7430  0.3486
   28SAPC  H18S 3752   1.345   3.880   8.727 -1.3164 -1.3767  1.0469
   28SAPC  C219 3753   1.153   3.943   8.819  0.3244  0.2612  0.4018
   28SAPC  H19R 3754   1.100   3.846   8.829  0.1726  0.5970  3.9384
   28SAPC  H19S 3755   1.080   4.021   8.787 -0.3063  0.1085  1.4489
   28SAPC  C220 3756   1.193   3.969   8.968  0.8955 -0.4076  0.5759
   28SAPC  H20R 3757   1.097   3.959   9.024 -0.1985  0.4521 -1.0403
   28SAPC  H20S 3758   1.233   4.072   8.977  2.5253 -1.1885  3.9066
   28SAPC  H20T 3759   1.254   3.884   9.004  1.7473  0.6905  1.7996
   28SAPC   C33 3760   0.921   3.302   7.297  0.2845 -0.4865  0.0139
   28SAPC   H3X 3761   0.897   3.230   7.378  0.1387 -0.0030  0.4054
   28SAPC   H3Y 3762   0.823   3.336   7.256  0.7607  0.6424 -0.2445
   28SAPC   C34 3763   0.971   3.428   7.370  0.3869  0.4444 -1.2789
   28SAPC   H4X 3764   0.970   3.523   7.312  1.9404  0.5562 -1.1558
   28SAPC   H4Y 3765   1.074   3.400   7.399 -0.1898  0.4805  0.9269
   28SAPC   C35 3766   0.892   3.452   7.496  0.0884 -0.6433 -0.6888
   28SAPC   H5X 3767   0.909   3.373   7.572  1.3384  0.9082  0.7312
   28SAPC   H5Y 3768   0.786   3.454   7.462 -0.0234 -1.3817 -0.3960
   28SAPC   C36 3769   0.939   3.588   7.567 -0.0647  1.1075  0.1454
   28SAPC   H6X 3770   0.940   3.660   7.481  0.4768  1.1522  0.1856
   28SAPC   H6Y 3771   1.040   3.575   7.610 -0.0061 -0.1927 -0.3421
   28SAPC   C37 3772   0.833   3.638   7.669  0.0247 -0.2997 -0.0216
   28SAPC   H7X 3773   0.729   3.625   7.632  0.4318  0.6439 -1.6358
   28SAPC   H7Y 3774   0.856   3.743   7.699 -2.3165  0.2492  0.0294
   28SAPC   C38 3775   0.847   3.556   7.797  0.1607 -0.2690  0.2419
   28SAPC   H8X 3776   0.956   3.559   7.821  0.4990 -0.1168 -1.2436
   28SAPC   H8Y 3777   0.815   3.455   7.765  0.2766 -0.1230 -0.3354
   28SAPC   C39 3778   0.750   3.590   7.907 -0.3939 -1.0523 -0.3051
   28SAPC   H9X 3779   0.732   3.503   7.974 -2.3308 -0.7063 -0.3273
   28SAPC   H9Y 3780   0.657   3.628   7.860  0.6218  1.2599 -0.5948
   28SAPC  C310 3781   0.801   3.709   7.984 -0.0123 -0.3512 -0.3681
   28SAPC  H10X 3782   0.819   3.794   7.914  2.3596 -1.1311 -0.7852
   28SAPC  H10Y 3783   0.905   3.692   8.019  0.1736  1.9555  0.4268
   28SAPC  C311 3784   0.713   3.740   8.103 -0.1956  0.6530 -0.2479
   28SAPC  H11X 3785   0.728   3.652   8.168  2.7733 -1.6354 -3.6206
   28SAPC  H11Y 3786   0.605   3.743   8.075 -0.4127 -0.9493  0.3355
   28SAPC  C312 3787   0.757   3.869   8.175 -0.0195 -1.3667 -0.2316
   28SAPC  H12X 3788   0.728   3.960   8.118  1.8250 -0.7307 -0.2211
   28SAPC  H12Y 3789   0.868   3.873   8.173 -0.0515 -0.1895 -2.1838
   28SAPC  C313 3790   0.684   3.882   8.315 -0.1438 -0.6139  0.1713
   28SAPC  H13X 3791   0.699   3.793   8.380 -1.0344  2.0974  4.4790
   28SAPC  H13Y 3792   0.575   3.889   8.295  0.3739 -0.0542 -3.1903
   28SAPC  C314 3793   0.741   4.004   8.401  0.0615  0.2071 -0.8294
   28SAPC  H14X 3794   0.758   4.093   8.337  2.5443 -0.0194 -0.6001
   28SAPC  H14Y 3795   0.845   3.967   8.412 -0.2018 -0.0217  1.1628
   28SAPC  C315 3796   0.685   4.027   8.536  0.0273  0.0036  0.1544
   28SAPC  H15X 3797   0.670   3.925   8.576 -2.8900  0.3421  0.1009
   28SAPC  H15Y 3798   0.584   4.072   8.527 -0.5132 -1.2846 -0.4437
   28SAPC  C316 3799   0.784   4.095   8.635 -0.3399  0.3701  0.4369
   28SAPC  H16X 3800   0.814   4.192   8.591 -1.7353  1.0855  0.9935
   28SAPC  H16Y 3801   0.879   4.039   8.642 -0.3967  0.2576  0.3171
   28SAPC  C317 3802   0.733   4.126   8.775  0.5863 -0.4800 -0.3056
   28SAPC  H17X 3803   0.816   4.181   8.824  0.6507 -1.4376  0.6731
   28SAPC  H17Y 3804   0.712   4.036   8.835 -1.0397  0.5546  0.7538
   28SAPC  C318 3805   0.607   4.211   8.774 -0.2259  0.5397 -0.6555
   28SAPC  H18X 3806   0.577   4.220   8.880  1.9217  0.3670 -0.0004
   28SAPC  H18Y 3807   0.525   4.157   8.722 -0.9409 -1.3394  2.2467
   28SAPC  H18Z 3808   0.626   4.315   8.738  1.3610  0.7611  0.7215
   29SAPC     N 3809   5.029   5.532   6.002 -0.8731 -0.3983 -0.3842
   29SAPC   C12 3810   5.092   5.521   6.136 -0.5429  0.1818 -0.3344
   29SAPC  H12A 3811   5.192   5.561   6.127  1.0729 -3.3772  0.0740
   29SAPC  H12B 3812   5.107   5.418   6.166 -0.2769 -0.3062 -2.0586
   29SAPC   C13 3813   5.003   5.674   5.964 -0.0381  0.1627  0.1629
   29SAPC  H13A 3814   4.916   5.710   6.018 -1.2685 -2.1601 -0.1511
   29SAPC  H13B 3815   5.088   5.735   5.990 -0.0479  0.0550  0.4480
   29SAPC  H13C 3816   4.984   5.691   5.859  0.9944  1.0334  0.1013
   29SAPC   C14 3817   5.125   5.480   5.898 -0.6281 -0.4534  0.0649
   29SAPC  H14A 3818   5.156   5.377   5.914 -2.3945 -1.1256 -0.5042
   29SAPC  H14B 3819   5.074   5.481   5.803 -2.2556  0.0884  0.9039
   29SAPC  H14C 3820   5.215   5.537   5.888  0.8718 -2.3403  1.9026
   29SAPC   C15 3821   4.904   5.457   5.994 -0.4094  0.2550  0.0119
   29SAPC  H15A 3822   4.860   5.468   5.896 -0.4174  0.9295  0.0859
   29SAPC  H15B 3823   4.923   5.351   6.005 -1.5686 -0.0810 -0.9538
   29SAPC  H15C 3824   4.833   5.479   6.072  0.8937  2.1935  0.7349
   29SAPC   C11 3825   5.000   5.578   6.247  0.0233 -0.0667 -0.0830
   29SAPC  H11A 3826   4.964   5.682   6.227 -0.8234 -0.3634 -0.1470
   29SAPC  H11B 3827   5.072   5.593   6.330 -0.5330 -0.2767  0.4492
   29SAPC     P 3828   4.913   5.389   6.403  0.4537 -0.0738 -0.2463
   29SAPC   O13 3829   4.791   5.305   6.399 -0.4592  0.8918  0.2571
   29SAPC   O14 3830   5.040   5.314   6.391 -0.6247  0.4133 -0.6334
   29SAPC   O12 3831   4.890   5.489   6.280  1.0760  0.1103 -0.7951
   29SAPC   O11 3832   4.907   5.475   6.531 -0.1932 -0.4557 -0.1161
   29SAPC    C1 3833   4.810   5.587   6.535 -0.6534  1.0998  1.0689
   29SAPC    HA 3834   4.863   5.674   6.489 -1.3542  2.4766  2.7368
   29SAPC    HB 3835   4.722   5.572   6.469 -0.9744 -1.4736  2.0038
   29SAPC    C2 3836   4.772   5.629   6.681 -0.1568  0.2096  0.7791
   29SAPC    HS 3837   4.699   5.712   6.679 -0.8797 -0.4266 -0.4796
   29SAPC   O21 3838   4.894   5.667   6.750  0.1435 -0.0419 -0.1707
   29SAPC   C21 3839   4.945   5.789   6.732  0.5044  0.2507 -0.2374
   29SAPC   O22 3840   4.905   5.872   6.649 -0.0427 -0.0235  0.4577
   29SAPC   C22 3841   5.059   5.808   6.827 -0.2092 -0.1618 -0.2868
   29SAPC   H2R 3842   5.061   5.717   6.891  0.9215 -0.8312 -1.2341
   29SAPC   H2S 3843   5.150   5.820   6.764 -0.2520  0.9086 -0.1589
   29SAPC    C3 3844   4.698   5.514   6.763 -0.5967 -0.6452 -0.2141
   29SAPC    HX 3845   4.773   5.432   6.756 -1.2603 -1.2206 -0.7635
   29SAPC    HY 3846   4.602   5.495   6.712 -2.1696  1.3116  1.8175
   29SAPC   O31 3847   4.667   5.551   6.900  0.8298  0.4202 -0.1849
   29SAPC   C31 3848   4.690   5.452   6.981 -0.0550  0.4651 -0.1101
   29SAPC   O32 3849   4.715   5.339   6.948 -0.1106 -0.0164  0.3391
   29SAPC   C32 3850   4.688   5.499   7.125  0.1175 -0.2046  0.1706
   29SAPC   H2X 3851   4.693   5.409   7.191 -0.1347 -1.3603 -1.3252
   29SAPC   H2Y 3852   4.598   5.564   7.126 -0.2006 -0.6399  0.1712
   29SAPC   C23 3853   5.044   5.939   6.907 -0.2567  0.1302 -0.1134
   29SAPC   H3R 3854   5.020   6.026   6.841  2.8078  1.0854 -0.1007
   29SAPC   H3S 3855   5.142   5.957   6.955  0.4177 -3.3360  0.0185
   29SAPC   C24 3856   4.940   5.928   7.023  0.0616 -0.3666  0.2020
   29SAPC   H4R 3857   4.955   5.828   7.071  1.9252  0.7063  2.0037
   29SAPC   H4S 3858   4.841   5.919   6.974  1.0420 -2.4547 -1.5761
   29SAPC   C25 3859   4.946   6.047   7.117 -0.2703 -0.1709  0.0809
   29SAPC   H5R 3860   4.893   6.136   7.080  2.6557  0.6207 -2.6680
   29SAPC   C26 3861   4.987   6.042   7.245 -0.3114 -0.1718  0.3710
   29SAPC   H6R 3862   4.989   6.136   7.302  0.4705  0.7740 -1.1553
   29SAPC   C27 3863   5.046   5.913   7.300 -0.3746 -0.8147 -0.1595
   29SAPC   H7R 3864   5.013   5.819   7.251 -0.6174 -1.0242  0.3951
   29SAPC   H7S 3865   5.008   5.892   7.402 -0.6096  0.8155  0.1115
   29SAPC   C28 3866   5.197   5.918   7.300 -0.5222 -0.2543  0.7939
   29SAPC   H8R 3867   5.262   5.944   7.215  0.1522  0.8760  1.6304
   29SAPC   C29 3868   5.271   5.891   7.407 -0.8626  0.6910  0.7795
   29SAPC   H9R 3869   5.380   5.884   7.392 -0.9652  0.9802 -0.1184
   29SAPC  C210 3870   5.222   5.858   7.546 -0.1030 -0.0362  0.2684
   29SAPC  H10R 3871   5.301   5.789   7.584 -0.6374 -0.6900  0.2090
   29SAPC  H10S 3872   5.133   5.791   7.541  0.2179 -0.3890 -2.5661
   29SAPC  C211 3873   5.199   5.971   7.644 -0.9958 -0.1065 -0.3653
   29SAPC  H11R 3874   5.194   6.074   7.604  1.1501  0.1627 -0.0675
   29SAPC  C212 3875   5.216   5.951   7.777 -0.1726 -0.3435 -0.0441
   29SAPC  H12R 3876   5.211   6.035   7.848  0.3497 -2.0500  2.1342
   29SAPC  C213 3877   5.252   5.820   7.848 -0.2420  0.1848 -0.5879
   29SAPC  H13R 3878   5.233   5.733   7.781 -0.0491  0.8511 -1.5149
   29SAPC  H13S 3879   5.185   5.807   7.936  1.4738 -1.5371  0.5338
   29SAPC  C214 3880   5.397   5.818   7.882  0.0661  0.2455 -0.0484
   29SAPC  H14R 3881   5.456   5.783   7.796 -1.5926 -0.6690 -0.8526
   29SAPC  C215 3882   5.450   5.830   7.996  0.6846 -0.5444 -0.4747
   29SAPC  H15R 3883   5.559   5.812   8.005  0.4146 -1.1151  2.9678
   29SAPC  C216 3884   5.377   5.842   8.128  0.3810  0.0191 -0.3256
   29SAPC  H16R 3885   5.310   5.757   8.153 -0.9688  1.1665  0.1300
   29SAPC  H16S 3886   5.303   5.925   8.130 -0.3127 -0.4634 -2.7551
   29SAPC  C217 3887   5.470   5.856   8.252 -0.3010  0.2150 -0.3410
   29SAPC  H17R 3888   5.499   5.963   8.259  0.7362 -0.1043  0.5751
   29SAPC  H17S 3889   5.567   5.804   8.235 -0.8844 -0.6989 -1.0027
   29SAPC  C218 3890   5.417   5.814   8.380 -0.3310  0.1997  0.2805
   29SAPC  H18R 3891   5.359   5.721   8.363  2.2154 -1.7770  1.7546
   29SAPC  H18S 3892   5.346   5.886   8.427 -2.5695 -1.7222  0.0151
   29SAPC  C219 3893   5.529   5.779   8.478  0.0779  0.4353 -0.1264
   29SAPC  H19R 3894   5.597   5.713   8.419 -1.2198 -0.3112 -0.8412
   29SAPC  H19S 3895   5.497   5.718   8.565 -0.5569 -0.8637 -1.2367
   29SAPC  C220 3896   5.611   5.892   8.535  0.0103 -0.4606  0.2372
   29SAPC  H20R 3897   5.565   5.955   8.614  2.8046 -0.3061  1.8787
   29SAPC  H20S 3898   5.638   5.959   8.450  1.6666 -0.5018  0.6924
   29SAPC  H20T 3899   5.700   5.855   8.590 -0.8310 -1.5758  0.9072
   29SAPC   C33 3900   4.810   5.590   7.158  0.6858 -0.3781 -0.2474
   29SAPC   H3X 3901   4.792   5.621   7.263 -1.4054  0.6179 -0.8584
   29SAPC   H3Y 3902   4.793   5.681   7.096  1.6669  0.6435  0.9184
   29SAPC   C34 3903   4.947   5.533   7.146 -0.5569  0.3269  0.6454
   29SAPC   H4X 3904   5.025   5.609   7.121  0.8867 -1.2444  0.2158
   29SAPC   H4Y 3905   4.948   5.459   7.063  1.9851  2.0948 -1.0954
   29SAPC   C35 3906   4.994   5.445   7.257  0.9356  0.0828  0.6931
   29SAPC   H5X 3907   5.094   5.403   7.233  0.5624  0.6075 -2.1561
   29SAPC   H5Y 3908   4.922   5.361   7.265  0.9222  0.0054 -0.1415
   29SAPC   C36 3909   5.013   5.507   7.395 -0.5207  0.4154  0.2505
   29SAPC   H6X 3910   4.912   5.536   7.431  0.2006 -0.1977  2.9484
   29SAPC   H6Y 3911   5.073   5.601   7.392 -0.4848  0.3724 -0.7868
   29SAPC   C37 3912   5.067   5.402   7.488 -0.6832 -0.1222  0.7987
   29SAPC   H7X 3913   5.174   5.385   7.462 -0.1909  0.4649  2.3654
   29SAPC   H7Y 3914   5.002   5.312   7.477 -2.5143  1.2691 -0.3037
   29SAPC   C38 3915   5.072   5.447   7.637 -0.5908 -0.3604  0.2797
   29SAPC   H8X 3916   4.969   5.442   7.680 -0.6496  0.8154  0.3155
   29SAPC   H8Y 3917   5.103   5.554   7.641 -1.3784 -0.1163  0.0940
   29SAPC   C39 3918   5.153   5.369   7.735  0.5098 -0.2503 -0.4292
   29SAPC   H9X 3919   5.251   5.343   7.691  1.0544 -0.3743  0.8046
   29SAPC   H9Y 3920   5.104   5.272   7.758  0.0581  0.2908  1.0439
   29SAPC  C310 3921   5.172   5.444   7.862 -0.7339  0.5438  0.0077
   29SAPC  H10X 3922   5.073   5.486   7.887 -1.2948 -0.2952 -0.7449
   29SAPC  H10Y 3923   5.249   5.523   7.848  1.3595 -0.5118  4.1016
   29SAPC  C311 3924   5.223   5.345   7.971 -0.6500 -0.3825  0.5124
   29SAPC  H11X 3925   5.322   5.304   7.940 -0.1759  1.3502 -0.4054
   29SAPC  H11Y 3926   5.162   5.254   7.989 -3.3489  0.5522 -2.9387
   29SAPC  C312 3927   5.261   5.421   8.102  0.2335 -0.5285  0.4668
   29SAPC  H12X 3928   5.169   5.472   8.136  1.3672  2.3437 -0.4961
   29SAPC  H12Y 3929   5.341   5.494   8.075  1.1731 -1.4419  0.7273
   29SAPC  C313 3930   5.320   5.339   8.223  0.5937  0.3082 -0.5050
   29SAPC  H13X 3931   5.410   5.280   8.197 -0.4406 -1.5174 -0.1450
   29SAPC  H13Y 3932   5.244   5.269   8.265  0.3023  0.3160 -1.0112
   29SAPC  C314 3933   5.373   5.426   8.333  0.0409  0.1743 -0.1790
   29SAPC  H14X 3934   5.291   5.494   8.365  0.3342  0.2139  0.5159
   29SAPC  H14Y 3935   5.448   5.495   8.290 -0.3399  0.1037 -0.9703
   29SAPC  C315 3936   5.436   5.363   8.459 -0.2622  0.4128 -0.1368
   29SAPC  H15X 3937   5.525   5.306   8.427 -0.8087  0.3559 -1.6475
   29SAPC  H15Y 3938   5.361   5.291   8.498  0.7976  0.8940  3.0660
   29SAPC  C316 3939   5.479   5.456   8.565  0.4806 -0.6641  0.3511
   29SAPC  H16X 3940   5.396   5.528   8.582 -1.2071 -2.0135 -1.7776
   29SAPC  H16Y 3941   5.561   5.506   8.508  0.5716  2.2280  2.7537
   29SAPC  C317 3942   5.531   5.388   8.689 -0.5286  0.1642 -0.0708
   29SAPC  H17X 3943   5.597   5.300   8.670  1.9374  1.8713  0.1920
   29SAPC  H17Y 3944   5.439   5.360   8.744 -2.9359  0.3589 -3.6484
   29SAPC  C318 3945   5.592   5.490   8.789  0.5319 -0.3043 -0.1656
   29SAPC  H18X 3946   5.590   5.455   8.894  2.4296 -2.2313 -0.6934
   29SAPC  H18Y 3947   5.531   5.582   8.776  0.1466 -0.4445  0.6085
   29SAPC  H18Z 3948   5.696   5.523   8.765  0.3031 -0.5501 -1.5761
   30SAPC     N 3949   5.685   0.148   6.195 -0.4899  0.3207 -0.0388
   30SAPC   C12 3950   5.704   0.040   6.303  0.1968  0.5497  0.5842
   30SAPC  H12A 3951   5.765   0.076   6.385 -0.6045 -1.5174  2.1810
   30SAPC  H12B 3952   5.759  -0.039   6.254  0.6471  0.8187  0.6452
   30SAPC   C13 3953   5.592   0.254   6.239  0.2773  0.1411  0.3255
   30SAPC  H13A 3954   5.608   0.281   6.343 -1.3493  3.9178 -0.2476
   30SAPC  H13B 3955   5.598   0.343   6.179  0.8419  0.2925  0.6015
   30SAPC  H13C 3956   5.489   0.222   6.241  0.6461 -1.1017  0.8560
   30SAPC   C14 3957   5.811   0.222   6.154 -0.0737 -0.1570  0.2495
   30SAPC  H14A 3958   5.867   0.250   6.242 -2.3674  0.8904  1.4656
   30SAPC  H14B 3959   5.870   0.161   6.088 -0.0582  0.4811 -0.3355
   30SAPC  H14C 3960   5.788   0.313   6.100 -0.8482 -0.2394  0.4213
   30SAPC   C15 3961   5.636   0.084   6.070  0.0873  0.5918  0.5563
   30SAPC  H15A 3962   5.614   0.162   5.998 -1.8369 -0.4382 -0.0550
   30SAPC  H15B 3963   5.708   0.019   6.024 -1.1048  0.4156 -1.1455
   30SAPC  H15C 3964   5.546   0.028   6.091 -0.7358  2.0530  1.0897
   30SAPC   C11 3965   5.581  -0.016   6.371 -0.1560  1.0140 -0.7242
   30SAPC  H11A 3966   5.522   0.072   6.403  0.1003  1.4644 -1.4725
   30SAPC  H11B 3967   5.623  -0.085   6.448  0.1451  0.0676 -1.7024
   30SAPC     P 3968   5.532  -0.241   6.245 -0.0151 -0.3830 -0.0676
   30SAPC   O13 3969   5.445  -0.296   6.139  0.3721  0.0595 -0.0583
   30SAPC   O14 3970   5.679  -0.251   6.221 -0.0083  0.2625  0.3362
   30SAPC   O12 3971   5.495  -0.087   6.277 -0.6194  0.2106 -0.3529
   30SAPC   O11 3972   5.500  -0.300   6.389 -0.1998 -0.3942  0.2721
   30SAPC    C1 3973   5.369  -0.270   6.453 -0.4684  0.1765  0.6189
   30SAPC    HA 3974   5.367  -0.163   6.480  1.1727  0.0452  1.4313
   30SAPC    HB 3975   5.275  -0.293   6.399 -0.3101 -0.9263  0.7901
   30SAPC    C2 3976   5.360  -0.342   6.592  0.3234 -0.4900  0.7791
   30SAPC    HS 3977   5.269  -0.309   6.647 -1.4266 -2.3536 -0.8126
   30SAPC   O21 3978   5.483  -0.317   6.662 -0.4552 -0.0155 -0.3715
   30SAPC   C21 3979   5.475  -0.200   6.729 -1.2133  0.2235 -0.3019
   30SAPC   O22 3980   5.376  -0.125   6.731 -0.5952  0.3836 -0.1538
   30SAPC   C22 3981   5.608  -0.172   6.804  0.1701 -0.0217  0.0774
   30SAPC   H2R 3982   5.609  -0.231   6.898  2.4431  0.4469  0.4110
   30SAPC   H2S 3983   5.683  -0.226   6.742  0.6743  1.3763 -0.5737
   30SAPC    C3 3984   5.343  -0.494   6.571 -0.0698  0.2894  0.0344
   30SAPC    HX 3985   5.428  -0.536   6.511 -0.0115 -0.0306  0.3399
   30SAPC    HY 3986   5.258  -0.498   6.500 -0.0516  0.5347 -0.0041
   30SAPC   O31 3987   5.317  -0.565   6.691 -0.4617 -0.1219 -0.0434
   30SAPC   C31 3988   5.436  -0.587   6.753  0.0796 -0.1481 -0.3053
   30SAPC   O32 3989   5.543  -0.584   6.696  0.0668 -0.2232 -0.4679
   30SAPC   C32 3990   5.403  -0.628   6.890  0.1213 -0.7225 -0.6660
   30SAPC   H2X 3991   5.371  -0.734   6.884  1.5959 -1.2869  0.7384
   30SAPC   H2Y 3992   5.331  -0.558   6.939  0.3490 -0.2708 -0.9632
   30SAPC   C23 3993   5.648  -0.029   6.819 -0.8548 -0.1720 -0.1171
   30SAPC   H3R 3994   5.633   0.026   6.724  0.4830 -0.4865 -0.5323
   30SAPC   H3S 3995   5.757  -0.022   6.837 -0.5211  0.0431 -2.0774
   30SAPC   C24 3996   5.580   0.020   6.947 -0.0077  0.0754  0.0114
   30SAPC   H4R 3997   5.594  -0.053   7.030 -1.1334 -2.4267 -1.8556
   30SAPC   H4S 3998   5.470   0.028   6.936 -0.1934 -2.8440 -1.1978
   30SAPC   C25 3999   5.640   0.154   6.978  0.5787  0.0263 -0.5225
   30SAPC   H5R 4000   5.653   0.225   6.895  0.3894  2.6972  1.5465
   30SAPC   C26 4001   5.670   0.196   7.105 -0.0786  0.0948  0.4023
   30SAPC   H6R 4002   5.705   0.301   7.110  3.5982 -0.8929 -1.1503
   30SAPC   C27 4003   5.654   0.121   7.238  0.3494 -0.2811  0.2113
   30SAPC   H7R 4004   5.759   0.092   7.260  0.3370 -0.5580 -0.0828
   30SAPC   H7S 4005   5.585   0.035   7.224  0.4013 -0.3064  0.1099
   30SAPC   C28 4006   5.605   0.224   7.338  0.2299  0.1755  0.0681
   30SAPC   H8R 4007   5.551   0.310   7.295 -0.8647 -0.6766 -0.3147
   30SAPC   C29 4008   5.589   0.209   7.469  0.2671  0.3904 -0.7785
   30SAPC   H9R 4009   5.561   0.295   7.531  1.1011  0.1098  0.0221
   30SAPC  C210 4010   5.638   0.081   7.542  0.0755 -0.6610  0.1907
   30SAPC  H10R 4011   5.689   0.008   7.475  0.8412 -0.8607  0.9786
   30SAPC  H10S 4012   5.549   0.020   7.571 -0.7715 -1.0396 -2.7846
   30SAPC  C211 4013   5.732   0.114   7.658 -0.7313  0.6316  0.3566
   30SAPC  H11R 4014   5.837   0.089   7.637 -1.2230 -1.4625  0.2706
   30SAPC  C212 4015   5.702   0.181   7.765 -0.3741  0.1245 -0.1800
   30SAPC  H12R 4016   5.782   0.213   7.833  0.2558 -0.0432 -0.8228
   30SAPC  C213 4017   5.572   0.238   7.811  0.3195 -0.8150  0.3242
   30SAPC  H13R 4018   5.489   0.186   7.759 -1.4626  2.4903 -0.3968
   30SAPC  H13S 4019   5.565   0.344   7.777  1.6395 -1.0506 -0.7690
   30SAPC  C214 4020   5.550   0.207   7.956 -0.3946 -0.2036  0.4008
   30SAPC  H14R 4021   5.503   0.108   7.967 -0.1881 -0.3879 -0.2716
   30SAPC  C215 4022   5.582   0.286   8.062  0.6669 -0.5831  1.1382
   30SAPC  H15R 4023   5.560   0.250   8.164 -1.1857 -0.8389  0.6921
   30SAPC  C216 4024   5.654   0.422   8.052  0.5451 -0.6157 -0.5318
   30SAPC  H16R 4025   5.615   0.509   8.109  1.0374 -2.1134  2.2658
   30SAPC  H16S 4026   5.641   0.456   7.947 -4.0758  2.6871  0.8102
   30SAPC  C217 4027   5.801   0.421   8.087  0.2697  0.3703 -1.2797
   30SAPC  H17R 4028   5.819   0.527   8.112 -0.3280 -0.0312  1.2177
   30SAPC  H17S 4029   5.862   0.380   8.004  0.3570  0.2135 -1.1413
   30SAPC  C218 4030   5.839   0.344   8.214  0.5102  0.1590  0.8874
   30SAPC  H18R 4031   5.900   0.255   8.187 -1.1144 -0.7640  0.1094
   30SAPC  H18S 4032   5.747   0.298   8.258  0.6246 -3.2470 -2.0284
   30SAPC  C219 4033   5.888   0.439   8.325 -0.3413 -0.1243  0.5366
   30SAPC  H19R 4034   5.826   0.531   8.314  1.3033  0.8373 -1.3223
   30SAPC  H19S 4035   5.989   0.479   8.302 -1.0921  1.2404 -0.5561
   30SAPC  C220 4036   5.884   0.387   8.471  0.5476 -0.5100 -0.4974
   30SAPC  H20R 4037   5.943   0.293   8.472  1.2956 -0.0694  1.5199
   30SAPC  H20S 4038   5.777   0.372   8.498  1.3596 -2.4854  1.9994
   30SAPC  H20T 4039   5.925   0.459   8.545  0.6058  1.4633 -2.3437
   30SAPC   C33 4040   5.529  -0.617   6.982 -0.2602  0.3754 -0.0257
   30SAPC   H3X 4041   5.542  -0.510   7.012 -1.2861  0.3974  0.3705
   30SAPC   H3Y 4042   5.620  -0.642   6.922 -0.1578  0.9856 -0.1333
   30SAPC   C34 4043   5.516  -0.700   7.108  0.1596  0.0696  0.0341
   30SAPC   H4X 4044   5.499  -0.806   7.081 -0.3858 -0.3225  1.7567
   30SAPC   H4Y 4045   5.434  -0.656   7.169  1.5748  0.0143  2.0970
   30SAPC   C35 4046   5.643  -0.691   7.193 -0.3371 -0.2656  1.3917
   30SAPC   H5X 4047   5.668  -0.584   7.209 -1.4195  0.3000 -0.4216
   30SAPC   H5Y 4048   5.735  -0.717   7.136 -0.0138 -0.3952  1.9640
   30SAPC   C36 4049   5.635  -0.763   7.321 -0.3616 -0.0830  0.1121
   30SAPC   H6X 4050   5.643  -0.872   7.307  0.2417  0.0958 -1.1289
   30SAPC   H6Y 4051   5.534  -0.749   7.365 -0.0640  0.7456  0.5592
   30SAPC   C37 4052   5.741  -0.728   7.432  0.1071 -0.2875 -0.2914
   30SAPC   H7X 4053   5.700  -0.761   7.530 -1.2696  2.4953  0.1572
   30SAPC   H7Y 4054   5.730  -0.619   7.448 -1.7712 -0.7407  2.0486
   30SAPC   C38 4055   5.882  -0.769   7.379  0.1213 -0.2327  0.0080
   30SAPC   H8X 4056   5.895  -0.723   7.278  0.0219  1.9190  0.9138
   30SAPC   H8Y 4057   5.885  -0.877   7.357  1.6044 -0.4634  1.1855
   30SAPC   C39 4058   6.003  -0.733   7.474  0.0809 -0.1137  0.6406
   30SAPC   H9X 4059   6.003  -0.623   7.485  2.7420 -0.1263  1.3674
   30SAPC   H9Y 4060   6.100  -0.760   7.426  0.3596  1.6807  0.1252
   30SAPC  C310 4061   5.990  -0.789   7.614 -0.3498 -0.8391 -0.4642
   30SAPC  H10X 4062   6.041  -0.888   7.623  1.9955 -0.1886 -4.3354
   30SAPC  H10Y 4063   5.885  -0.804   7.649 -0.3927  1.1986  0.4083
   30SAPC  C311 4064   6.037  -0.685   7.721 -0.2276  0.0726 -0.1848
   30SAPC  H11X 4065   5.985  -0.588   7.706 -0.0875  0.1498 -0.1716
   30SAPC  H11Y 4066   6.147  -0.672   7.709  0.3436 -0.0191  3.8756
   30SAPC  C312 4067   6.014  -0.738   7.863 -0.5165  0.1686 -0.5846
   30SAPC  H12X 4068   6.083  -0.682   7.929 -1.0829  0.6198 -0.3561
   30SAPC  H12Y 4069   6.042  -0.845   7.874  0.8584  0.4150 -1.4411
   30SAPC  C313 4070   5.874  -0.713   7.923  0.3068 -0.0310 -0.8194
   30SAPC  H13X 4071   5.799  -0.761   7.856 -0.0657 -0.2670 -0.2470
   30SAPC  H13Y 4072   5.855  -0.605   7.940  4.1342  0.3954  1.9571
   30SAPC  C314 4073   5.862  -0.782   8.061 -0.0658 -0.4780 -0.4953
   30SAPC  H14X 4074   5.873  -0.891   8.045 -0.7359 -0.5484 -0.4915
   30SAPC  H14Y 4075   5.758  -0.767   8.094  0.0919  1.5029 -0.7803
   30SAPC  C315 4076   5.962  -0.729   8.164  0.4442 -0.1102  0.0075
   30SAPC  H15X 4077   6.067  -0.755   8.140  0.3259 -0.8428  0.2533
   30SAPC  H15Y 4078   5.930  -0.788   8.253  0.7533 -1.3867 -0.7027
   30SAPC  C316 4079   5.937  -0.587   8.197  0.0354 -0.7698  0.0597
   30SAPC  H16X 4080   5.831  -0.574   8.227  0.1264 -0.1439  0.1218
   30SAPC  H16Y 4081   5.965  -0.521   8.112  0.9124 -2.1597 -0.7715
   30SAPC  C317 4082   6.034  -0.542   8.308  0.2736  0.1008  0.8425
   30SAPC  H17X 4083   6.137  -0.576   8.284  1.0066  1.0463  2.4309
   30SAPC  H17Y 4084   6.010  -0.598   8.401  0.6999  0.0063  0.8976
   30SAPC  C318 4085   6.030  -0.393   8.331  0.5227 -0.4991  0.0008
   30SAPC  H18X 4086   6.109  -0.359   8.401  0.3476 -0.8866  0.3869
   30SAPC  H18Y 4087   5.930  -0.376   8.375  1.1699 -0.3602  1.4784
   30SAPC  H18Z 4088   6.048  -0.345   8.232  0.2979 -0.7576 -0.1639
   31SAPC     N 4089   5.242   0.278   6.564  0.0343  0.2739  0.4021
   31SAPC   C12 4090   5.329   0.359   6.663 -1.0036  0.6241  0.8200
   31SAPC  H12A 4091   5.267   0.379   6.750 -0.7155 -1.3726  1.5463
   31SAPC  H12B 4092   5.345   0.453   6.613 -0.7099  0.5249  0.7236
   31SAPC   C13 4093   5.099   0.334   6.563 -0.0601  0.5098 -0.2380
   31SAPC  H13A 4094   5.021   0.277   6.514 -0.9410 -0.5759  2.2417
   31SAPC  H13B 4095   5.066   0.334   6.666  0.1578  0.8618 -0.1686
   31SAPC  H13C 4096   5.106   0.437   6.533  0.9887  0.8573  1.0878
   31SAPC   C14 4097   5.309   0.286   6.422  0.1572  0.0610 -0.4108
   31SAPC  H14A 4098   5.412   0.255   6.431  0.2538 -0.8555 -3.5173
   31SAPC  H14B 4099   5.249   0.227   6.354  0.4212 -0.3539 -0.2929
   31SAPC  H14C 4100   5.309   0.386   6.383  1.3117 -0.2896 -1.3581
   31SAPC   C15 4101   5.240   0.134   6.602 -0.3584 -0.3893 -0.0911
   31SAPC  H15A 4102   5.190   0.068   6.532  0.1549 -0.2007 -0.6378
   31SAPC  H15B 4103   5.341   0.098   6.615 -0.0876  0.9258  1.8530
   31SAPC  H15C 4104   5.184   0.113   6.693  1.1175 -1.0310  0.7043
   31SAPC   C11 4105   5.461   0.296   6.708  0.6448  0.4445  0.6422
   31SAPC  H11A 4106   5.445   0.208   6.774 -0.3076  2.1566  2.7914
   31SAPC  H11B 4107   5.499   0.373   6.778  1.5539  1.1320 -0.5572
   31SAPC     P 4108   5.690   0.332   6.585  0.1377  0.0432 -0.0485
   31SAPC   O13 4109   5.788   0.236   6.527 -0.3767 -0.1782 -0.0323
   31SAPC   O14 4110   5.676   0.454   6.508 -0.4212  0.0348  0.3946
   31SAPC   O12 4111   5.552   0.265   6.603 -0.4540  0.3533  0.1217
   31SAPC   O11 4112   5.729   0.366   6.732 -0.4006 -0.2046  0.3667
   31SAPC    C1 4113   5.864   0.414   6.747 -0.1925  0.4479 -0.5329
   31SAPC    HA 4114   5.915   0.455   6.658  0.3361 -1.3700 -1.1164
   31SAPC    HB 4115   5.869   0.491   6.827 -0.7066 -1.6732  1.6801
   31SAPC    C2 4116   5.952   0.292   6.798 -0.1168 -0.1215  0.1988
   31SAPC    HS 4117   5.905   0.199   6.761  2.4201 -1.6154  0.5058
   31SAPC   O21 4118   5.958   0.302   6.942 -0.1625 -0.0941  0.6295
   31SAPC   C21 4119   6.007   0.185   6.994 -0.1740 -0.9094  0.1766
   31SAPC   O22 4120   6.020   0.080   6.934 -0.1714 -0.0749  0.1824
   31SAPC   C22 4121   6.047   0.213   7.136 -0.7695  0.2716  0.5178
   31SAPC   H2R 4122   6.114   0.302   7.137  0.1102 -0.3702  1.5378
   31SAPC   H2S 4123   5.957   0.250   7.189 -0.4815 -1.0794  2.0455
   31SAPC    C3 4124   6.094   0.304   6.736 -0.8978 -0.2940 -0.4340
   31SAPC    HX 4125   6.086   0.273   6.630 -1.1261  0.5724 -0.6797
   31SAPC    HY 4126   6.155   0.226   6.787 -1.5215  0.0821  0.9386
   31SAPC   O31 4127   6.145   0.441   6.754  0.2940 -0.1167 -0.2494
   31SAPC   C31 4128   6.212   0.463   6.867  0.2426  0.0416  0.0888
   31SAPC   O32 4129   6.265   0.377   6.936  0.3288 -0.2240 -0.3152
   31SAPC   C32 4130   6.207   0.611   6.901 -0.1686 -0.0688  0.0910
   31SAPC   H2X 4131   6.101   0.629   6.928 -0.9016 -0.0610 -2.4763
   31SAPC   H2Y 4132   6.216   0.660   6.802 -0.8848 -1.3242 -0.6278
   31SAPC   C23 4133   6.100   0.092   7.212  0.2567 -0.0683 -0.2975
   31SAPC   H3R 4134   6.192   0.054   7.162  0.4381  0.3154 -0.2613
   31SAPC   H3S 4135   6.028   0.009   7.198 -0.3548  0.5072 -0.5977
   31SAPC   C24 4136   6.128   0.130   7.359  0.0053  0.8906  0.6772
   31SAPC   H4R 4137   6.142   0.045   7.429  0.1276 -0.8885 -1.3791
   31SAPC   H4S 4138   6.033   0.183   7.382 -0.3970  0.8681 -0.8330
   31SAPC   C25 4139   6.250   0.218   7.377  1.1423 -0.2375  0.0750
   31SAPC   H5R 4140   6.310   0.219   7.285  0.3951 -0.1350 -0.4225
   31SAPC   C26 4141   6.280   0.287   7.490  0.0344 -1.0689  0.6305
   31SAPC   H6R 4142   6.359   0.363   7.499 -0.0178 -0.5905 -2.1904
   31SAPC   C27 4143   6.187   0.279   7.611  0.1408  0.6907  0.5081
   31SAPC   H7R 4144   6.244   0.246   7.700  1.8617 -2.3787 -1.5460
   31SAPC   H7S 4145   6.107   0.203   7.598  1.2954 -0.1505 -2.7493
   31SAPC   C28 4146   6.129   0.419   7.649 -0.4624 -0.4609  0.3472
   31SAPC   H8R 4147   6.100   0.470   7.556 -1.2519 -1.0134  0.2809
   31SAPC   C29 4148   6.125   0.485   7.767  0.3606  0.1356  1.1917
   31SAPC   H9R 4149   6.068   0.579   7.761 -1.1869 -0.7889  0.8279
   31SAPC  C210 4150   6.167   0.431   7.903 -0.8208 -0.7975 -0.1777
   31SAPC  H10R 4151   6.196   0.325   7.889 -0.0182 -0.6674  0.4119
   31SAPC  H10S 4152   6.085   0.431   7.978  0.8334  0.5977  1.7746
   31SAPC  C211 4153   6.289   0.503   7.961 -0.0961 -0.8549  0.7719
   31SAPC  H11R 4154   6.362   0.529   7.882  1.0701 -1.4705  1.6189
   31SAPC  C212 4155   6.312   0.551   8.079  0.3776 -0.7407  0.0242
   31SAPC  H12R 4156   6.415   0.585   8.093  1.0127 -2.2455 -0.8152
   31SAPC  C213 4157   6.230   0.530   8.205  0.4056 -0.3773 -0.4545
   31SAPC  H13R 4158   6.202   0.424   8.221 -0.8530  0.0405  0.2253
   31SAPC  H13S 4159   6.132   0.582   8.201  0.5076 -0.0038  1.1326
   31SAPC  C214 4160   6.298   0.585   8.334  0.6579  0.2144  0.2797
   31SAPC  H14R 4161   6.364   0.668   8.304  0.0571 -0.5163 -3.5800
   31SAPC  C215 4162   6.303   0.527   8.452  0.6094  0.0718 -0.3919
   31SAPC  H15R 4163   6.364   0.561   8.537  1.6275 -2.0078 -0.2213
   31SAPC  C216 4164   6.241   0.398   8.498 -0.7356  0.9997  0.1820
   31SAPC  H16R 4165   6.208   0.345   8.407  2.1640  0.2998 -0.5921
   31SAPC  H16S 4166   6.154   0.419   8.563 -1.1157 -0.5815  0.2354
   31SAPC  C217 4167   6.341   0.314   8.565 -0.1809 -0.3398 -0.4777
   31SAPC  H17R 4168   6.392   0.369   8.647 -1.4379  1.8051 -1.0603
   31SAPC  H17S 4169   6.432   0.283   8.509  1.1418 -0.1151  1.4345
   31SAPC  C218 4170   6.272   0.193   8.627  0.0828 -0.4115 -0.3610
   31SAPC  H18R 4171   6.198   0.233   8.700 -0.7443  0.1679 -1.4664
   31SAPC  H18S 4172   6.340   0.135   8.692  2.6850  1.2170 -1.4670
   31SAPC  C219 4173   6.213   0.087   8.523 -0.3243 -0.9162  0.1136
   31SAPC  H19R 4174   6.297   0.048   8.462 -0.7789 -0.8531 -0.5637
   31SAPC  H19S 4175   6.153   0.153   8.458  0.5084 -1.3761 -1.1563
   31SAPC  C220 4176   6.149  -0.031   8.584  0.4609  0.6083  0.2259
   31SAPC  H20R 4177   6.118  -0.112   8.514  1.1681 -0.6126  1.2935
   31SAPC  H20S 4178   6.059   0.002   8.640  0.7697  0.0667  1.0521
   31SAPC  H20T 4179   6.209  -0.079   8.664  1.9323  1.4309 -0.3445
   31SAPC   C33 4180   6.307   0.657   7.008  0.3619 -0.0876  0.1626
   31SAPC   H3X 4181   6.340   0.763   6.997  0.1470 -0.1158 -0.8192
   31SAPC   H3Y 4182   6.395   0.588   7.009 -1.5110 -2.6019  0.0339
   31SAPC   C34 4183   6.240   0.664   7.151 -0.3943 -0.0018 -0.4588
   31SAPC   H4X 4184   6.203   0.566   7.187  0.8829  0.3662  2.1466
   31SAPC   H4Y 4185   6.154   0.734   7.143  0.0586  0.7121  0.6653
   31SAPC   C35 4186   6.342   0.707   7.265 -0.3575  0.4343  0.6171
   31SAPC   H5X 4187   6.395   0.801   7.238 -0.4738  0.8829  1.8637
   31SAPC   H5Y 4188   6.424   0.632   7.270 -0.1514  0.6670  0.7676
   31SAPC   C36 4189   6.280   0.727   7.406  0.5817  0.3049  0.1629
   31SAPC   H6X 4190   6.237   0.633   7.445 -0.1858 -0.6280 -2.6691
   31SAPC   H6Y 4191   6.197   0.795   7.377 -1.1327 -0.8389  2.1367
   31SAPC   C37 4192   6.379   0.785   7.502 -0.1976 -0.1822 -0.3401
   31SAPC   H7X 4193   6.381   0.894   7.481 -2.0362  0.1653  1.0251
   31SAPC   H7Y 4194   6.475   0.731   7.489  1.4074  2.3871  0.1417
   31SAPC   C38 4195   6.336   0.785   7.658 -0.5845 -0.2347  0.6200
   31SAPC   H8X 4196   6.428   0.801   7.718 -1.4740  0.7301  1.7789
   31SAPC   H8Y 4197   6.303   0.681   7.681 -0.8881 -0.3023 -0.1114
   31SAPC   C39 4198   6.217   0.877   7.673  0.0528 -0.0108 -0.2765
   31SAPC   H9X 4199   6.139   0.840   7.603 -0.2075  0.4305 -0.2203
   31SAPC   H9Y 4200   6.256   0.974   7.637  1.3273 -0.5148 -0.3431
   31SAPC  C310 4201   6.174   0.884   7.824 -0.1833 -0.2095  0.0118
   31SAPC  H10X 4202   6.144   0.782   7.854 -0.6350 -0.4778 -1.2768
   31SAPC  H10Y 4203   6.092   0.959   7.836  0.0275  0.2278 -1.1066
   31SAPC  C311 4204   6.274   0.927   7.936  0.3228 -0.0411 -0.9426
   31SAPC  H11X 4205   6.332   1.017   7.907 -1.9155  1.9508  0.4322
   31SAPC  H11Y 4206   6.346   0.852   7.975  0.3561  0.9594  1.0281
   31SAPC  C312 4207   6.212   0.992   8.064  0.7565 -0.2324 -0.7369
   31SAPC  H12X 4208   6.135   0.926   8.109 -0.8575  1.4021 -0.9847
   31SAPC  H12Y 4209   6.151   1.081   8.036 -1.4704 -1.0009  1.3104
   31SAPC  C313 4210   6.307   1.035   8.178  0.1137 -0.1287 -0.1468
   31SAPC  H13X 4211   6.352   0.942   8.218 -1.6916 -0.7622  0.5052
   31SAPC  H13Y 4212   6.243   1.088   8.252 -1.0449 -1.0833 -0.4195
   31SAPC  C314 4213   6.428   1.126   8.138  0.4453 -0.5637  0.3797
   31SAPC  H14X 4214   6.389   1.222   8.097  0.2391 -0.7204  0.2037
   31SAPC  H14Y 4215   6.485   1.082   8.054 -1.3065  0.4823 -1.4487
   31SAPC  C315 4216   6.522   1.153   8.251 -0.0186 -0.4820  0.0175
   31SAPC  H15X 4217   6.613   1.207   8.217  1.5346 -2.5990  0.5454
   31SAPC  H15Y 4218   6.532   1.051   8.294 -2.5421 -0.3599  1.0243
   31SAPC  C316 4219   6.470   1.241   8.363  0.1246  0.5240 -0.5504
   31SAPC  H16X 4220   6.426   1.186   8.449  1.6697  0.8210  0.4762
   31SAPC  H16Y 4221   6.401   1.311   8.311 -0.1251  0.3401 -0.4732
   31SAPC  C317 4222   6.583   1.329   8.425  0.8721 -0.1969 -0.6938
   31SAPC  H17X 4223   6.544   1.419   8.477  1.3508  0.8308 -2.0437
   31SAPC  H17Y 4224   6.646   1.370   8.343  0.8629  1.3719  0.0595
   31SAPC  C318 4225   6.673   1.248   8.515  0.0789 -0.5122  0.0487
   31SAPC  H18X 4226   6.630   1.159   8.566 -0.0159  0.0126  0.9055
   31SAPC  H18Y 4227   6.722   1.311   8.592  0.0956  0.1234 -0.4709
   31SAPC  H18Z 4228   6.758   1.227   8.446 -1.7264  0.4851 -2.6324
   32SAPC     N 4229   1.625   1.833   6.311 -0.9065  1.0101  0.2986
   32SAPC   C12 4230   1.726   1.814   6.422  0.5565  0.4802 -0.1367
   32SAPC  H12A 4231   1.816   1.764   6.387  0.7915  0.6930  0.1640
   32SAPC  H12B 4232   1.682   1.744   6.491 -1.1615  2.3240  0.7071
   32SAPC   C13 4233   1.568   1.694   6.269  0.1654  0.5187 -0.6640
   32SAPC  H13A 4234   1.512   1.648   6.348 -1.5039 -1.2891 -2.7744
   32SAPC  H13B 4235   1.497   1.713   6.190 -1.0352  2.4104  0.8000
   32SAPC  H13C 4236   1.639   1.628   6.220  0.2571 -1.2988  1.7467
   32SAPC   C14 4237   1.506   1.914   6.367 -0.7660  0.7243  0.0560
   32SAPC  H14A 4238   1.543   2.006   6.411 -2.5116  1.9422 -0.8934
   32SAPC  H14B 4239   1.438   1.937   6.286 -2.2553 -1.8570  0.4756
   32SAPC  H14C 4240   1.448   1.860   6.441 -0.6430 -0.6085 -0.7908
   32SAPC   C15 4241   1.683   1.890   6.189  0.3358 -0.5704  0.0007
   32SAPC  H15A 4242   1.727   1.813   6.128  0.6355 -0.1501 -0.3145
   32SAPC  H15B 4243   1.617   1.960   6.139  1.6504  0.4175 -0.4223
   32SAPC  H15C 4244   1.765   1.957   6.213 -1.6280  1.1522  2.5876
   32SAPC   C11 4245   1.772   1.936   6.513 -0.6921  0.0124  0.1075
   32SAPC  H11A 4246   1.856   1.906   6.579 -0.7951  0.0431  0.2536
   32SAPC  H11B 4247   1.695   1.978   6.582 -0.8803  2.1482 -1.2895
   32SAPC     P 4248   1.819   2.192   6.468  0.0900 -0.3063 -0.3240
   32SAPC   O13 4249   1.943   2.213   6.548  0.0836  0.3589 -0.1245
   32SAPC   O14 4250   1.806   2.275   6.348 -0.4314  0.0538 -0.1133
   32SAPC   O12 4251   1.815   2.041   6.426  0.3477 -0.0751 -0.3001
   32SAPC   O11 4252   1.690   2.218   6.558  0.0044  0.1631 -0.1174
   32SAPC    C1 4253   1.694   2.300   6.676  0.0721  0.4069  0.2285
   32SAPC    HA 4254   1.763   2.387   6.671  2.3574 -1.3961 -3.0029
   32SAPC    HB 4255   1.588   2.331   6.690 -1.1223 -1.7527 -2.8395
   32SAPC    C2 4256   1.720   2.224   6.802  0.1563  0.3394  0.1297
   32SAPC    HS 4257   1.816   2.168   6.791 -1.3346 -2.3713 -0.0208
   32SAPC   O21 4258   1.618   2.120   6.825  0.0249 -0.7691  0.4580
   32SAPC   C21 4259   1.659   1.996   6.854 -0.4522  0.2326 -0.3462
   32SAPC   O22 4260   1.777   1.965   6.867  0.3513  0.0153  0.1140
   32SAPC   C22 4261   1.546   1.889   6.844 -0.4259 -0.3773 -0.0566
   32SAPC   H2R 4262   1.447   1.938   6.845 -0.5905 -0.5551 -2.4049
   32SAPC   H2S 4263   1.548   1.842   6.743  1.3241 -0.7501  0.1091
   32SAPC    C3 4264   1.732   2.324   6.918 -0.0370 -0.7411  0.1708
   32SAPC    HX 4265   1.644   2.390   6.932  2.2389  2.8437 -1.0987
   32SAPC    HY 4266   1.809   2.403   6.905  0.9502 -1.2831  2.2786
   32SAPC   O31 4267   1.752   2.244   7.035 -0.4816  0.2830 -0.7751
   32SAPC   C31 4268   1.882   2.218   7.069  0.3892 -0.5365  0.4686
   32SAPC   O32 4269   1.977   2.249   6.999 -0.0851 -0.3488 -0.1614
   32SAPC   C32 4270   1.889   2.127   7.193  0.0852  0.2287 -0.9410
   32SAPC   H2X 4271   1.828   2.037   7.169 -2.0472  0.5189  2.6390
   32SAPC   H2Y 4272   1.828   2.186   7.265  2.4737 -1.1090  2.4496
   32SAPC   C23 4273   1.552   1.782   6.959  0.0265  0.3856  0.8441
   32SAPC   H3R 4274   1.656   1.741   6.959 -0.1794 -0.2024  2.3575
   32SAPC   H3S 4275   1.485   1.697   6.934 -1.2929  1.4224  0.7506
   32SAPC   C24 4276   1.534   1.831   7.108  0.7399  0.1219  0.0498
   32SAPC   H4R 4277   1.431   1.865   7.131 -0.1882 -2.2377 -0.4023
   32SAPC   H4S 4278   1.611   1.910   7.121 -0.7995  2.1336 -2.1645
   32SAPC   C25 4279   1.561   1.714   7.190 -0.3172  0.3187 -0.4825
   32SAPC   H5R 4280   1.546   1.614   7.145  1.5539 -0.2315  0.0193
   32SAPC   C26 4281   1.622   1.708   7.313  0.5075 -0.3830  0.4170
   32SAPC   H6R 4282   1.626   1.610   7.362  1.3359 -0.9272 -0.6696
   32SAPC   C27 4283   1.668   1.817   7.404  0.4923 -0.3119 -0.1959
   32SAPC   H7R 4284   1.579   1.851   7.463 -2.1145 -1.5259 -3.1306
   32SAPC   H7S 4285   1.694   1.904   7.340 -2.0474  1.1738  0.6130
   32SAPC   C28 4286   1.786   1.800   7.493  0.3837 -0.8105  0.7635
   32SAPC   H8R 4287   1.868   1.749   7.441  0.9902  1.5546 -0.7918
   32SAPC   C29 4288   1.811   1.844   7.614 -0.1078 -0.3183 -0.1842
   32SAPC   H9R 4289   1.911   1.823   7.654 -0.0129 -0.9911 -0.7568
   32SAPC  C210 4290   1.720   1.910   7.707  0.1819 -0.1721 -0.3536
   32SAPC  H10R 4291   1.733   1.859   7.805  0.0111 -3.7304 -2.0273
   32SAPC  H10S 4292   1.616   1.889   7.673 -0.1422  0.9786 -0.1238
   32SAPC  C211 4293   1.749   2.057   7.714  0.2952 -0.5807 -0.0880
   32SAPC  H11R 4294   1.766   2.112   7.620  0.2582 -1.1420 -0.4241
   32SAPC  C212 4295   1.756   2.127   7.823  0.1950 -0.5106  0.4125
   32SAPC  H12R 4296   1.758   2.237   7.819 -4.9242 -0.1068  2.2598
   32SAPC  C213 4297   1.732   2.078   7.963  0.0053  0.1850 -0.1377
   32SAPC  H13R 4298   1.730   1.967   7.976 -1.0068  0.5391  4.1498
   32SAPC  H13S 4299   1.627   2.102   7.987  0.2314  1.9916 -0.8372
   32SAPC  C214 4300   1.810   2.150   8.071  0.0603 -0.0288 -0.4324
   32SAPC  H14R 4301   1.904   2.099   8.095 -1.9575 -2.7628  2.4798
   32SAPC  C215 4302   1.767   2.269   8.128  0.1150  0.1441  0.0131
   32SAPC  H15R 4303   1.840   2.332   8.181 -1.7166  1.3685  1.1916
   32SAPC  C216 4304   1.638   2.342   8.098  0.2624 -0.0600  0.1581
   32SAPC  H16R 4305   1.551   2.273   8.090 -1.2404  1.6833  0.7661
   32SAPC  H16S 4306   1.647   2.390   7.998  2.2641  2.5289  1.4633
   32SAPC  C217 4307   1.591   2.445   8.200 -0.2112  0.2731 -0.6067
   32SAPC  H17R 4308   1.485   2.460   8.173 -0.7091 -2.0226 -0.0787
   32SAPC  H17S 4309   1.643   2.544   8.195 -3.1664  1.9765  0.2560
   32SAPC  C218 4310   1.596   2.392   8.345 -0.2394  0.4958  0.2621
   32SAPC  H18R 4311   1.701   2.406   8.379  0.2320  2.3546 -1.7603
   32SAPC  H18S 4312   1.561   2.286   8.355  0.1605  0.2064 -1.1401
   32SAPC  C219 4313   1.521   2.472   8.453 -0.1837  1.0006 -0.3208
   32SAPC  H19R 4314   1.548   2.426   8.550 -1.0850  1.6259  0.2362
   32SAPC  H19S 4315   1.412   2.459   8.436 -0.1670 -1.9134  1.1667
   32SAPC  C220 4316   1.559   2.614   8.444 -0.4690  0.0910 -0.1873
   32SAPC  H20R 4317   1.518   2.664   8.354 -2.5312 -1.4336 -0.1539
   32SAPC  H20S 4318   1.668   2.636   8.439 -0.6696  1.0337 -0.8058
   32SAPC  H20T 4319   1.524   2.666   8.537 -1.4707 -1.7715  0.5254
   32SAPC   C33 4320   2.033   2.097   7.236 -0.3921 -1.0270  0.4572
   32SAPC   H3X 4321   2.100   2.103   7.148 -0.0805 -1.8543  0.6269
   32SAPC   H3Y 4322   2.042   1.995   7.279 -0.8782 -0.8673  0.9470
   32SAPC   C34 4323   2.099   2.202   7.337 -0.3738 -0.2815 -0.7988
   32SAPC   H4X 4324   2.078   2.305   7.300  0.2599  0.1495 -0.0061
   32SAPC   H4Y 4325   2.210   2.200   7.337 -0.3662 -0.0002 -0.9982
   32SAPC   C35 4326   2.051   2.171   7.480  0.7114 -0.7125 -0.1549
   32SAPC   H5X 4327   2.086   2.068   7.499  0.5230 -0.9573 -1.0611
   32SAPC   H5Y 4328   1.941   2.177   7.494  0.8837 -1.0596  1.4393
   32SAPC   C36 4329   2.114   2.265   7.586 -0.2992  1.0900 -0.2613
   32SAPC   H6X 4330   2.035   2.343   7.594 -0.0461  1.5316 -1.7345
   32SAPC   H6Y 4331   2.204   2.318   7.549 -0.4641  0.1951 -2.0726
   32SAPC   C37 4332   2.136   2.188   7.722  0.5278 -0.1444  0.4054
   32SAPC   H7X 4333   2.227   2.124   7.716  1.6129  1.4631 -1.7861
   32SAPC   H7Y 4334   2.057   2.114   7.748  1.1675 -0.9648  0.0790
   32SAPC   C38 4335   2.142   2.278   7.847  0.6239 -0.1211 -0.0108
   32SAPC   H8X 4336   2.041   2.317   7.869  0.7393  0.1239  0.0920
   32SAPC   H8Y 4337   2.220   2.356   7.831  0.3867  0.2832  0.7622
   32SAPC   C39 4338   2.182   2.200   7.971  0.4015 -0.1874 -0.0999
   32SAPC   H9X 4339   2.292   2.186   7.961  0.4660  0.9700 -1.3196
   32SAPC   H9Y 4340   2.135   2.099   7.975  2.1156 -0.9995  0.6170
   32SAPC  C310 4341   2.150   2.263   8.101  0.3644 -0.9456 -0.0364
   32SAPC  H10X 4342   2.042   2.288   8.116  0.1604  0.4029 -3.0260
   32SAPC  H10Y 4343   2.196   2.363   8.088 -2.3100  0.6176  1.5393
   32SAPC  C311 4344   2.193   2.184   8.229 -0.0351 -0.1520 -0.1829
   32SAPC  H11X 4345   2.297   2.148   8.216  1.0293  3.0534 -1.7516
   32SAPC  H11Y 4346   2.122   2.103   8.254 -0.5678  0.9381  2.0296
   32SAPC  C312 4347   2.194   2.281   8.347  0.4265 -0.6912  0.6651
   32SAPC  H12X 4348   2.095   2.313   8.386  2.1254  3.6032  2.0282
   32SAPC  H12Y 4349   2.240   2.373   8.307  0.7925 -1.7524 -1.4684
   32SAPC  C313 4350   2.278   2.229   8.460  0.6538  0.3686 -0.6390
   32SAPC  H13X 4351   2.287   2.311   8.533 -2.8735  0.4672 -0.1895
   32SAPC  H13Y 4352   2.380   2.205   8.421  1.4154  1.3924  0.6574
   32SAPC  C314 4353   2.222   2.102   8.530 -0.4030  0.3713  0.0892
   32SAPC  H14X 4354   2.300   2.051   8.590  1.0680  1.7982 -0.5258
   32SAPC  H14Y 4355   2.177   2.026   8.463 -0.9326  0.8241 -0.0767
   32SAPC  C315 4356   2.105   2.119   8.634  0.1498 -0.0524  0.2516
   32SAPC  H15X 4357   2.015   2.157   8.581 -1.1343 -0.7354  1.8637
   32SAPC  H15Y 4358   2.132   2.203   8.703  0.8903 -0.4332  0.4320
   32SAPC  C316 4359   2.063   1.995   8.705 -0.0181  0.4835 -0.5714
   32SAPC  H16X 4360   2.153   1.942   8.742  0.4974  0.6891 -1.5300
   32SAPC  H16Y 4361   1.989   1.938   8.646 -1.4058  1.2802  0.3109
   32SAPC  C317 4362   2.001   2.035   8.846 -0.1301  0.8082  0.4284
   32SAPC  H17X 4363   2.084   2.067   8.912  0.4503 -0.1825  0.1947
   32SAPC  H17Y 4364   1.973   1.936   8.888  1.0450 -0.1912 -1.0216
   32SAPC  C318 4365   1.893   2.143   8.852  0.2275 -0.0366  0.1221
   32SAPC  H18X 4366   1.936   2.244   8.834 -1.9750  0.5436 -2.5158
   32SAPC  H18Y 4367   1.841   2.135   8.950  0.7268  0.8113  0.4680
   32SAPC  H18Z 4368   1.826   2.133   8.764 -1.6483 -1.4492  1.6260
   33POPC     N 4369   5.004   2.613  10.652  0.6725  0.3523  0.6822
   33POPC   C12 4370   4.913   2.654  10.548  0.7449  1.0492  0.4331
   33POPC  H12A 4371   4.901   2.570  10.481  0.8843  1.2816  0.1144
   33POPC  H12B 4372   4.955   2.734  10.489 -0.3704  2.5887  1.6549
   33POPC   C13 4373   5.020   2.728  10.750  0.2988  0.0638 -0.0547
   33POPC  H13A 4374   4.932   2.787  10.770 -0.0324 -0.4531  0.0426
   33POPC  H13B 4375   5.060   2.680  10.838 -0.4471  0.3999  0.4808
   33POPC  H13C 4376   5.094   2.799  10.716  0.6680  0.6860  1.9244
   33POPC   C14 4377   4.962   2.491  10.729 -0.2157  0.1865  0.2458
   33POPC  H14A 4378   4.856   2.501  10.746 -0.9011 -0.9901 -2.6691
   33POPC  H14B 4379   4.986   2.401  10.674  4.9743  1.5118 -0.2020
   33POPC  H14C 4380   5.011   2.475  10.824  1.4459 -0.4323 -0.6753
   33POPC   C15 4381   5.139   2.580  10.590  0.2972  0.0136  0.2955
   33POPC  H15A 4382   5.177   2.663  10.532 -0.0358  1.1725  1.6688
   33POPC  H15B 4383   5.146   2.489  10.532  2.1905  0.8314 -0.8591
   33POPC  H15C 4384   5.206   2.579  10.675  0.7145  1.4618  0.0049
   33POPC   C11 4385   4.771   2.711  10.588 -1.1738  0.1012  0.9660
   33POPC  H11A 4386   4.724   2.758  10.499 -0.5725 -2.5462 -0.8468
   33POPC  H11B 4387   4.796   2.794  10.658  0.7487  0.0851  0.3446
   33POPC     P 4388   4.621   2.498  10.581 -0.4317 -0.1365 -0.0955
   33POPC   O13 4389   4.495   2.466  10.650 -0.0151 -0.2058 -0.0882
   33POPC   O14 4390   4.727   2.391  10.574 -0.1849  0.2709  0.3560
   33POPC   O12 4391   4.692   2.616  10.650 -0.0804 -0.4177  0.5700
   33POPC   O11 4392   4.597   2.568  10.441  0.2561  0.1000  0.0859
   33POPC    C1 4393   4.472   2.635  10.419  0.1029  1.4746  0.0811
   33POPC    HA 4394   4.395   2.556  10.410  1.1759  0.3770  0.2680
   33POPC    HB 4395   4.438   2.703  10.500 -0.8070  1.8296 -0.5734
   33POPC    C2 4396   4.467   2.715  10.282 -0.5265 -0.0750 -0.7628
   33POPC    HS 4397   4.358   2.733  10.269 -0.8975 -1.2788  0.4469
   33POPC   O21 4398   4.514   2.629  10.181 -0.4014  0.2916 -0.4247
   33POPC   C21 4399   4.458   2.646  10.060  0.7597 -0.1335 -0.0154
   33POPC   O22 4400   4.350   2.705  10.038  0.2668  0.0350 -0.4078
   33POPC   C22 4401   4.546   2.576   9.960  0.4727 -0.0916  0.0480
   33POPC   H2R 4402   4.632   2.533  10.015 -1.9433 -0.4160  3.9191
   33POPC   H2S 4403   4.580   2.648   9.883  0.7348  0.8892  1.0635
   33POPC    C3 4404   4.559   2.834  10.288 -0.1182  0.8610  0.0913
   33POPC    HX 4405   4.663   2.795  10.302 -0.7113  0.1268  3.2174
   33POPC    HY 4406   4.548   2.892  10.382  1.0483  0.5426  0.4396
   33POPC   O31 4407   4.550   2.912  10.169  0.7975 -0.1912  0.6112
   33POPC   C31 4408   4.474   3.018  10.163 -0.4086  0.3982  1.0692
   33POPC   O32 4409   4.399   3.054  10.251 -0.0747  0.1598  0.0172
   33POPC   C32 4410   4.490   3.094  10.034 -0.1009  0.2656  0.5502
   33POPC   H2X 4411   4.595   3.095   9.995 -0.2705 -0.9716 -0.0067
   33POPC   H2Y 4412   4.457   3.194  10.069 -3.1242 -1.4601  3.1507
   33POPC   C23 4413   4.473   2.457   9.891  0.3230  0.0039 -0.3747
   33POPC   H3R 4414   4.411   2.411   9.971  1.3000  0.9038  0.9224
   33POPC   H3S 4415   4.544   2.376   9.863  0.2371  0.4608 -2.0353
   33POPC   C24 4416   4.385   2.495   9.771  0.0828  0.3564  0.7060
   33POPC   H4R 4417   4.303   2.564   9.803 -0.6876 -0.8533  1.4199
   33POPC   H4S 4418   4.328   2.405   9.741  0.0475  0.2631  1.0553
   33POPC   C25 4419   4.466   2.549   9.656  0.2097  0.1127 -0.1192
   33POPC   H5R 4420   4.570   2.513   9.639  0.3169  0.9602 -1.4314
   33POPC   H5S 4421   4.475   2.657   9.677 -0.7294  0.2580 -0.4427
   33POPC   C26 4422   4.391   2.535   9.518  0.1727 -0.1740 -0.2744
   33POPC   H6R 4423   4.378   2.425   9.505  0.8104 -0.4391  1.1212
   33POPC   H6S 4424   4.450   2.573   9.432  0.0097  0.5530 -0.0731
   33POPC   C27 4425   4.252   2.598   9.492  0.5445 -0.2266 -0.1129
   33POPC   H7R 4426   4.251   2.707   9.514 -2.5986 -0.5797  2.2492
   33POPC   H7S 4427   4.172   2.558   9.558  0.9696 -0.1887  0.4348
   33POPC   C28 4428   4.190   2.562   9.355  0.0303 -0.1496  0.1122
   33POPC   H8R 4429   4.085   2.596   9.358  0.3107  0.7007  1.1594
   33POPC   H8S 4430   4.172   2.452   9.350 -0.2142 -0.1976  1.5605
   33POPC   C29 4431   4.263   2.621   9.237  0.3861 -0.3824  0.3978
   33POPC   H91 4432   4.370   2.642   9.247  0.4606 -0.3120 -0.4774
   33POPC  C210 4433   4.207   2.650   9.121 -0.2117 -0.2369  0.0632
   33POPC  H101 4434   4.274   2.690   9.043 -0.4925  1.8877  0.8240
   33POPC  C211 4435   4.067   2.627   9.074 -0.2631 -0.4616  0.0756
   33POPC  H11R 4436   4.002   2.609   9.162 -1.9105  0.8734 -0.8124
   33POPC  H11S 4437   4.057   2.537   9.010  0.8337 -0.1863 -0.5161
   33POPC  C212 4438   4.016   2.752   8.992 -0.0792  0.7428  0.3857
   33POPC  H12R 4439   4.047   2.742   8.886 -1.4817  0.1366 -0.0008
   33POPC  H12S 4440   4.062   2.843   9.036 -2.4429  1.9980  0.4847
   33POPC  C213 4441   3.860   2.763   8.976  0.6658 -0.1134  0.0622
   33POPC  H13R 4442   3.816   2.730   9.073  0.2034 -1.8197 -0.6978
   33POPC  H13S 4443   3.835   2.678   8.909  3.3948 -2.0018  1.2425
   33POPC  C214 4444   3.811   2.898   8.931 -1.0513  0.4992 -1.1372
   33POPC  H14R 4445   3.896   2.969   8.931 -0.7246  0.1111 -0.6917
   33POPC  H14S 4446   3.731   2.924   9.004 -1.5292 -2.0199 -0.6853
   33POPC  C215 4447   3.746   2.896   8.791 -0.2306 -0.1483 -0.1593
   33POPC  H15R 4448   3.659   2.827   8.793 -1.4585  1.3281  2.8369
   33POPC  H15S 4449   3.824   2.844   8.731 -0.7338 -1.6326  0.4179
   33POPC  C216 4450   3.716   3.029   8.737 -0.1785 -0.1110  0.3272
   33POPC  H16R 4451   3.747   3.024   8.630 -2.3381  1.3511 -0.4335
   33POPC  H16S 4452   3.775   3.107   8.788  1.5975 -0.2508 -1.3914
   33POPC  C217 4453   3.564   3.064   8.745 -0.0317 -0.1299  0.6960
   33POPC  H17R 4454   3.497   2.978   8.724 -0.8355  0.2493  1.6030
   33POPC  H17S 4455   3.556   3.138   8.662  2.0399 -0.1868  0.4003
   33POPC  C218 4456   3.520   3.134   8.874  0.2615 -0.2013 -0.1347
   33POPC  H18R 4457   3.536   3.072   8.965 -0.3275  0.5329  0.4877
   33POPC  H18S 4458   3.413   3.164   8.873 -0.1445 -1.5776 -1.5884
   33POPC  H18T 4459   3.572   3.230   8.892 -0.3135  0.2244 -0.7085
   33POPC   C33 4460   4.397   3.027   9.932  0.2174  0.1923  0.3150
   33POPC   H3X 4461   4.307   2.995   9.989  0.0239  0.2533  0.0475
   33POPC   H3Y 4462   4.437   2.932   9.890  1.4243  0.6794  0.3361
   33POPC   C34 4463   4.358   3.115   9.818 -0.3427  0.7034 -0.5635
   33POPC   H4X 4464   4.375   3.224   9.827  0.9165  0.5039 -0.4200
   33POPC   H4Y 4465   4.252   3.102   9.785 -0.1708 -0.7883 -0.6123
   33POPC   C35 4466   4.437   3.081   9.688  0.8267  0.3940 -0.0437
   33POPC   H5X 4467   4.432   2.971   9.674 -2.5595  0.3616  0.5759
   33POPC   H5Y 4468   4.542   3.109   9.709  0.1044  0.8279  3.4650
   33POPC   C36 4469   4.384   3.152   9.562 -0.1794  0.4035  0.5691
   33POPC   H6X 4470   4.400   3.261   9.573 -0.8396  0.6572 -0.7464
   33POPC   H6Y 4471   4.273   3.141   9.561 -0.1302 -1.3256 -3.1950
   33POPC   C37 4472   4.448   3.085   9.435 -0.3178  0.4374 -0.4519
   33POPC   H7X 4473   4.396   2.990   9.408  1.5758  0.3385 -4.6126
   33POPC   H7Y 4474   4.555   3.067   9.458 -0.8309  2.1817  4.4530
   33POPC   C38 4475   4.451   3.191   9.321 -1.1801  0.4106  0.0276
   33POPC   H8X 4476   4.499   3.280   9.365  2.0694 -0.3683 -1.6360
   33POPC   H8Y 4477   4.351   3.228   9.289 -0.8329  0.4330 -1.0840
   33POPC   C39 4478   4.539   3.155   9.189  0.6716 -0.0115 -0.4598
   33POPC   H9X 4479   4.478   3.077   9.139  1.9725 -0.5756 -1.2133
   33POPC   H9Y 4480   4.635   3.111   9.224  0.5204 -0.0440 -0.0759
   33POPC  C310 4481   4.574   3.277   9.109 -0.6899  0.5669 -0.3843
   33POPC  H10X 4482   4.670   3.323   9.141  1.1645 -1.8348 -2.1255
   33POPC  H10Y 4483   4.492   3.351   9.100  0.0740  1.2149 -3.3031
   33POPC  C311 4484   4.624   3.244   8.965  0.1090  0.2732  0.4244
   33POPC  H11X 4485   4.633   3.341   8.911 -1.5948  0.5044  0.5169
   33POPC  H11Y 4486   4.537   3.204   8.909  0.1390  2.1268 -1.0379
   33POPC  C312 4487   4.737   3.151   8.935 -0.3713  0.3061  0.3289
   33POPC  H12X 4488   4.708   3.056   8.985  1.2708 -0.3332  0.1466
   33POPC  H12Y 4489   4.835   3.184   8.977  1.0186 -0.9310 -1.7454
   33POPC  C313 4490   4.769   3.097   8.784  0.2617 -0.5506  0.0540
   33POPC  H13X 4491   4.849   3.021   8.794  0.8386  0.2227  1.8180
   33POPC  H13Y 4492   4.813   3.178   8.722 -2.4185  1.7897  0.9792
   33POPC  C314 4493   4.640   3.048   8.717  0.3144  0.3704  0.2003
   33POPC  H14X 4494   4.571   3.135   8.727 -0.8575 -0.6339  1.1649
   33POPC  H14Y 4495   4.593   2.963   8.770  1.7218  0.1456  1.1354
   33POPC  C315 4496   4.665   3.014   8.565 -0.7315  0.4929  0.3569
   33POPC  H15X 4497   4.759   2.957   8.546 -1.3171 -0.3779  0.0192
   33POPC  H15Y 4498   4.674   3.111   8.512  0.8120  0.1161 -0.1469
   33POPC  C316 4499   4.557   2.920   8.498  0.5439  0.2268  0.4642
   33POPC  H16X 4500   4.461   2.972   8.514  0.2043  0.8412 -2.8582
   33POPC  H16Y 4501   4.561   2.814   8.532  1.6325 -0.0346 -0.4000
   33POPC  H16Z 4502   4.576   2.910   8.389  0.5890  1.3278  0.3582
   34POPC     N 4503   3.626   3.560  11.290 -0.1564 -0.2475 -0.2288
   34POPC   C12 4504   3.538   3.472  11.214  0.1095  0.0204 -0.5487
   34POPC  H12A 4505   3.439   3.513  11.227 -0.5295 -0.4544 -3.1348
   34POPC  H12B 4506   3.531   3.373  11.256 -1.9112  1.0802  1.8568
   34POPC   C13 4507   3.766   3.501  11.291 -0.2838  0.5096  0.2343
   34POPC  H13A 4508   3.830   3.559  11.356 -0.9235 -0.6479  1.9892
   34POPC  H13B 4509   3.752   3.405  11.339 -1.7623  1.1697  1.2087
   34POPC  H13C 4510   3.805   3.484  11.192 -0.2700 -0.2244  0.3640
   34POPC   C14 4511   3.637   3.697  11.228  0.5198  0.3257  0.9393
   34POPC  H14A 4512   3.672   3.687  11.126 -1.2090 -2.6170  0.5229
   34POPC  H14B 4513   3.542   3.748  11.227 -0.0278 -0.6833  0.9651
   34POPC  H14C 4514   3.709   3.763  11.276  1.9726  0.7269 -1.6136
   34POPC   C15 4515   3.580   3.586  11.433  0.2372  0.1160 -0.4520
   34POPC  H15A 4516   3.649   3.661  11.468 -1.5134  1.2124  0.7804
   34POPC  H15B 4517   3.596   3.496  11.492 -1.1729  0.1638  0.0383
   34POPC  H15C 4518   3.478   3.622  11.430  0.1242 -0.2282 -2.4215
   34POPC   C11 4519   3.561   3.456  11.056 -0.0760  0.4830  0.5239
   34POPC  H11A 4520   3.542   3.549  10.998  0.1890  0.6830  0.7538
   34POPC  H11B 4521   3.476   3.392  11.023 -0.6438  2.2896 -1.8229
   34POPC     P 4522   3.782   3.468  10.921  0.0223  0.1520  0.5519
   34POPC   O13 4523   3.914   3.399  10.941 -0.0497  1.1683  0.6176
   34POPC   O14 4524   3.770   3.611  10.940 -0.9996  0.0833 -0.4716
   34POPC   O12 4525   3.685   3.389  11.015  0.3441 -0.5081 -0.2643
   34POPC   O11 4526   3.732   3.436  10.778  0.0917 -0.3419  0.2351
   34POPC    C1 4527   3.687   3.305  10.740 -0.3095  0.1310  0.4326
   34POPC    HA 4528   3.594   3.281  10.796 -0.0439  1.0171  1.2815
   34POPC    HB 4529   3.770   3.233  10.754 -1.7278 -1.7139 -0.1802
   34POPC    C2 4530   3.650   3.286  10.586 -0.4356  0.0601  0.1973
   34POPC    HS 4531   3.600   3.189  10.567  4.9147 -2.8781 -1.0500
   34POPC   O21 4532   3.773   3.269  10.509  0.1497 -0.5424  0.3154
   34POPC   C21 4533   3.826   3.149  10.523 -0.2151 -0.3650  0.4161
   34POPC   O22 4534   3.786   3.059  10.592  0.6302 -0.3650  0.6369
   34POPC   C22 4535   3.960   3.141  10.441  0.6811  0.3035 -0.2355
   34POPC   H2R 4536   4.004   3.042  10.466 -0.0759 -0.5627 -2.0769
   34POPC   H2S 4537   4.022   3.224  10.480 -0.5990 -0.0922  2.8927
   34POPC    C3 4538   3.555   3.396  10.529 -0.5263 -0.5801 -0.3540
   34POPC    HX 4539   3.590   3.500  10.545 -0.9593 -0.4540 -0.2102
   34POPC    HY 4540   3.469   3.391  10.599  0.6845 -0.3079  1.2104
   34POPC   O31 4541   3.516   3.361  10.395 -0.3782  0.8751  0.3420
   34POPC   C31 4542   3.496   3.463  10.320  0.1904  0.6997 -0.0377
   34POPC   O32 4543   3.510   3.580  10.341  0.3998 -0.7615 -0.0653
   34POPC   C32 4544   3.441   3.408  10.184 -0.1592 -0.1234  0.5023
   34POPC   H2X 4545   3.351   3.346  10.204  0.6955 -1.5868  0.0191
   34POPC   H2Y 4546   3.519   3.342  10.141  0.9370  0.0334  2.1850
   34POPC   C23 4547   3.932   3.167  10.291  0.5068  0.0199  0.3623
   34POPC   H3R 4548   3.882   3.263  10.268  0.9482 -0.4542 -3.1852
   34POPC   H3S 4549   3.864   3.084  10.261 -1.7929  1.4674  1.3427
   34POPC   C24 4550   4.058   3.166  10.206 -0.0034  0.3369 -0.7433
   34POPC   H4R 4551   4.108   3.067  10.219 -0.6262  0.2327  1.1348
   34POPC   H4S 4552   4.122   3.252  10.235  1.5116 -1.1067  0.4188
   34POPC   C25 4553   4.021   3.178  10.050  0.8408  0.1591 -0.0088
   34POPC   H5R 4554   3.961   3.087  10.027  0.2381 -0.0141  2.0272
   34POPC   H5S 4555   4.115   3.158   9.994  1.1614 -0.6377  0.7756
   34POPC   C26 4556   3.943   3.305  10.004  0.0581  0.2703 -0.1805
   34POPC   H6R 4557   4.008   3.391  10.031 -0.5814  0.8460 -0.4644
   34POPC   H6S 4558   3.847   3.309  10.060  0.7442 -2.9240  1.4675
   34POPC   C27 4559   3.913   3.300   9.849 -0.5725 -0.9531  0.0803
   34POPC   H7R 4560   3.873   3.200   9.825 -0.3666 -0.4726 -2.5404
   34POPC   H7S 4561   3.993   3.300   9.772 -2.8137  0.1783 -2.4026
   34POPC   C28 4562   3.809   3.412   9.815 -0.5897  0.4617  0.9497
   34POPC   H8R 4563   3.717   3.399   9.877 -1.2718  3.3651  0.7356
   34POPC   H8S 4564   3.774   3.400   9.711 -0.6833  0.6125  0.9621
   34POPC   C29 4565   3.848   3.556   9.847  1.1399 -0.4258 -0.4184
   34POPC   H91 4566   3.905   3.568   9.940  0.5975 -1.3277  0.0457
   34POPC  C210 4567   3.829   3.665   9.771  0.3579 -0.0487  0.1828
   34POPC  H101 4568   3.876   3.758   9.805 -2.0459  1.9022 -1.4533
   34POPC  C211 4569   3.765   3.675   9.638  0.3928  0.6559 -0.1262
   34POPC  H11R 4570   3.663   3.721   9.639 -0.0033 -0.1352 -1.2803
   34POPC  H11S 4571   3.746   3.570   9.608  1.4573  0.7817 -1.3202
   34POPC  C212 4572   3.839   3.741   9.522 -0.1642 -0.2345 -0.0167
   34POPC  H12R 4573   3.914   3.668   9.485 -0.1770  0.2673 -1.0635
   34POPC  H12S 4574   3.888   3.834   9.560  0.5646 -0.2823 -0.7953
   34POPC  C213 4575   3.748   3.805   9.415  0.2554 -0.1321 -0.1773
   34POPC  H13R 4576   3.711   3.904   9.451 -2.7100 -1.0211 -0.5501
   34POPC  H13S 4577   3.671   3.733   9.379  1.6159 -1.0712 -1.3193
   34POPC  C214 4578   3.838   3.856   9.294  0.2909  0.0998  0.3903
   34POPC  H14R 4579   3.941   3.815   9.296  0.2379 -0.3087 -1.9565
   34POPC  H14S 4580   3.864   3.963   9.309 -1.5695  0.4091  1.9296
   34POPC  C215 4581   3.794   3.812   9.151  0.0170  0.0131 -0.2213
   34POPC  H15R 4582   3.684   3.826   9.151  0.1067  0.8667 -1.2448
   34POPC  H15S 4583   3.822   3.706   9.140  0.8662  0.1368  0.6327
   34POPC  C216 4584   3.859   3.887   9.044  0.6865 -0.4428 -0.1519
   34POPC  H16R 4585   3.969   3.869   9.045  0.7974  0.0816 -1.2420
   34POPC  H16S 4586   3.854   3.994   9.073  0.3311 -0.0858 -1.4598
   34POPC  C217 4587   3.800   3.865   8.906  0.3918 -0.9141  0.3934
   34POPC  H17R 4588   3.695   3.899   8.920  1.1588  1.4480  0.9029
   34POPC  H17S 4589   3.808   3.756   8.887 -0.0208 -1.1332  1.4321
   34POPC  C218 4590   3.862   3.959   8.798  0.0047 -0.1698  0.1528
   34POPC  H18R 4591   3.946   3.911   8.744 -0.0476  1.3609 -1.3944
   34POPC  H18S 4592   3.906   4.050   8.843 -0.1354  1.1961 -2.3222
   34POPC  H18T 4593   3.793   3.990   8.716  0.4137 -0.8804 -0.4782
   34POPC   C33 4594   3.416   3.517  10.080  0.3556 -0.3029 -0.0777
   34POPC   H3X 4595   3.479   3.608  10.080 -0.0222  0.0020  1.6326
   34POPC   H3Y 4596   3.318   3.564  10.102  0.3456  0.3665 -1.4917
   34POPC   C34 4597   3.400   3.460   9.937  0.1790  0.3313 -0.0271
   34POPC   H4X 4598   3.316   3.387   9.935 -1.6187  2.1861 -4.0887
   34POPC   H4Y 4599   3.488   3.400   9.905 -0.0017 -1.2070  2.1296
   34POPC   C35 4600   3.374   3.572   9.835  0.6433 -0.3097  0.4366
   34POPC   H5X 4601   3.462   3.641   9.833  0.6637 -0.2663  1.6138
   34POPC   H5Y 4602   3.281   3.620   9.873  1.5671 -0.0616  2.5662
   34POPC   C36 4603   3.337   3.537   9.689 -0.4626 -0.4837 -0.1239
   34POPC   H6X 4604   3.301   3.432   9.686  2.0333 -1.4578  1.6170
   34POPC   H6Y 4605   3.436   3.546   9.641 -0.7299  2.4694 -0.3189
   34POPC   C37 4606   3.244   3.638   9.616  0.5493  0.1553  0.2400
   34POPC   H7X 4607   3.263   3.741   9.653  0.6182 -0.3441  1.6660
   34POPC   H7Y 4608   3.136   3.616   9.623  0.0673  1.7614 -1.4963
   34POPC   C38 4609   3.258   3.652   9.458  0.2932  0.1938  0.1422
   34POPC   H8X 4610   3.166   3.704   9.423 -0.2535 -0.8991 -0.0861
   34POPC   H8Y 4611   3.272   3.552   9.411  2.1401  0.9275 -1.0092
   34POPC   C39 4612   3.389   3.710   9.405 -0.0822  0.5603 -0.1343
   34POPC   H9X 4613   3.472   3.641   9.430 -1.7797 -0.9425  1.7342
   34POPC   H9Y 4614   3.416   3.804   9.458 -0.6933  0.8750 -0.3598
   34POPC  C310 4615   3.393   3.746   9.264  0.2954  0.1870  0.0117
   34POPC  H10X 4616   3.326   3.671   9.217 -0.0769 -0.4423  1.4889
   34POPC  H10Y 4617   3.494   3.731   9.219  1.0515  0.4373  1.5801
   34POPC  C311 4618   3.343   3.892   9.238 -0.1432  1.4804  0.0757
   34POPC  H11X 4619   3.422   3.958   9.278  1.0102 -0.4281  1.0560
   34POPC  H11Y 4620   3.243   3.910   9.284  0.5064  1.2245  1.6379
   34POPC  C312 4621   3.322   3.908   9.091  0.0940 -0.2450  0.8320
   34POPC  H12X 4622   3.266   3.828   9.038 -0.3791 -0.1445  1.1666
   34POPC  H12Y 4623   3.419   3.912   9.037 -0.5812 -0.5379 -0.4498
   34POPC  C313 4624   3.248   4.040   9.053  0.0973  0.4210  0.4471
   34POPC  H13X 4625   3.287   4.133   9.098  1.3287 -0.1784  0.6637
   34POPC  H13Y 4626   3.142   4.026   9.085  0.7046 -3.2050  1.3968
   34POPC  C314 4627   3.241   4.074   8.897 -0.5953  0.0165 -0.2965
   34POPC  H14X 4628   3.339   4.118   8.869  0.0445 -0.6568  0.8069
   34POPC  H14Y 4629   3.169   4.157   8.882  0.8571  1.4445  0.3369
   34POPC  C315 4630   3.198   3.959   8.811  0.7279 -0.1074 -0.0362
   34POPC  H15X 4631   3.272   3.878   8.797 -0.9493 -1.3802 -2.1953
   34POPC  H15Y 4632   3.206   4.019   8.717  0.6210  0.1157  0.0954
   34POPC  C316 4633   3.067   3.891   8.841  0.1574  0.8723 -0.2593
   34POPC  H16X 4634   3.079   3.788   8.882 -0.4489  1.7070  2.2246
   34POPC  H16Y 4635   3.010   3.873   8.748 -1.3026 -2.3328  1.0842
   34POPC  H16Z 4636   3.007   3.952   8.911 -0.5498  0.7917 -0.7934
   35POPC     N 4637   2.396   0.533  11.354 -0.2109 -0.1305  0.3070
   35POPC   C12 4638   2.320   0.496  11.228  0.8259 -0.5158 -0.3519
   35POPC  H12A 4639   2.308   0.578  11.159  0.1812 -0.7952 -0.5850
   35POPC  H12B 4640   2.218   0.509  11.264  1.3499  1.5731  0.4966
   35POPC   C13 4641   2.397   0.418  11.454 -0.4156  0.5392  0.0676
   35POPC  H13A 4642   2.305   0.363  11.455 -0.6263  0.8423 -1.1063
   35POPC  H13B 4643   2.471   0.346  11.419 -1.6045 -0.0805 -1.2487
   35POPC  H13C 4644   2.424   0.460  11.550  0.5760 -0.5880  0.3080
   35POPC   C14 4645   2.538   0.568  11.317  0.1092 -0.0011  0.3320
   35POPC  H14A 4646   2.580   0.483  11.265 -1.1213 -0.0577 -0.6033
   35POPC  H14B 4647   2.534   0.647  11.243  0.0958  1.7040  2.0777
   35POPC  H14C 4648   2.603   0.607  11.394  0.1064 -0.7235  0.7065
   35POPC   C15 4649   2.343   0.661  11.420  0.3533  0.1183  1.2277
   35POPC  H15A 4650   2.388   0.691  11.514 -0.3866  0.6341  1.4314
   35POPC  H15B 4651   2.237   0.657  11.442  0.1105 -1.4185 -0.0023
   35POPC  H15C 4652   2.357   0.742  11.350  0.0603 -1.2861 -0.5250
   35POPC   C11 4653   2.342   0.365  11.152 -0.0628 -0.0285  0.3888
   35POPC  H11A 4654   2.276   0.364  11.063  0.4710  0.0740 -0.0080
   35POPC  H11B 4655   2.311   0.280  11.218  1.0800 -0.1216  0.8359
   35POPC     P 4656   2.558   0.230  11.148 -0.2709  0.3689  0.0083
   35POPC   O13 4657   2.563   0.206  11.292 -0.1851 -0.1753  0.4265
   35POPC   O14 4658   2.689   0.243  11.075  0.1177 -0.0869 -0.0611
   35POPC   O12 4659   2.474   0.357  11.105  0.5775  0.0227  0.1948
   35POPC   O11 4660   2.478   0.111  11.083  1.0068 -0.4314 -0.0763
   35POPC    C1 4661   2.514  -0.020  11.106  0.7545  0.2193  0.0342
   35POPC    HA 4662   2.433  -0.071  11.051  0.1254  0.7536  0.4503
   35POPC    HB 4663   2.505  -0.052  11.212 -0.1581  0.1488 -0.0598
   35POPC    C2 4664   2.644  -0.059  11.041 -0.4578  0.3429 -0.2048
   35POPC    HS 4665   2.722  -0.024  11.112 -1.8360 -0.7408  1.9695
   35POPC   O21 4666   2.650  -0.015  10.904 -0.2911 -0.1790 -0.1273
   35POPC   C21 4667   2.775  -0.008  10.855  0.4490  0.3081  0.8476
   35POPC   O22 4668   2.879  -0.023  10.917  0.5083 -0.4277 -0.1404
   35POPC   C22 4669   2.759   0.049  10.719 -0.2026 -0.0737  0.6290
   35POPC   H2R 4670   2.751   0.159  10.733  1.2686 -0.1031  2.1176
   35POPC   H2S 4671   2.680   0.002  10.657  0.9927 -1.8922  0.4217
   35POPC    C3 4672   2.652  -0.212  11.048 -0.0136 -0.0784  0.6392
   35POPC    HX 4673   2.578  -0.252  10.975 -0.0399  2.1599 -0.6488
   35POPC    HY 4674   2.627  -0.238  11.153  1.9383 -0.1065  1.1315
   35POPC   O31 4675   2.791  -0.259  11.023 -0.0541 -0.3162 -0.3117
   35POPC   C31 4676   2.800  -0.355  10.930 -1.0188 -0.3316 -0.2789
   35POPC   O32 4677   2.710  -0.399  10.862  0.1989  0.5480 -0.3800
   35POPC   C32 4678   2.953  -0.393  10.924 -0.3676 -0.2312  0.0942
   35POPC   H2X 4679   2.956  -0.503  10.909  0.1267  0.0449 -2.3632
   35POPC   H2Y 4680   3.021  -0.362  11.005 -1.2851  0.4709  0.6175
   35POPC   C23 4681   2.893   0.031  10.640  0.5563  0.3706  0.3768
   35POPC   H3R 4682   2.944  -0.067  10.655 -0.7177 -0.2259  1.0350
   35POPC   H3S 4683   2.967   0.103  10.680 -0.7434  1.7644  0.3454
   35POPC   C24 4684   2.871   0.061  10.496 -0.1890  0.9452 -0.8279
   35POPC   H4R 4685   2.815   0.155  10.478 -0.2326  1.0920  0.0412
   35POPC   H4S 4686   2.809  -0.020  10.452  1.4617 -0.0643 -1.4131
   35POPC   C25 4687   2.997   0.070  10.405 -0.0677 -0.2838  0.9089
   35POPC   H5R 4688   3.061  -0.020  10.413 -0.8611 -0.8810  0.6332
   35POPC   H5S 4689   3.055   0.160  10.437  0.6877 -0.9024  1.3162
   35POPC   C26 4690   2.957   0.081  10.260 -0.9156  0.5989 -1.5718
   35POPC   H6R 4691   2.892   0.171  10.266 -1.1328  0.3479  1.4378
   35POPC   H6S 4692   2.889  -0.001  10.227 -1.1600  0.2678 -0.2974
   35POPC   C27 4693   3.079   0.105  10.161 -0.3748  0.3500 -0.4834
   35POPC   H7R 4694   3.152   0.021  10.159 -1.9466 -1.1433  0.9847
   35POPC   H7S 4695   3.108   0.208  10.190 -1.0759  0.5162 -0.3415
   35POPC   C28 4696   3.029   0.113  10.017 -0.2126 -0.0201  0.6795
   35POPC   H8R 4697   2.931   0.164  10.023 -0.1444  0.0171  1.8629
   35POPC   H8S 4698   3.007   0.013   9.973 -0.4570  1.1319 -1.9716
   35POPC   C29 4699   3.120   0.195   9.932 -0.1992 -0.1586  0.0422
   35POPC   H91 4700   3.155   0.286   9.982  0.5834 -0.9436  0.9524
   35POPC  C210 4701   3.141   0.184   9.800  0.0672  0.3204 -0.5280
   35POPC  H101 4702   3.208   0.260   9.756  0.3046  1.3995  1.5724
   35POPC  C211 4703   3.079   0.094   9.702 -0.1540 -0.0174  0.7102
   35POPC  H11R 4704   3.011   0.023   9.753 -0.5541 -0.6968 -0.7162
   35POPC  H11S 4705   3.175   0.047   9.671 -2.1485 -2.7474 -1.8400
   35POPC  C212 4706   3.019   0.175   9.585 -0.5660 -0.4212 -0.3538
   35POPC  H12R 4707   3.109   0.223   9.540  0.4281 -1.4825  0.4229
   35POPC  H12S 4708   2.959   0.261   9.621  1.4803  1.4111 -1.1148
   35POPC  C213 4709   2.945   0.103   9.484  0.3637  0.2961 -0.3983
   35POPC  H13R 4710   2.863   0.042   9.528  2.1818 -3.3177 -1.6009
   35POPC  H13S 4711   3.006   0.027   9.431  0.5867 -0.6637  1.1687
   35POPC  C214 4712   2.896   0.196   9.372 -0.7297 -0.4403 -0.1596
   35POPC  H14R 4713   2.978   0.255   9.326 -2.4578  0.7462 -1.8282
   35POPC  H14S 4714   2.820   0.263   9.416 -0.5964 -0.6395  0.3857
   35POPC  C215 4715   2.838   0.126   9.248  0.4680 -0.4330 -0.3619
   35POPC  H15R 4716   2.927   0.074   9.207  0.2377 -2.0275  1.0075
   35POPC  H15S 4717   2.794   0.200   9.178 -0.6295  0.3755  1.1191
   35POPC  C216 4718   2.727   0.028   9.293  0.5538  0.1946 -0.2114
   35POPC  H16R 4719   2.667   0.076   9.373  1.4534  1.4462 -0.2573
   35POPC  H16S 4720   2.780  -0.053   9.348  1.6307  1.2908  0.4297
   35POPC  C217 4721   2.639  -0.018   9.182 -0.2762  0.2089 -0.0803
   35POPC  H17R 4722   2.575  -0.104   9.212 -0.1819  0.1202 -0.1303
   35POPC  H17S 4723   2.690  -0.045   9.087  0.8935 -0.6322  0.7483
   35POPC  C218 4724   2.526   0.080   9.143  0.7746  0.5466  0.5064
   35POPC  H18R 4725   2.573   0.179   9.126 -0.2944  1.1884  1.1888
   35POPC  H18S 4726   2.445   0.087   9.219 -0.8716  1.0290 -1.2252
   35POPC  H18T 4727   2.478   0.042   9.050  0.8598  0.8439  0.3408
   35POPC   C33 4728   3.011  -0.332  10.799  0.6641 -0.0690  0.9306
   35POPC   H3X 4729   3.118  -0.360  10.784  0.2121 -0.3436 -2.8688
   35POPC   H3Y 4730   2.992  -0.223  10.793  0.2229 -0.2031 -0.6478
   35POPC   C34 4731   2.948  -0.383  10.669  0.1002  0.0029 -1.0988
   35POPC   H4X 4732   2.851  -0.331  10.652  0.6452  1.0657 -1.0453
   35POPC   H4Y 4733   2.927  -0.490  10.688  2.6464 -0.8578 -2.6539
   35POPC   C35 4734   3.030  -0.375  10.546  0.5567 -0.2666  0.5226
   35POPC   H5X 4735   3.124  -0.431  10.564  1.2581  0.8247  0.3433
   35POPC   H5Y 4736   3.046  -0.270  10.514 -0.2384 -0.2530  0.1533
   35POPC   C36 4737   2.959  -0.444  10.427 -0.0230 -0.3525  0.6423
   35POPC   H6X 4738   2.855  -0.412  10.408  0.2977 -0.8429 -2.4702
   35POPC   H6Y 4739   2.954  -0.553  10.447 -1.2238 -0.2236  1.1278
   35POPC   C37 4740   3.035  -0.441  10.290 -0.4079  0.0384  0.1445
   35POPC   H7X 4741   2.971  -0.495  10.217  0.2197 -0.9977  0.3395
   35POPC   H7Y 4742   3.130  -0.498  10.295  0.0530  0.9222  2.8635
   35POPC   C38 4743   3.060  -0.302  10.241  0.8159 -0.0620 -0.0202
   35POPC   H8X 4744   3.145  -0.263  10.301  1.5786 -3.7272  1.6003
   35POPC   H8Y 4745   2.979  -0.228  10.259 -0.2053 -0.3987 -2.6788
   35POPC   C39 4746   3.086  -0.291  10.089  0.7873 -0.2047 -0.6272
   35POPC   H9X 4747   3.172  -0.357  10.063  0.5832 -0.6940 -0.0759
   35POPC   H9Y 4748   3.112  -0.185  10.066  1.9850  0.1113  1.8657
   35POPC  C310 4749   2.970  -0.320   9.993 -0.7780  0.3415 -0.8361
   35POPC  H10X 4750   2.898  -0.238  10.012  0.9177  1.8195 -0.6132
   35POPC  H10Y 4751   2.917  -0.417  10.012 -1.7760  0.8421 -1.0008
   35POPC  C311 4752   3.007  -0.305   9.837  0.2051  0.6244 -0.0690
   35POPC  H11X 4753   3.087  -0.378   9.808 -0.1446 -0.3218  1.2204
   35POPC  H11Y 4754   3.035  -0.198   9.829 -0.2110  0.7733  0.4479
   35POPC  C312 4755   2.879  -0.329   9.754 -0.2030  0.3558  0.3448
   35POPC  H12X 4756   2.800  -0.253   9.775 -0.6789  0.1600 -0.6856
   35POPC  H12Y 4757   2.844  -0.428   9.790  1.8685  0.7738  4.0908
   35POPC  C313 4758   2.903  -0.326   9.605 -0.1387 -0.4868  0.4481
   35POPC  H13X 4759   2.990  -0.388   9.574  0.3008  0.6947 -0.7873
   35POPC  H13Y 4760   2.930  -0.224   9.570  0.9423 -0.8389  0.2013
   35POPC  C314 4761   2.789  -0.382   9.514 -0.7399 -0.0410 -0.1892
   35POPC  H14X 4762   2.786  -0.491   9.536 -0.6277 -0.2835 -1.3227
   35POPC  H14Y 4763   2.817  -0.373   9.407 -0.5362  0.6804 -0.0823
   35POPC  C315 4764   2.655  -0.290   9.523 -0.2742  0.5308 -0.8750
   35POPC  H15X 4765   2.697  -0.190   9.497 -0.7118  0.6189 -1.2604
   35POPC  H15Y 4766   2.604  -0.300   9.621 -0.8556 -0.1830 -1.2361
   35POPC  C316 4767   2.553  -0.329   9.416  0.3540 -0.2010 -0.2048
   35POPC  H16X 4768   2.605  -0.380   9.332  1.5866  1.8678 -0.7601
   35POPC  H16Y 4769   2.508  -0.240   9.369 -0.9881 -0.3908  0.6758
   35POPC  H16Z 4770   2.466  -0.380   9.462 -0.3051  0.8884 -0.2352
   36POPC     N 4771   4.203   4.989  10.885  0.2040 -0.7044 -0.0116
   36POPC   C12 4772   4.329   5.076  10.878  0.7489  0.1053  0.1475
   36POPC  H12A 4773   4.304   5.169  10.829 -2.3287 -0.6653  0.0234
   36POPC  H12B 4774   4.393   5.031  10.804  1.1277  0.0046  0.5297
   36POPC   C13 4775   4.144   4.947  10.754 -0.5555  0.2329  0.3713
   36POPC  H13A 4776   4.223   4.920  10.686 -1.7269  1.4786 -1.5964
   36POPC  H13B 4777   4.078   4.862  10.765 -1.2746  0.5082 -1.4718
   36POPC  H13C 4778   4.085   5.028  10.712 -0.4893  0.2974  0.4018
   36POPC   C14 4779   4.234   4.865  10.960  0.0383 -0.9789 -0.3233
   36POPC  H14A 4780   4.268   4.880  11.062 -1.1453 -1.1638  0.1144
   36POPC  H14B 4781   4.142   4.811  10.979 -0.8159  0.8881  1.2251
   36POPC  H14C 4782   4.307   4.806  10.906  0.3770 -1.4336  0.6033
   36POPC   C15 4783   4.094   5.065  10.953  0.6405  0.2235  0.1552
   36POPC  H15A 4784   4.129   5.094  11.051 -0.8067  0.0147  0.7541
   36POPC  H15B 4785   4.007   5.003  10.967 -0.7951  2.4368  1.8036
   36POPC  H15C 4786   4.061   5.147  10.891 -2.5050 -0.5075  0.7015
   36POPC   C11 4787   4.402   5.112  11.010  0.3848  0.5835  0.8200
   36POPC  H11A 4788   4.498   5.154  10.972 -0.1574  0.8930 -0.2531
   36POPC  H11B 4789   4.422   5.021  11.070  0.3500  0.2103  0.2788
   36POPC     P 4790   4.332   5.367  11.035 -0.2763  0.0643 -0.4487
   36POPC   O13 4791   4.461   5.436  11.057 -0.2463  0.3888 -0.0337
   36POPC   O14 4792   4.215   5.429  11.099  0.0218  0.8649  0.7608
   36POPC   O12 4793   4.348   5.220  11.088 -0.8233  0.3623 -0.8012
   36POPC   O11 4794   4.315   5.355  10.883  0.0817 -0.3564 -0.1509
   36POPC    C1 4795   4.396   5.432  10.791  0.0721 -0.9731  0.2903
   36POPC    HA 4796   4.486   5.367  10.780  0.3059 -0.9769  1.9111
   36POPC    HB 4797   4.431   5.529  10.831  1.1624 -1.1818 -0.1153
   36POPC    C2 4798   4.329   5.454  10.656  0.8902  0.2372 -0.4484
   36POPC    HS 4799   4.226   5.414  10.669  0.1306  1.9887 -0.7451
   36POPC   O21 4800   4.405   5.396  10.552  0.5683  0.0831  0.2657
   36POPC   C21 4801   4.390   5.260  10.530  0.2534  0.5589  0.1155
   36POPC   O22 4802   4.305   5.188  10.572  0.8063  0.3590 -0.8586
   36POPC   C22 4803   4.499   5.213  10.435  0.1999  0.7015 -0.1862
   36POPC   H2R 4804   4.540   5.117  10.476 -0.0540  0.2456 -0.9856
   36POPC   H2S 4805   4.586   5.282  10.443  1.3382 -0.6257 -0.6934
   36POPC    C3 4806   4.317   5.604  10.620  0.1178  0.1345  0.8574
   36POPC    HX 4807   4.422   5.637  10.604  1.3503 -2.9307  1.7806
   36POPC    HY 4808   4.280   5.664  10.707 -0.7096  0.5998  0.1986
   36POPC   O31 4809   4.227   5.622  10.507 -0.1701 -0.5325  0.3117
   36POPC   C31 4810   4.256   5.739  10.457  0.4849 -0.1356 -0.5422
   36POPC   O32 4811   4.319   5.825  10.515 -0.5562  0.1527  0.2504
   36POPC   C32 4812   4.236   5.747  10.303 -0.0861 -0.3254  0.6083
   36POPC   H2X 4813   4.163   5.671  10.270  3.1727 -2.8026 -1.5629
   36POPC   H2Y 4814   4.328   5.706  10.256 -1.9217 -1.0384 -2.6946
   36POPC   C23 4815   4.445   5.179  10.294  0.3724 -0.6939 -0.0551
   36POPC   H3R 4816   4.354   5.119  10.310 -1.4497  1.8537 -0.1907
   36POPC   H3S 4817   4.515   5.113  10.238  1.1839 -1.0545  1.3271
   36POPC   C24 4818   4.425   5.310  10.213 -0.1308  0.1423  0.0223
   36POPC   H4R 4819   4.527   5.338  10.180 -0.3967 -0.0180 -0.9667
   36POPC   H4S 4820   4.390   5.395  10.277 -1.1633  0.6309 -1.1425
   36POPC   C25 4821   4.346   5.290  10.088  0.4979  1.1666 -0.3522
   36POPC   H5R 4822   4.241   5.263  10.110  1.5556 -0.9080  2.8941
   36POPC   H5S 4823   4.392   5.205  10.034  1.0070  0.4771  1.1223
   36POPC   C26 4824   4.342   5.417  10.000 -0.3307 -0.5967 -0.2836
   36POPC   H6R 4825   4.443   5.462  10.005  0.0914 -1.1483 -2.8521
   36POPC   H6S 4826   4.278   5.493  10.049  1.4072  1.5743 -1.2526
   36POPC   C27 4827   4.308   5.410   9.847  0.4157  0.6519  0.3029
   36POPC   H7R 4828   4.285   5.512   9.811 -1.7981  0.5295  1.1684
   36POPC   H7S 4829   4.212   5.353   9.841 -0.9543  2.6631  1.7986
   36POPC   C28 4830   4.413   5.345   9.762 -0.1212  0.0789 -0.0854
   36POPC   H8R 4831   4.461   5.267   9.825  2.2383 -1.3893 -3.4191
   36POPC   H8S 4832   4.503   5.411   9.761  0.0100 -0.0942  0.1268
   36POPC   C29 4833   4.404   5.292   9.627  0.0445  0.6485 -0.4918
   36POPC   H91 4834   4.380   5.185   9.616  1.0544  0.4464 -0.9146
   36POPC  C210 4835   4.436   5.362   9.516  0.1381  0.7065 -0.5630
   36POPC  H101 4836   4.441   5.307   9.421 -0.0053  2.2688 -1.5039
   36POPC  C211 4837   4.470   5.504   9.522  0.2194 -1.0865  0.1201
   36POPC  H11R 4838   4.448   5.548   9.621  0.9999  1.0374 -0.5996
   36POPC  H11S 4839   4.410   5.557   9.445 -1.7740 -1.6821  1.1881
   36POPC  C212 4840   4.619   5.536   9.501 -0.0364 -0.0400 -0.1960
   36POPC  H12R 4841   4.674   5.502   9.592  2.5419  0.9229 -1.2926
   36POPC  H12S 4842   4.625   5.647   9.501  2.5395 -0.1309 -0.7658
   36POPC  C213 4843   4.671   5.473   9.374  0.4410  1.0662 -0.4437
   36POPC  H13R 4844   4.587   5.443   9.307  2.2541 -2.6791 -1.3430
   36POPC  H13S 4845   4.718   5.374   9.393  3.1569  2.5248  0.9842
   36POPC  C214 4846   4.787   5.560   9.325  0.1958 -0.0473 -0.1796
   36POPC  H14R 4847   4.868   5.506   9.273  0.7844  1.5944 -1.0309
   36POPC  H14S 4848   4.838   5.604   9.413 -1.2349 -0.0066  0.6722
   36POPC  C215 4849   4.736   5.674   9.233  0.0274  0.8574  0.3899
   36POPC  H15R 4850   4.830   5.730   9.216  1.1891  0.1703  3.7569
   36POPC  H15S 4851   4.676   5.749   9.288 -0.9115  2.5470 -2.7035
   36POPC  C216 4852   4.677   5.632   9.095 -0.9011  0.1652  0.0627
   36POPC  H16R 4853   4.626   5.534   9.100 -0.1840 -0.3720 -2.1134
   36POPC  H16S 4854   4.756   5.619   9.017 -0.6742  0.2744  0.2714
   36POPC  C217 4855   4.592   5.737   9.034 -0.6741 -0.2143 -0.2071
   36POPC  H17R 4856   4.654   5.824   9.004  1.8308 -1.5481  0.8120
   36POPC  H17S 4857   4.530   5.776   9.118  2.9679  2.4780  1.5076
   36POPC  C218 4858   4.507   5.682   8.926 -0.4712  0.0134 -0.0798
   36POPC  H18R 4859   4.558   5.602   8.869  0.9753  1.3246 -0.6961
   36POPC  H18S 4860   4.472   5.761   8.856 -0.7762 -1.2375 -1.3945
   36POPC  H18T 4861   4.414   5.642   8.972  0.9457 -0.1628  2.8541
   36POPC   C33 4862   4.215   5.891  10.246 -0.0227 -0.0039 -1.2637
   36POPC   H3X 4863   4.290   5.961  10.290 -1.2638 -0.5227  1.9918
   36POPC   H3Y 4864   4.117   5.924  10.287  0.0659  1.0412 -1.8657
   36POPC   C34 4865   4.198   5.908  10.096  0.5683 -0.5280  0.5432
   36POPC   H4X 4866   4.174   6.013  10.071  1.7542 -0.2871  0.3336
   36POPC   H4Y 4867   4.109   5.854  10.059  0.3226 -0.9884  1.7597
   36POPC   C35 4868   4.316   5.862  10.016  0.1525 -0.3796 -0.0641
   36POPC   H5X 4869   4.304   5.887   9.909 -2.1105 -1.3903 -0.1070
   36POPC   H5Y 4870   4.323   5.751  10.017 -0.5881 -0.4918 -2.0583
   36POPC   C36 4871   4.446   5.923  10.061  0.3523 -0.5309  0.6752
   36POPC   H6X 4872   4.468   5.900  10.168 -0.5743 -0.7971  0.8133
   36POPC   H6Y 4873   4.439   6.034  10.053  2.0471 -0.4511 -0.2428
   36POPC   C37 4874   4.562   5.858   9.984  0.4146  0.8427  0.2274
   36POPC   H7X 4875   4.553   5.747   9.980  2.3323  0.6396  0.6948
   36POPC   H7Y 4876   4.656   5.860  10.043 -0.1573 -1.1850  1.3104
   36POPC   C38 4877   4.581   5.923   9.846  0.0712 -0.0025  0.1089
   36POPC   H8X 4878   4.684   5.952   9.818  0.1778 -1.8163 -1.6062
   36POPC   H8Y 4879   4.519   6.015   9.843 -1.4851 -1.0421 -1.7165
   36POPC   C39 4880   4.538   5.825   9.731 -0.5533  0.0397 -0.3357
   36POPC   H9X 4881   4.448   5.778   9.776 -0.1547 -0.8349 -0.4201
   36POPC   H9Y 4882   4.623   5.752   9.734  0.9744  1.7617  1.0337
   36POPC  C310 4883   4.508   5.900   9.599  0.2245 -0.0261  0.2915
   36POPC  H10X 4884   4.429   5.976   9.619 -2.1277 -1.9267 -1.2200
   36POPC  H10Y 4885   4.476   5.823   9.526  0.8656 -0.4621  0.4605
   36POPC  C311 4886   4.632   5.964   9.536 -0.5470 -0.0671  0.4602
   36POPC  H11X 4887   4.683   5.884   9.479 -0.9272  0.0748 -0.0872
   36POPC  H11Y 4888   4.698   5.992   9.621  0.4838 -1.3106  0.0818
   36POPC  C312 4889   4.585   6.087   9.444 -0.3796 -0.1517 -0.5725
   36POPC  H12X 4890   4.552   6.162   9.519 -0.1108 -1.3853  0.8441
   36POPC  H12Y 4891   4.501   6.056   9.379 -0.0962  0.1122 -1.0652
   36POPC  C313 4892   4.704   6.136   9.359 -0.4078 -1.3392  0.3499
   36POPC  H13X 4893   4.733   6.055   9.288  2.4744 -0.7162  0.6906
   36POPC  H13Y 4894   4.789   6.152   9.428 -0.4154  3.5597 -0.4232
   36POPC  C314 4895   4.662   6.261   9.275 -0.1084  0.0854  0.8371
   36POPC  H14X 4896   4.631   6.346   9.339 -1.9588 -0.5297  0.7961
   36POPC  H14Y 4897   4.572   6.238   9.215 -0.7141 -1.1907  2.1798
   36POPC  C315 4898   4.774   6.314   9.178 -0.8533  0.5593 -0.5918
   36POPC  H15X 4899   4.867   6.268   9.217 -1.0270  0.4221 -0.3393
   36POPC  H15Y 4900   4.773   6.422   9.204  0.3362 -0.2527  3.4738
   36POPC  C316 4901   4.754   6.281   9.031 -0.5676  0.1017  1.2746
   36POPC  H16X 4902   4.771   6.175   9.004 -0.4819  0.0472  1.5368
   36POPC  H16Y 4903   4.825   6.343   8.972 -0.7898 -0.1309  0.7581
   36POPC  H16Z 4904   4.655   6.315   8.995  0.0094  1.1329  0.6272
   37POPC     N 4905   2.914   2.721   6.298  0.2614  0.6527 -0.1381
   37POPC   C12 4906   2.961   2.615   6.398  0.0977  0.5488 -0.0577
   37POPC  H12A 4907   3.063   2.632   6.428  1.6929 -0.6279 -4.1854
   37POPC  H12B 4908   2.974   2.523   6.343 -2.5323 -0.5484  0.9760
   37POPC   C13 4909   2.897   2.853   6.369 -0.5030  0.5297  0.1921
   37POPC  H13A 4910   2.985   2.896   6.415 -1.0187  2.4914 -0.5343
   37POPC  H13B 4911   2.848   2.922   6.302  0.0591  0.2111 -0.5513
   37POPC  H13C 4912   2.833   2.839   6.455 -0.3415  1.4333  0.4765
   37POPC   C14 4913   3.012   2.739   6.188 -1.1103 -0.3088  0.3976
   37POPC  H14A 4914   3.010   2.648   6.130  0.0741 -0.9294  1.2748
   37POPC  H14B 4915   2.989   2.823   6.124  1.3949 -0.5679 -0.9617
   37POPC  H14C 4916   3.113   2.753   6.223 -0.5856 -0.5270 -0.9631
   37POPC   C15 4917   2.788   2.668   6.233 -0.2784  0.2919 -0.6421
   37POPC  H15A 4918   2.796   2.577   6.177  0.7707  0.9066 -1.5355
   37POPC  H15B 4919   2.766   2.735   6.151  3.1226  1.7484 -0.5334
   37POPC  H15C 4920   2.707   2.658   6.303 -1.7940 -0.9969 -2.4996
   37POPC   C11 4921   2.865   2.595   6.518 -0.4333  0.4161  0.2217
   37POPC  H11A 4922   2.889   2.498   6.567  0.1268  1.1947  1.5334
   37POPC  H11B 4923   2.762   2.583   6.478  0.1791  0.6693 -1.5030
   37POPC     P 4924   3.001   2.725   6.704  0.0954  0.5223  0.2438
   37POPC   O13 4925   3.016   2.870   6.715  0.3000  0.1478 -0.6201
   37POPC   O14 4926   3.119   2.651   6.644  0.4782 -0.0626 -0.5971
   37POPC   O12 4927   2.869   2.695   6.622 -0.1696 -0.9985 -0.3026
   37POPC   O11 4928   2.981   2.677   6.849  0.5560  0.4767  0.2318
   37POPC    C1 4929   2.881   2.584   6.890  0.1881 -0.0315  0.6903
   37POPC    HA 4930   2.892   2.497   6.821  1.2446  0.0507  0.7343
   37POPC    HB 4931   2.780   2.628   6.882 -0.0989 -0.7907 -0.1614
   37POPC    C2 4932   2.911   2.533   7.034  0.3431  0.5791 -0.1695
   37POPC    HS 4933   2.820   2.485   7.075  0.4445  0.7239  0.2297
   37POPC   O21 4934   2.958   2.636   7.122  0.3868 -0.1528 -0.3124
   37POPC   C21 4935   2.870   2.732   7.151 -0.0607 -0.4672 -0.1925
   37POPC   O22 4936   2.750   2.730   7.113  0.0406 -0.0280 -0.2545
   37POPC   C22 4937   2.932   2.837   7.244  0.3218 -0.3807  0.2470
   37POPC   H2R 4938   3.016   2.886   7.190  0.1537 -1.1193 -0.7092
   37POPC   H2S 4939   2.972   2.784   7.333 -0.8108  1.5202  1.9736
   37POPC    C3 4940   3.020   2.422   7.037  0.1449  0.3237 -0.1523
   37POPC    HX 4941   3.116   2.452   6.990 -0.2097  0.9334 -0.5087
   37POPC    HY 4942   2.990   2.332   6.980 -0.3674 -0.5139  1.3968
   37POPC   O31 4943   3.056   2.376   7.170 -0.5971 -0.7762  0.2607
   37POPC   C31 4944   2.989   2.267   7.214 -0.4737  0.7670 -0.4367
   37POPC   O32 4945   2.898   2.214   7.152  0.0489  0.5107 -0.1217
   37POPC   C32 4946   3.054   2.223   7.346 -0.3027  0.6572  0.3492
   37POPC   H2X 4947   3.079   2.309   7.413 -0.9963  1.6242 -0.5961
   37POPC   H2Y 4948   3.148   2.170   7.320 -1.1495 -0.7151  0.0133
   37POPC   C23 4949   2.825   2.942   7.288  0.3017 -0.1018 -0.0130
   37POPC   H3R 4950   2.785   2.992   7.197  3.5862  0.5713 -1.2345
   37POPC   H3S 4951   2.877   3.024   7.342  0.9996 -0.4989 -0.0827
   37POPC   C24 4952   2.712   2.901   7.387  0.1211 -1.4894  0.0200
   37POPC   H4R 4953   2.670   2.802   7.359 -1.3102 -0.2250 -2.7004
   37POPC   H4S 4954   2.635   2.980   7.380  1.4659 -0.2660 -2.0435
   37POPC   C25 4955   2.752   2.885   7.534 -0.0505 -0.8137 -1.0373
   37POPC   H5R 4956   2.775   2.983   7.580 -0.9255 -1.3335  0.6016
   37POPC   H5S 4957   2.848   2.828   7.533  0.0810 -0.6045 -0.4893
   37POPC   C26 4958   2.662   2.797   7.621 -0.1947 -0.4051  0.1911
   37POPC   H6R 4959   2.655   2.700   7.567 -0.6151 -0.6673  0.7086
   37POPC   H6S 4960   2.567   2.853   7.631  0.2423  0.4003  0.0184
   37POPC   C27 4961   2.717   2.789   7.763  0.4700 -0.7628  0.7172
   37POPC   H7R 4962   2.781   2.878   7.780  3.8145 -2.7177 -0.8263
   37POPC   H7S 4963   2.786   2.703   7.767  1.6228 -0.0299 -1.6979
   37POPC   C28 4964   2.612   2.768   7.873 -0.7585  0.3163 -0.3476
   37POPC   H8R 4965   2.545   2.856   7.874 -1.4074 -0.1609 -0.7363
   37POPC   H8S 4966   2.673   2.773   7.966  0.2691 -0.2407 -0.9680
   37POPC   C29 4967   2.532   2.639   7.866 -0.9506 -0.4888  0.2557
   37POPC   H91 4968   2.518   2.620   7.759 -3.4057  1.6065  0.0829
   37POPC  C210 4969   2.488   2.554   7.960 -0.0187 -0.1729  0.4211
   37POPC  H101 4970   2.449   2.460   7.920  3.6732 -1.6660 -0.0659
   37POPC  C211 4971   2.507   2.556   8.101 -0.9651  0.2567 -0.0215
   37POPC  H11R 4972   2.409   2.552   8.152 -0.1816  0.3556  1.5685
   37POPC  H11S 4973   2.562   2.645   8.137  0.2208  0.2140 -1.6055
   37POPC  C212 4974   2.573   2.422   8.145  0.2482 -0.8085 -0.2854
   37POPC  H12R 4975   2.661   2.404   8.080 -1.2200  1.1631 -3.0315
   37POPC  H12S 4976   2.507   2.334   8.131  0.9511 -2.0215  3.0534
   37POPC  C213 4977   2.617   2.433   8.293 -0.1493  0.1497 -0.7578
   37POPC  H13R 4978   2.648   2.336   8.338 -1.9401  0.2163  0.7268
   37POPC  H13S 4979   2.533   2.473   8.355  0.0110 -1.1581  0.3472
   37POPC  C214 4980   2.743   2.522   8.304 -0.0770 -0.4867  0.0599
   37POPC  H14R 4981   2.721   2.624   8.266 -0.6082 -0.4011  0.5822
   37POPC  H14S 4982   2.813   2.467   8.237 -1.3706 -0.1730 -1.6100
   37POPC  C215 4983   2.807   2.532   8.443  0.8011  0.4393 -0.1994
   37POPC  H15R 4984   2.817   2.428   8.480 -0.2602  0.5107  0.3348
   37POPC  H15S 4985   2.745   2.589   8.516  0.4834 -0.5756  0.3455
   37POPC  C216 4986   2.946   2.595   8.437 -0.0307 -1.1107  0.1703
   37POPC  H16R 4987   2.931   2.695   8.391 -3.6654 -1.3738  0.4815
   37POPC  H16S 4988   3.006   2.536   8.364  1.0930  1.8585 -1.4781
   37POPC  C217 4989   3.011   2.604   8.575 -0.2546 -0.4582  0.1416
   37POPC  H17R 4990   2.964   2.688   8.630  0.0945  0.6731 -1.2255
   37POPC  H17S 4991   3.116   2.630   8.552 -0.3653 -0.9157 -0.9399
   37POPC  C218 4992   3.000   2.473   8.654  0.3595 -0.9355  0.2177
   37POPC  H18R 4993   3.075   2.464   8.735  0.5292 -0.7405  0.0838
   37POPC  H18S 4994   3.015   2.390   8.581 -0.9851  1.7400 -3.3608
   37POPC  H18T 4995   2.899   2.449   8.695 -0.2421  0.8809 -0.1205
   37POPC   C33 4996   2.967   2.121   7.427  0.1032 -0.6922  0.0288
   37POPC   H3X 4997   2.947   2.027   7.371 -1.3299 -0.2480 -0.2548
   37POPC   H3Y 4998   2.866   2.163   7.450  0.8068  1.9013 -1.1884
   37POPC   C34 4999   3.028   2.089   7.556 -0.2571  0.3710  0.0129
   37POPC   H4X 5000   3.025   2.175   7.627  1.3375 -0.2493  0.9028
   37POPC   H4Y 5001   3.136   2.074   7.532 -0.3952  0.6846 -0.8169
   37POPC   C35 5002   2.979   1.958   7.626  0.4510 -0.3286 -0.4710
   37POPC   H5X 5003   2.996   1.871   7.559  0.3551 -2.7008  2.3645
   37POPC   H5Y 5004   2.871   1.963   7.649  0.1586 -1.0079 -1.6021
   37POPC   C36 5005   3.044   1.944   7.767 -0.0018 -0.5714 -0.4647
   37POPC   H6X 5006   3.003   2.019   7.837 -1.3626 -2.9280  1.4218
   37POPC   H6Y 5007   3.153   1.963   7.766 -0.0447 -0.2153  0.6445
   37POPC   C37 5008   3.000   1.823   7.834 -0.5416  0.8055  0.5713
   37POPC   H7X 5009   3.037   1.736   7.777 -0.7386  2.1252 -1.6802
   37POPC   H7Y 5010   2.890   1.813   7.846 -0.2115 -1.3183  2.7454
   37POPC   C38 5011   3.049   1.816   7.978 -0.6547  0.2984 -0.6777
   37POPC   H8X 5012   3.006   1.902   8.034  0.6388  0.0021  0.8456
   37POPC   H8Y 5013   3.159   1.833   7.982 -0.6453  0.2162 -0.5864
   37POPC   C39 5014   3.017   1.691   8.055 -0.1474  0.2830 -0.2907
   37POPC   H9X 5015   3.084   1.690   8.143  0.5424  0.5597 -0.8055
   37POPC   H9Y 5016   3.051   1.609   7.988  1.4828  2.8637 -2.8699
   37POPC  C310 5017   2.871   1.675   8.099  0.6648 -0.2425  0.1795
   37POPC  H10X 5018   2.813   1.704   8.009 -1.5567  2.9924  2.4272
   37POPC  H10Y 5019   2.834   1.753   8.168  1.4377  1.4489 -1.2493
   37POPC  C311 5020   2.843   1.537   8.152 -0.3680  0.3871 -0.2644
   37POPC  H11X 5021   2.888   1.453   8.095  0.9579  2.1311 -1.9720
   37POPC  H11Y 5022   2.735   1.514   8.144  0.1480 -1.6742 -2.5753
   37POPC  C312 5023   2.891   1.522   8.299  0.3641  0.4707 -0.1928
   37POPC  H12X 5024   2.853   1.612   8.354  0.7660  0.2227  0.5148
   37POPC  H12Y 5025   3.002   1.518   8.304  0.3654 -3.6485 -0.6691
   37POPC  C313 5026   2.856   1.388   8.363 -0.7224  0.4489  0.1849
   37POPC  H13X 5027   2.939   1.318   8.336 -0.0709  1.2260  0.1342
   37POPC  H13Y 5028   2.760   1.350   8.321 -0.5626 -0.0424  0.2493
   37POPC  C314 5029   2.838   1.384   8.511 -0.1202 -0.4174 -0.4147
   37POPC  H14X 5030   2.758   1.456   8.539 -0.6885 -0.7687 -1.1132
   37POPC  H14Y 5031   2.934   1.404   8.564 -0.3309 -0.7379  0.0968
   37POPC  C315 5032   2.795   1.245   8.566  0.0501  0.2419  0.0689
   37POPC  H15X 5033   2.881   1.175   8.569  0.0732  0.2737  0.1477
   37POPC  H15Y 5034   2.713   1.192   8.512 -0.5881 -2.1420  3.1017
   37POPC  C316 5035   2.750   1.261   8.717  0.6087 -0.1299  0.4484
   37POPC  H16X 5036   2.730   1.164   8.767  2.5953 -1.1292 -0.5611
   37POPC  H16Y 5037   2.663   1.327   8.742  0.5757 -1.0165  2.9464
   37POPC  H16Z 5038   2.838   1.307   8.767  2.6404 -2.7559 -0.4669
   38POPC     N 5039   3.837   5.451   6.570 -0.3140  0.1782  0.2901
   38POPC   C12 5040   3.704   5.398   6.513  0.7925  0.7143  0.2212
   38POPC  H12A 5041   3.692   5.293   6.531 -0.7694  0.4899 -1.7519
   38POPC  H12B 5042   3.713   5.414   6.407  1.3681 -0.4921  0.0823
   38POPC   C13 5043   3.875   5.588   6.522 -0.3563  0.0659  0.9716
   38POPC  H13A 5044   3.970   5.624   6.559 -0.8976  1.5600  0.9540
   38POPC  H13B 5045   3.895   5.592   6.416  0.3229  1.4730  1.1280
   38POPC  H13C 5046   3.807   5.669   6.541  2.7042  3.0015  0.3816
   38POPC   C14 5047   3.832   5.453   6.718  0.2353  0.5254 -0.1743
   38POPC  H14A 5048   3.922   5.486   6.768  0.0580 -2.7694  2.7670
   38POPC  H14B 5049   3.744   5.510   6.743 -0.6601 -1.6655  2.0520
   38POPC  H14C 5050   3.809   5.356   6.761  1.2777  0.5619  0.4956
   38POPC   C15 5051   3.952   5.352   6.530  0.0253 -0.1372  0.0104
   38POPC  H15A 5052   3.950   5.350   6.422  3.0640  1.5863 -0.1950
   38POPC  H15B 5053   3.940   5.254   6.573  3.4982 -0.0350  1.5538
   38POPC  H15C 5054   4.041   5.406   6.558 -0.5861  1.5634 -1.1205
   38POPC   C11 5055   3.565   5.455   6.551 -0.1770 -0.2023  0.5599
   38POPC  H11A 5056   3.556   5.434   6.660  1.0203 -0.2212  0.6635
   38POPC  H11B 5057   3.490   5.404   6.487 -0.7487  1.3790 -0.0871
   38POPC     P 5058   3.502   5.703   6.623  0.0335  0.0190  0.2874
   38POPC   O13 5059   3.360   5.689   6.617  0.1051 -0.0365 -0.3122
   38POPC   O14 5060   3.553   5.833   6.582 -0.7191  0.0369  0.2593
   38POPC   O12 5061   3.564   5.596   6.522 -0.2685  0.6686 -0.1788
   38POPC   O11 5062   3.570   5.661   6.755  0.1942  0.7400  0.1445
   38POPC    C1 5063   3.584   5.764   6.854 -0.2348  0.0219  0.1847
   38POPC    HA 5064   3.482   5.796   6.886 -0.6718 -0.5221 -0.6174
   38POPC    HB 5065   3.626   5.855   6.806  0.0518  0.8652  1.9587
   38POPC    C2 5066   3.670   5.708   6.964  0.3186  0.1233 -0.0197
   38POPC    HS 5067   3.658   5.780   7.048 -2.4955 -0.3246  0.0457
   38POPC   O21 5068   3.806   5.704   6.905 -0.0998 -0.5821 -0.2119
   38POPC   C21 5069   3.873   5.816   6.899  0.4645  0.6153  0.2194
   38POPC   O22 5070   3.833   5.925   6.936  0.4998  0.1492  0.2513
   38POPC   C22 5071   4.014   5.793   6.846  0.8892  0.2991 -0.7444
   38POPC   H2R 5072   4.061   5.890   6.870 -1.3810  1.5068 -0.9694
   38POPC   H2S 5073   4.015   5.763   6.739  3.5066 -0.9135 -0.4669
   38POPC    C3 5074   3.616   5.569   7.011  0.1534  0.0813 -0.4034
   38POPC    HX 5075   3.617   5.485   6.937 -0.4344 -0.1979 -0.0978
   38POPC    HY 5076   3.507   5.586   7.020  0.3443  2.4306 -1.7170
   38POPC   O31 5077   3.683   5.526   7.131  0.3018  0.5015 -0.3908
   38POPC   C31 5078   3.796   5.469   7.127 -0.1223 -0.9239  0.0577
   38POPC   O32 5079   3.869   5.452   7.028 -0.0524 -0.0166 -0.1955
   38POPC   C32 5080   3.823   5.398   7.259 -0.4301 -0.0033 -0.0218
   38POPC   H2X 5081   3.735   5.422   7.322  0.2573  1.5101  0.4086
   38POPC   H2Y 5082   3.912   5.444   7.306 -0.4111  1.3307 -1.2715
   38POPC   C23 5083   4.106   5.681   6.905 -0.6058  0.0942  0.4044
   38POPC   H3R 5084   4.184   5.646   6.835 -1.0950  1.7031 -1.0237
   38POPC   H3S 5085   4.032   5.600   6.921 -0.1795 -0.6723 -1.3253
   38POPC   C24 5086   4.172   5.703   7.041 -0.2727 -0.4222 -0.2594
   38POPC   H4R 5087   4.093   5.737   7.112  2.0176 -0.0962  2.3044
   38POPC   H4S 5088   4.258   5.773   7.039 -0.8285  0.2613 -0.6040
   38POPC   C25 5089   4.226   5.573   7.098 -0.6067  0.4089  0.1675
   38POPC   H5R 5090   4.308   5.542   7.030 -2.9455  0.3668 -2.8682
   38POPC   H5S 5091   4.154   5.490   7.081  0.4730 -0.6588  0.7349
   38POPC   C26 5092   4.264   5.575   7.247 -0.4598  0.3440  0.2780
   38POPC   H6R 5093   4.182   5.613   7.311  0.4858  1.3444  0.9274
   38POPC   H6S 5094   4.346   5.647   7.268  0.7923 -0.8867 -0.1817
   38POPC   C27 5095   4.311   5.437   7.288 -0.2951 -0.2545 -0.0264
   38POPC   H7R 5096   4.386   5.401   7.213 -0.2163 -1.0701  0.4376
   38POPC   H7S 5097   4.226   5.372   7.261  0.5175 -0.4171 -2.4661
   38POPC   C28 5098   4.365   5.445   7.433 -0.1334  0.7665  0.5515
   38POPC   H8R 5099   4.286   5.492   7.496 -2.3973  0.0705 -1.6168
   38POPC   H8S 5100   4.456   5.508   7.440  0.9859 -0.5591 -1.1872
   38POPC   C29 5101   4.383   5.302   7.482  0.0931 -0.0187 -0.1972
   38POPC   H91 5102   4.284   5.255   7.490 -0.9699  1.5873 -2.7957
   38POPC  C210 5103   4.496   5.239   7.523  0.6248  0.4697 -0.4241
   38POPC  H101 5104   4.490   5.137   7.566  0.6598  0.9754  0.8289
   38POPC  C211 5105   4.636   5.302   7.517  0.4140 -0.5195  0.4375
   38POPC  H11R 5106   4.628   5.413   7.511  0.3237 -0.5808 -1.2326
   38POPC  H11S 5107   4.687   5.262   7.427  0.4504 -1.0232  0.6816
   38POPC  C212 5108   4.728   5.249   7.637  0.5413  0.3793 -0.4534
   38POPC  H12R 5109   4.828   5.281   7.601 -0.1823 -1.2583 -4.4571
   38POPC  H12S 5110   4.709   5.140   7.643 -2.8560  0.8912 -0.0112
   38POPC  C213 5111   4.673   5.300   7.775 -0.7797  0.1912 -0.3714
   38POPC  H13R 5112   4.573   5.253   7.789 -1.3424  1.2233 -0.8339
   38POPC  H13S 5113   4.650   5.409   7.776  0.4820  0.4814  1.5306
   38POPC  C214 5114   4.772   5.248   7.888 -0.1182  0.1759  0.2340
   38POPC  H14R 5115   4.876   5.287   7.878  0.2374 -0.9625 -0.6083
   38POPC  H14S 5116   4.775   5.138   7.875 -1.6166  0.1470 -0.0427
   38POPC  C215 5117   4.703   5.284   8.019  0.5125 -0.6109  0.2880
   38POPC  H15R 5118   4.592   5.279   8.013  0.2309  0.7095  2.9301
   38POPC  H15S 5119   4.717   5.394   8.032  0.5300 -0.8077  2.1673
   38POPC  C216 5120   4.738   5.215   8.147 -0.7003  0.1187  0.3397
   38POPC  H16R 5121   4.705   5.109   8.139 -2.3341  0.6338 -0.1162
   38POPC  H16S 5122   4.680   5.250   8.234  0.2046 -0.1894  1.0848
   38POPC  C217 5123   4.893   5.214   8.176  0.8940  0.1774 -0.1925
   38POPC  H17R 5124   4.928   5.320   8.178 -3.6345  1.9652  3.5403
   38POPC  H17S 5125   4.933   5.165   8.085  1.1321  0.6276 -0.3353
   38POPC  C218 5126   4.919   5.139   8.302  0.1102 -0.3510  0.3386
   38POPC  H18R 5127   4.900   5.031   8.285 -0.1940 -0.3882  0.8827
   38POPC  H18S 5128   4.854   5.182   8.381  0.0760  2.5836 -1.1395
   38POPC  H18T 5129   5.027   5.149   8.328 -0.0406 -1.4224  1.4782
   38POPC   C33 5130   3.833   5.238   7.267 -0.4203 -0.4626 -0.2287
   38POPC   H3X 5131   3.778   5.214   7.174  0.0765  0.3948 -0.7616
   38POPC   H3Y 5132   3.781   5.221   7.364 -0.9196  1.1332 -0.1774
   38POPC   C34 5133   3.982   5.191   7.264 -0.2249  0.6448  0.0554
   38POPC   H4X 5134   4.039   5.242   7.345  0.4489 -0.6169  0.4010
   38POPC   H4Y 5135   4.022   5.210   7.162  1.7383 -1.4373  0.3727
   38POPC   C35 5136   3.998   5.036   7.286  0.0253 -0.4534 -0.3301
   38POPC   H5X 5137   3.947   4.971   7.212 -2.5117 -2.5425  3.0373
   38POPC   H5Y 5138   3.961   5.028   7.390  0.5836  2.3986  0.1814
   38POPC   C36 5139   4.155   5.017   7.290  0.8182 -0.0392 -0.0496
   38POPC   H6X 5140   4.202   5.103   7.341 -0.0085  0.4112 -0.0243
   38POPC   H6Y 5141   4.189   5.017   7.184  2.1162  0.5761  0.3561
   38POPC   C37 5142   4.204   4.883   7.353  0.8536  0.5048  0.5416
   38POPC   H7X 5143   4.312   4.897   7.375  1.2074  2.0820 -1.8402
   38POPC   H7Y 5144   4.198   4.799   7.280 -3.6006  0.4022  0.7717
   38POPC   C38 5145   4.139   4.837   7.484 -0.0688 -0.1683 -0.6246
   38POPC   H8X 5146   4.185   4.740   7.512  0.5507 -0.6698 -3.1300
   38POPC   H8Y 5147   4.037   4.804   7.453  0.0541 -0.3029 -0.8969
   38POPC   C39 5148   4.130   4.934   7.606  0.1343  0.0867 -0.3138
   38POPC   H9X 5149   4.085   4.887   7.696  1.2124  1.2415  0.8793
   38POPC   H9Y 5150   4.064   5.016   7.572 -1.4445 -0.8221  0.4707
   38POPC  C310 5151   4.276   4.974   7.647  0.3472  0.7977 -0.5745
   38POPC  H10X 5152   4.318   5.019   7.554  3.8579  0.2153  0.5705
   38POPC  H10Y 5153   4.325   4.877   7.669 -0.5660  0.6071  0.6948
   38POPC  C311 5154   4.280   5.071   7.761 -0.6385  0.1584 -0.1025
   38POPC  H11X 5155   4.225   5.162   7.729  0.1534  0.7476  0.1912
   38POPC  H11Y 5156   4.385   5.099   7.784 -0.5067 -0.2046 -0.2567
   38POPC  C312 5157   4.214   5.028   7.895  0.5300  0.6570  0.1230
   38POPC  H12X 5158   4.265   4.938   7.936  1.0636  0.5496 -0.7532
   38POPC  H12Y 5159   4.113   4.986   7.879  1.5463 -0.6956 -3.8949
   38POPC  C313 5160   4.208   5.141   7.997  0.1609 -0.0344  0.0218
   38POPC  H13X 5161   4.111   5.191   7.974 -1.3008 -2.9150 -0.5860
   38POPC  H13Y 5162   4.291   5.214   7.993 -0.2397  0.3586 -1.7179
   38POPC  C314 5163   4.195   5.087   8.147  0.3535 -0.0282  0.1917
   38POPC  H14X 5164   4.291   5.063   8.197  0.0555 -0.2846  0.6416
   38POPC  H14Y 5165   4.143   4.990   8.132  1.8842 -1.2528  2.3782
   38POPC  C315 5166   4.104   5.173   8.232  0.2720 -0.0298  0.3300
   38POPC  H15X 5167   4.039   5.103   8.290 -1.6151  1.2986 -0.0764
   38POPC  H15Y 5168   4.043   5.234   8.162  1.3785 -1.1975 -1.7417
   38POPC  C316 5169   4.190   5.270   8.312 -0.2614  0.5596 -0.2411
   38POPC  H16X 5170   4.141   5.364   8.345  0.9786  1.3451 -0.5737
   38POPC  H16Y 5171   4.274   5.296   8.245 -0.3974 -0.6245 -0.9009
   38POPC  H16Z 5172   4.230   5.226   8.406 -0.4950 -0.5666 -0.6514
   39POPC     N 5173   0.792   2.274   6.459 -0.1453 -0.0081 -0.0379
   39POPC   C12 5174   0.650   2.223   6.500 -0.4706 -0.1150  0.3740
   39POPC  H12A 5175   0.624   2.261   6.598 -2.1093  1.0407 -0.4587
   39POPC  H12B 5176   0.647   2.116   6.515 -1.6930  0.0719  1.6916
   39POPC   C13 5177   0.819   2.214   6.327  0.4271 -0.1706  0.4472
   39POPC  H13A 5178   0.911   2.257   6.289  0.7399  1.1855  2.5570
   39POPC  H13B 5179   0.819   2.106   6.330  2.3533 -0.2058  0.8757
   39POPC  H13C 5180   0.744   2.254   6.261 -0.7681 -0.4109  1.6345
   39POPC   C14 5181   0.797   2.426   6.468  0.4367  0.5330 -0.2549
   39POPC  H14A 5182   0.720   2.465   6.404  0.5558  0.6771 -0.3098
   39POPC  H14B 5183   0.762   2.462   6.564  0.4933 -2.1943  0.9048
   39POPC  H14C 5184   0.900   2.455   6.452  1.4822 -1.8290  1.5507
   39POPC   C15 5185   0.885   2.212   6.563 -0.5902 -0.1078 -0.2261
   39POPC  H15A 5186   0.886   2.264   6.658  1.9555  1.2733 -0.9061
   39POPC  H15B 5187   0.990   2.201   6.537 -0.3953 -2.4797  1.2901
   39POPC  H15C 5188   0.849   2.112   6.582 -0.7124  0.3823  2.4743
   39POPC   C11 5189   0.532   2.250   6.403 -0.5707 -0.0447  0.0626
   39POPC  H11A 5190   0.554   2.349   6.356  2.2602 -0.4388  0.4208
   39POPC  H11B 5191   0.443   2.243   6.469 -0.1860 -0.5998  0.5206
   39POPC     P 5192   0.390   2.130   6.224  0.1746 -0.0706 -0.0874
   39POPC   O13 5193   0.392   2.019   6.129  0.0321  0.6055 -0.0255
   39POPC   O14 5194   0.353   2.262   6.167 -0.1739  0.0187  0.2284
   39POPC   O12 5195   0.530   2.156   6.292 -0.3727  0.5012 -0.3353
   39POPC   O11 5196   0.296   2.087   6.340 -0.0776  0.7508 -0.6599
   39POPC    C1 5197   0.321   1.980   6.437  0.3706  0.3185  0.4536
   39POPC    HA 5198   0.429   1.962   6.455  0.6344  1.7312  0.3502
   39POPC    HB 5199   0.276   1.885   6.398  2.2037  0.6714 -2.9312
   39POPC    C2 5200   0.265   2.008   6.572 -0.1842  0.7487 -0.4142
   39POPC    HS 5201   0.297   2.112   6.597  0.5044  0.6824 -0.9977
   39POPC   O21 5202   0.316   1.910   6.665 -0.5049 -0.3155 -0.9243
   39POPC   C21 5203   0.431   1.947   6.722 -1.0527  0.6898  0.5761
   39POPC   O22 5204   0.488   2.047   6.699 -0.6376  0.6968 -0.3451
   39POPC   C22 5205   0.480   1.825   6.803 -0.4200 -0.0314  0.0599
   39POPC   H2R 5206   0.580   1.857   6.839 -0.1754  0.1749 -0.7846
   39POPC   H2S 5207   0.492   1.737   6.736  0.3616 -0.0857  0.2583
   39POPC    C3 5208   0.110   1.996   6.577  0.4976  0.3851 -0.2561
   39POPC    HX 5209   0.085   1.888   6.567  1.1779  0.3272 -1.4593
   39POPC    HY 5210   0.067   2.044   6.487  0.4202  0.7783 -0.0143
   39POPC   O31 5211   0.061   2.054   6.704  0.0346  0.0906 -0.0877
   39POPC   C31 5212  -0.065   2.018   6.734 -0.5937 -0.4376  0.7576
   39POPC   O32 5213  -0.123   1.927   6.675  0.2323  0.0925  0.1779
   39POPC   C32 5214  -0.133   2.105   6.840 -0.1748  0.3065  0.4517
   39POPC   H2X 5215  -0.144   2.213   6.821 -0.8181  0.3199  0.8735
   39POPC   H2Y 5216  -0.235   2.075   6.871  0.2514 -2.0026 -0.1825
   39POPC   C23 5217   0.395   1.784   6.925 -0.2543  0.0475 -0.7733
   39POPC   H3R 5218   0.437   1.686   6.956 -1.5041 -0.5448 -0.9136
   39POPC   H3S 5219   0.290   1.773   6.892 -0.4984 -0.0689  0.0400
   39POPC   C24 5220   0.401   1.879   7.042 -0.2879 -0.4187 -0.1594
   39POPC   H4R 5221   0.381   1.985   7.012  0.1256  0.0836  1.2429
   39POPC   H4S 5222   0.503   1.865   7.082  1.6727  0.8954 -4.1292
   39POPC   C25 5223   0.302   1.840   7.154 -0.1370  0.0001 -0.6338
   39POPC   H5R 5224   0.325   1.734   7.174  0.5243 -0.1390 -2.0200
   39POPC   H5S 5225   0.196   1.856   7.126 -0.8426  0.6203  2.1129
   39POPC   C26 5226   0.328   1.913   7.279 -0.3343  0.2240 -0.3998
   39POPC   H6R 5227   0.338   2.022   7.261  0.7426  0.2915  0.5571
   39POPC   H6S 5228   0.423   1.870   7.316 -1.4689 -2.0233  0.0898
   39POPC   C27 5229   0.232   1.884   7.392 -0.2178  0.6319  0.0966
   39POPC   H7R 5230   0.211   1.776   7.402 -0.3362  0.6055 -0.4094
   39POPC   H7S 5231   0.131   1.929   7.377 -0.7340 -0.0813  1.3172
   39POPC   C28 5232   0.281   1.952   7.519 -0.5701 -0.2606 -0.0715
   39POPC   H8R 5233   0.372   1.905   7.561 -1.3373  0.4202  2.5367
   39POPC   H8S 5234   0.206   1.934   7.598 -1.7872  0.7094 -0.9598
   39POPC   C29 5235   0.286   2.105   7.521 -0.1894 -0.6036 -0.5276
   39POPC   H91 5236   0.289   2.157   7.424  0.6215 -0.6109 -0.5107
   39POPC  C210 5237   0.308   2.187   7.629 -0.0451 -0.7335  0.5421
   39POPC  H101 5238   0.295   2.295   7.609 -2.3232 -0.9725  0.5480
   39POPC  C211 5239   0.330   2.144   7.774 -0.4546  0.0967  0.2764
   39POPC  H11R 5240   0.439   2.140   7.793 -0.4364  1.1694  0.4101
   39POPC  H11S 5241   0.299   2.037   7.782 -0.6252  0.1052 -0.2143
   39POPC  C212 5242   0.268   2.221   7.891  0.0439 -0.5385 -0.1065
   39POPC  H12R 5243   0.159   2.203   7.899  0.2128 -1.3265  0.5426
   39POPC  H12S 5244   0.291   2.328   7.876  2.4721 -0.8339  1.0141
   39POPC  C213 5245   0.330   2.180   8.020  0.7378  0.3578 -0.5462
   39POPC  H13R 5246   0.431   2.224   8.029 -0.0074  2.2595 -0.9947
   39POPC  H13S 5247   0.341   2.070   8.029  2.8158  0.4553 -1.3464
   39POPC  C214 5248   0.244   2.234   8.138  0.5495 -0.3838 -0.3812
   39POPC  H14R 5249   0.140   2.201   8.120  0.3417  0.4908 -0.8345
   39POPC  H14S 5250   0.239   2.344   8.128 -2.1735 -0.4564 -0.5513
   39POPC  C215 5251   0.305   2.189   8.270 -0.0203 -0.2824 -0.4097
   39POPC  H15R 5252   0.406   2.234   8.275 -0.1663 -0.0800  1.2669
   39POPC  H15S 5253   0.310   2.078   8.279  0.4576 -0.1194  2.2619
   39POPC  C216 5254   0.228   2.242   8.399  0.4464 -0.3357  0.2282
   39POPC  H16R 5255   0.122   2.231   8.370  1.2236  0.0438 -3.2952
   39POPC  H16S 5256   0.235   2.351   8.422  0.7097  0.0507 -1.5286
   39POPC  C217 5257   0.269   2.165   8.527 -0.0994 -0.4358 -0.2645
   39POPC  H17R 5258   0.367   2.208   8.553 -0.4168  0.3392 -0.3372
   39POPC  H17S 5259   0.290   2.057   8.506  0.8563 -0.4406  0.6550
   39POPC  C218 5260   0.170   2.183   8.644  0.4478 -0.2014 -0.3590
   39POPC  H18R 5261   0.220   2.181   8.744 -1.8455  3.4347  1.0547
   39POPC  H18S 5262   0.084   2.113   8.635 -1.0427  1.4467  0.4227
   39POPC  H18T 5263   0.127   2.285   8.640  2.3904  0.7408  1.2525
   39POPC   C33 5264  -0.049   2.093   6.967 -0.0461  0.1640  0.2875
   39POPC   H3X 5265   0.053   2.127   6.941 -0.6432  3.4315  1.7143
   39POPC   H3Y 5266  -0.050   1.989   7.004 -0.8956  0.2845  0.6402
   39POPC   C34 5267  -0.108   2.178   7.080 -0.4451 -1.0315  0.0986
   39POPC   H4X 5268  -0.219   2.185   7.066 -0.4078 -0.5436  0.0240
   39POPC   H4Y 5269  -0.079   2.284   7.068  0.5139 -1.3700 -0.7158
   39POPC   C35 5270  -0.081   2.143   7.226 -0.4471  0.0265  0.8790
   39POPC   H5X 5271   0.029   2.141   7.237 -0.2293  0.9452 -0.7269
   39POPC   H5Y 5272  -0.117   2.039   7.234  3.2018 -1.3672  1.0884
   39POPC   C36 5273  -0.135   2.232   7.338 -0.0374 -0.0492 -0.7598
   39POPC   H6X 5274  -0.247   2.234   7.340 -0.1090  2.0517 -2.7122
   39POPC   H6Y 5275  -0.108   2.338   7.320 -2.5621  0.8810  0.3974
   39POPC   C37 5276  -0.077   2.213   7.481  0.4475  0.4053  0.0621
   39POPC   H7X 5277   0.033   2.228   7.485  0.1975  2.4108  0.9044
   39POPC   H7Y 5278  -0.111   2.112   7.510 -2.3877  1.0322 -0.8127
   39POPC   C38 5279  -0.142   2.317   7.575 -0.1945  0.0604 -0.4660
   39POPC   H8X 5280  -0.246   2.282   7.587  0.0146 -0.2452  0.5267
   39POPC   H8Y 5281  -0.137   2.421   7.538 -1.3667  0.3746  0.2326
   39POPC   C39 5282  -0.086   2.318   7.721  0.1535 -0.4132 -0.4600
   39POPC   H9X 5283   0.022   2.346   7.723  0.2926 -0.9823  2.0488
   39POPC   H9Y 5284  -0.111   2.216   7.756  0.9117 -0.9572 -1.4547
   39POPC  C310 5285  -0.175   2.407   7.812 -0.4532 -0.4688  0.0343
   39POPC  H10X 5286  -0.275   2.364   7.833 -0.1139 -1.2381  0.0964
   39POPC  H10Y 5287  -0.194   2.505   7.764  0.5969  0.5407  1.5607
   39POPC  C311 5288  -0.115   2.429   7.951  0.2839 -0.1104 -0.2943
   39POPC  H11X 5289  -0.005   2.437   7.936 -0.0230  1.5308 -1.9789
   39POPC  H11Y 5290  -0.119   2.337   8.014 -1.3905  1.1577  1.5807
   39POPC  C312 5291  -0.173   2.553   8.022 -0.2026  0.0760 -0.2416
   39POPC  H12X 5292  -0.271   2.582   7.977 -0.5917 -0.6337  0.1460
   39POPC  H12Y 5293  -0.093   2.629   8.006 -0.1045  0.2520  0.9835
   39POPC  C313 5294  -0.196   2.529   8.172 -0.8869  0.0663  0.3568
   39POPC  H13X 5295  -0.270   2.448   8.190 -0.5252 -0.9296 -2.2304
   39POPC  H13Y 5296  -0.233   2.627   8.210 -0.0018  0.1055  1.1353
   39POPC  C314 5297  -0.068   2.487   8.249  0.3287 -0.2746  0.1886
   39POPC  H14X 5298   0.009   2.553   8.203 -1.8577  0.6546 -2.4506
   39POPC  H14Y 5299  -0.046   2.380   8.228 -1.7253 -0.1509 -3.4255
   39POPC  C315 5300  -0.073   2.497   8.407 -0.1762 -0.6299 -0.4442
   39POPC  H15X 5301   0.008   2.430   8.443  0.9382  0.4263 -0.9252
   39POPC  H15Y 5302  -0.167   2.446   8.439 -0.5588  1.1455  1.4939
   39POPC  C316 5303  -0.075   2.638   8.469 -0.2581 -0.0825  0.3915
   39POPC  H16X 5304  -0.015   2.709   8.408  1.5545 -0.3247  1.7854
   39POPC  H16Y 5305  -0.048   2.654   8.576  1.3174 -0.3818  0.0567
   39POPC  H16Z 5306  -0.176   2.685   8.463  0.1597  0.5836 -2.7881
   40POPC     N 5307   5.938   6.167   6.267 -0.5708 -0.3913 -0.4450
   40POPC   C12 5308   6.007   6.260   6.373  0.1652  0.7819  0.6182
   40POPC  H12A 5309   5.941   6.305   6.446 -0.7244  2.5265 -1.1591
   40POPC  H12B 5310   6.030   6.344   6.309 -2.0566  1.0988  0.1485
   40POPC   C13 5311   6.022   6.158   6.143  0.3755  0.3601 -0.1215
   40POPC  H13A 5312   6.116   6.114   6.169 -0.8422 -1.4023  1.5700
   40POPC  H13B 5313   5.982   6.074   6.089  0.9391 -0.7835  1.1892
   40POPC  H13C 5314   6.019   6.247   6.081 -0.2849 -1.0211 -2.1805
   40POPC   C14 5315   5.901   6.038   6.325 -0.1470  0.1214  0.0686
   40POPC  H14A 5316   5.856   5.968   6.256  2.6419 -1.8676  0.0805
   40POPC  H14B 5317   5.985   5.980   6.359 -1.0322 -1.5127 -0.4253
   40POPC  H14C 5318   5.828   6.043   6.404 -1.8733 -2.8399 -1.1936
   40POPC   C15 5319   5.814   6.240   6.223  0.1822 -0.4265 -0.3300
   40POPC  H15A 5320   5.829   6.336   6.174  0.3866 -0.7324 -0.8774
   40POPC  H15B 5321   5.746   6.249   6.306 -0.2690  2.8695 -0.9069
   40POPC  H15C 5322   5.760   6.187   6.147  1.2428 -2.1725  0.0941
   40POPC   C11 5323   6.135   6.202   6.453 -0.4940 -0.2500 -0.2570
   40POPC  H11A 5324   6.111   6.122   6.526  3.3251 -2.1450 -0.7924
   40POPC  H11B 5325   6.166   6.291   6.512 -0.2702 -1.1957  1.1030
   40POPC     P 5326   6.347   6.261   6.310 -0.6560  0.2031  0.5786
   40POPC   O13 5327   6.290   6.403   6.304 -0.4385 -0.1418 -0.7395
   40POPC   O14 5328   6.409   6.210   6.184 -0.3162 -0.3985 -0.4521
   40POPC   O12 5329   6.234   6.156   6.364 -0.1723 -0.4392  0.0876
   40POPC   O11 5330   6.441   6.248   6.437 -0.0222  0.1783  0.5828
   40POPC    C1 5331   6.506   6.119   6.456  0.1524  1.0593 -0.2049
   40POPC    HA 5332   6.571   6.090   6.371  0.7219  0.9559  0.2589
   40POPC    HB 5333   6.429   6.040   6.465  1.1862  0.1375  0.8026
   40POPC    C2 5334   6.573   6.108   6.594  0.7903  0.1661  0.5832
   40POPC    HS 5335   6.611   6.005   6.610  0.6191 -0.5575 -2.8416
   40POPC   O21 5336   6.476   6.153   6.694 -0.7288 -0.5422  0.2878
   40POPC   C21 5337   6.388   6.069   6.738  0.5075  0.0528  0.5887
   40POPC   O22 5338   6.363   5.955   6.698  0.3932  0.0693 -0.1883
   40POPC   C22 5339   6.319   6.128   6.864 -0.4980 -0.2476  0.3640
   40POPC   H2R 5340   6.221   6.076   6.869 -1.4898  0.8642 -3.6474
   40POPC   H2S 5341   6.310   6.237   6.845 -2.5106 -0.6543 -1.4303
   40POPC    C3 5342   6.693   6.203   6.587  0.1135  0.1014 -0.1727
   40POPC    HX 5343   6.655   6.307   6.582 -0.6462 -0.2230 -1.5305
   40POPC    HY 5344   6.741   6.180   6.490 -1.6147 -2.4247 -0.5000
   40POPC   O31 5345   6.780   6.170   6.700  0.1702  0.4032  0.0340
   40POPC   C31 5346   6.779   6.256   6.797 -0.2651  0.3871  0.3399
   40POPC   O32 5347   6.735   6.369   6.792 -0.2427 -0.0629  0.5523
   40POPC   C32 5348   6.840   6.198   6.924  0.2916 -0.0494 -0.0212
   40POPC   H2X 5349   6.950   6.187   6.912  0.3348 -1.4236  1.2696
   40POPC   H2Y 5350   6.797   6.095   6.921  1.3441 -0.5311 -3.6028
   40POPC   C23 5351   6.407   6.117   6.992  0.3509 -0.7777  0.4615
   40POPC   H3R 5352   6.511   6.115   6.951 -0.0757  1.8882 -1.0312
   40POPC   H3S 5353   6.374   6.021   7.036 -0.7829  0.5152  2.5862
   40POPC   C24 5354   6.387   6.228   7.096 -0.0253 -0.3658 -0.3623
   40POPC   H4R 5355   6.281   6.262   7.088  0.3773  0.6300 -1.6875
   40POPC   H4S 5356   6.440   6.323   7.076 -0.0203 -0.0336  1.1181
   40POPC   C25 5357   6.408   6.178   7.238 -0.1214  0.3235 -0.0261
   40POPC   H5R 5358   6.512   6.138   7.242 -0.0951  0.2575 -1.0847
   40POPC   H5S 5359   6.340   6.093   7.261  0.2142  0.3367  1.0986
   40POPC   C26 5360   6.388   6.280   7.346  0.1659 -0.3317 -1.2453
   40POPC   H6R 5361   6.293   6.327   7.313 -0.8266  0.5010  2.2961
   40POPC   H6S 5362   6.468   6.357   7.352  1.2730 -1.5425  0.1971
   40POPC   C27 5363   6.364   6.225   7.488  0.5252 -0.0311 -0.1344
   40POPC   H7R 5364   6.408   6.123   7.499  0.6184  0.0500  0.2552
   40POPC   H7S 5365   6.255   6.217   7.505  0.5137  1.2696  0.4976
   40POPC   C28 5366   6.421   6.313   7.599 -0.4820  0.3161  0.7285
   40POPC   H8R 5367   6.368   6.411   7.597 -0.9533  0.0831 -2.0664
   40POPC   H8S 5368   6.524   6.335   7.564 -0.7739  0.1934 -0.2414
   40POPC   C29 5369   6.410   6.244   7.736 -0.0380  0.2446 -0.4322
   40POPC   H91 5370   6.361   6.146   7.728 -1.3714  0.9320 -1.0447
   40POPC  C210 5371   6.427   6.301   7.855  0.5128 -0.1002 -0.5780
   40POPC  H101 5372   6.399   6.251   7.949  0.2513 -0.9507 -1.0961
   40POPC  C211 5373   6.475   6.443   7.867 -0.2810 -0.1254  0.6028
   40POPC  H11R 5374   6.383   6.499   7.897 -0.3955 -0.5185  1.0033
   40POPC  H11S 5375   6.494   6.493   7.770  0.2999  1.2120  1.3780
   40POPC  C212 5376   6.599   6.474   7.956  0.6570  0.0867  0.0416
   40POPC  H12R 5377   6.635   6.578   7.938  2.0664 -0.4408 -0.2875
   40POPC  H12S 5378   6.674   6.399   7.922  0.4410  0.0517 -0.3738
   40POPC  C213 5379   6.561   6.465   8.109  0.3414  0.2983  1.0012
   40POPC  H13R 5380   6.658   6.466   8.165  0.5123  1.1724  0.6974
   40POPC  H13S 5381   6.518   6.364   8.130  1.3883  0.0809  2.2934
   40POPC  C214 5382   6.486   6.583   8.170 -0.4198 -0.1544  0.1992
   40POPC  H14R 5383   6.386   6.590   8.122 -1.3589  2.7229  2.3299
   40POPC  H14S 5384   6.540   6.677   8.146 -1.1105  0.0772 -0.4997
   40POPC  C215 5385   6.483   6.567   8.321  0.3961  0.5888  0.4338
   40POPC  H15R 5386   6.427   6.654   8.360 -1.7459 -1.1904  1.5681
   40POPC  H15S 5387   6.584   6.587   8.364 -0.2070  2.4330  1.0400
   40POPC  C216 5388   6.442   6.436   8.385  0.4180 -0.2717 -0.1230
   40POPC  H16R 5389   6.504   6.350   8.353 -1.1789 -0.7507 -2.1110
   40POPC  H16S 5390   6.339   6.415   8.351 -0.2228  2.0343  0.2252
   40POPC  C217 5391   6.443   6.440   8.537 -0.6538 -0.3987 -0.3652
   40POPC  H17R 5392   6.412   6.540   8.574  0.6665 -0.1347  0.1032
   40POPC  H17S 5393   6.549   6.431   8.568 -0.5765 -2.2213 -1.0561
   40POPC  C218 5394   6.369   6.331   8.608 -0.6439  0.7508  0.1611
   40POPC  H18R 5395   6.402   6.237   8.560  0.1231  0.3517  1.4222
   40POPC  H18S 5396   6.258   6.340   8.598 -0.8040 -1.5844 -0.9308
   40POPC  H18T 5397   6.397   6.329   8.716 -0.2918 -0.4561  0.0679
   40POPC   C33 5398   6.807   6.264   7.061 -0.1564  0.3589 -0.0252
   40POPC   H3X 5399   6.699   6.241   7.068  0.2238 -1.6794 -0.1422
   40POPC   H3Y 5400   6.812   6.374   7.074 -1.3318  0.2288  1.8862
   40POPC   C34 5401   6.885   6.207   7.183 -0.4501 -0.4520  0.4982
   40POPC   H4X 5402   6.991   6.211   7.152  0.3268 -1.0609  2.9001
   40POPC   H4Y 5403   6.857   6.101   7.202 -1.3870 -0.4438 -0.6774
   40POPC   C35 5404   6.873   6.292   7.306 -0.4435 -0.5567 -0.6480
   40POPC   H5X 5405   6.776   6.345   7.317 -0.5665 -1.2703  3.2081
   40POPC   H5Y 5406   6.950   6.372   7.302 -2.0967  1.1213 -0.7517
   40POPC   C36 5407   6.905   6.216   7.430  0.7530 -0.3176  0.6148
   40POPC   H6X 5408   7.009   6.176   7.419  1.3829  1.0033  1.5360
   40POPC   H6Y 5409   6.835   6.130   7.422  0.0266  0.2686  0.5925
   40POPC   C37 5410   6.897   6.299   7.556 -0.6137  0.5188  0.2374
   40POPC   H7X 5411   6.818   6.378   7.552 -3.8913 -2.2175  3.3251
   40POPC   H7Y 5412   6.989   6.361   7.562 -0.4503  0.3637 -0.5930
   40POPC   C38 5413   6.871   6.211   7.683 -0.1153  0.5773  0.5312
   40POPC   H8X 5414   6.939   6.125   7.665 -3.7858 -2.7940  1.4596
   40POPC   H8Y 5415   6.769   6.166   7.682  0.2287 -0.2094  0.0147
   40POPC   C39 5416   6.903   6.273   7.820 -0.1726  0.1815 -0.0931
   40POPC   H9X 5417   6.865   6.377   7.817  0.2226  0.3074 -1.8203
   40POPC   H9Y 5418   7.013   6.288   7.827 -0.3024  0.7945  0.9058
   40POPC  C310 5419   6.848   6.191   7.931 -0.4305  0.0900 -0.0668
   40POPC  H10X 5420   6.892   6.089   7.929  0.2920  0.3961 -0.0960
   40POPC  H10Y 5421   6.738   6.182   7.926 -0.4186  0.1892 -0.5324
   40POPC  C311 5422   6.875   6.256   8.070 -0.2786 -0.1115 -0.1428
   40POPC  H11X 5423   6.819   6.352   8.074 -0.5011  0.0782 -3.9769
   40POPC  H11Y 5424   6.984   6.278   8.070 -0.1129 -0.8979  0.1590
   40POPC  C312 5425   6.833   6.179   8.191  0.1067 -0.7033 -0.8622
   40POPC  H12X 5426   6.882   6.081   8.177  1.5253 -0.3782  1.3690
   40POPC  H12Y 5427   6.722   6.173   8.193  0.1248 -1.0698 -1.0072
   40POPC  C313 5428   6.888   6.239   8.318 -0.0366  0.4737  0.1820
   40POPC  H13X 5429   6.873   6.349   8.328 -0.3855  0.5763 -1.1758
   40POPC  H13Y 5430   6.998   6.229   8.326  0.2761  2.7998 -0.4301
   40POPC  C314 5431   6.832   6.166   8.440  0.1642 -0.4692  0.0757
   40POPC  H14X 5432   6.871   6.062   8.442  0.6645 -0.3158  2.9909
   40POPC  H14Y 5433   6.721   6.169   8.447  0.2332 -0.0738  1.5087
   40POPC  C315 5434   6.887   6.237   8.565 -0.1277 -0.5238  0.4611
   40POPC  H15X 5435   6.893   6.346   8.545 -2.1412 -0.4145  0.2677
   40POPC  H15Y 5436   6.993   6.207   8.577  0.3165 -1.0306 -3.4645
   40POPC  C316 5437   6.802   6.215   8.688  0.5254  0.3787 -0.0316
   40POPC  H16X 5438   6.792   6.104   8.698 -0.3768  0.6083  2.2042
   40POPC  H16Y 5439   6.698   6.249   8.669  0.1194 -1.1780 -0.8254
   40POPC  H16Z 5440   6.850   6.265   8.774  1.0673 -1.8462  1.0347
   41CHL1    C3 5441   4.810   3.935  10.178 -0.4609  0.4549  0.2697
   41CHL1    H3 5442   4.843   3.830  10.193 -2.3268  0.0645  2.0261
   41CHL1    O3 5443   4.801   3.998  10.303  0.1281  0.2707  0.3582
   41CHL1   H3' 5444   4.755   4.081  10.286  0.4057  0.6874  1.5424
   41CHL1    C4 5445   4.919   4.007  10.090 -0.2301  0.2498 -1.0896
   41CHL1   H4A 5446   4.901   4.117  10.086  1.6711  0.6246 -0.2614
   41CHL1   H4B 5447   5.005   3.982  10.155  0.2798  1.1316 -1.4053
   41CHL1    C5 5448   4.926   3.949   9.952 -0.1729  0.6388  0.1907
   41CHL1    C6 5449   5.034   3.889   9.904 -0.2972  0.1435 -0.0766
   41CHL1    H6 5450   5.119   3.897   9.973 -0.9249 -0.7886  0.8446
   41CHL1    C7 5451   5.048   3.850   9.761 -0.5072  0.1009  0.2607
   41CHL1   H7A 5452   5.150   3.872   9.721 -0.9566 -0.2985 -1.1628
   41CHL1   H7B 5453   5.044   3.739   9.749 -1.5896  0.3251 -1.9017
   41CHL1    C8 5454   4.937   3.910   9.662  0.3327 -0.4760 -0.4765
   41CHL1    H8 5455   4.946   4.020   9.648  0.2958 -0.4417 -0.2247
   41CHL1   C14 5456   4.944   3.832   9.533  0.7818 -0.2715 -0.4427
   41CHL1   H14 5457   4.937   3.725   9.562  2.9494 -1.3375 -3.3780
   41CHL1   C15 5458   5.074   3.837   9.449 -0.4770  0.0829 -0.0417
   41CHL1  H15A 5459   5.115   3.940   9.445  1.5759 -0.6872  0.1424
   41CHL1  H15B 5460   5.154   3.765   9.476  0.0661  0.8468  0.4070
   41CHL1   C16 5461   5.032   3.795   9.311  0.9731 -0.4818  0.0614
   41CHL1  H16A 5462   5.048   3.876   9.237 -2.1197  0.5525  0.4018
   41CHL1  H16B 5463   5.094   3.709   9.275  2.3564 -0.0972  1.4045
   41CHL1   C17 5464   4.879   3.764   9.325 -0.1214 -0.5156  0.7722
   41CHL1   H17 5465   4.879   3.661   9.367 -1.3180 -1.4459 -1.3307
   41CHL1   C13 5466   4.830   3.859   9.436  1.0779 -0.3902 -0.2645
   41CHL1   C18 5467   4.838   4.006   9.382  0.0450 -0.0736 -0.1824
   41CHL1  H18A 5468   4.842   4.084   9.460  2.5874  1.2639 -1.5465
   41CHL1  H18B 5469   4.923   4.027   9.314  0.3559 -0.2342  0.1568
   41CHL1  H18C 5470   4.748   4.027   9.320 -0.5758  1.2476  1.0998
   41CHL1   C12 5471   4.692   3.825   9.509  0.0073  0.1863  0.1955
   41CHL1  H12A 5472   4.605   3.839   9.441  0.4709  0.5434 -0.3287
   41CHL1  H12B 5473   4.697   3.717   9.532  0.5789 -0.1612 -1.4647
   41CHL1   C11 5474   4.681   3.901   9.641  0.6436 -0.7885 -0.5036
   41CHL1  H11A 5475   4.668   4.011   9.624  1.0719 -0.6008  0.3274
   41CHL1  H11B 5476   4.587   3.873   9.693  1.1151 -3.5570 -1.0075
   41CHL1    C9 5477   4.804   3.878   9.731 -0.1384 -0.3891 -0.0447
   41CHL1    H9 5478   4.803   3.771   9.759 -1.2564 -0.0176  1.4427
   41CHL1   C10 5479   4.796   3.958   9.870  0.6145  0.5776  0.5727
   41CHL1   C19 5480   4.766   4.110   9.846 -0.0372  0.3293  0.9036
   41CHL1  H19A 5481   4.661   4.123   9.812  0.2607  0.3914 -0.0072
   41CHL1  H19B 5482   4.789   4.173   9.935  2.2622  1.4458 -0.3855
   41CHL1  H19C 5483   4.824   4.165   9.769 -0.4219 -1.7832 -0.9826
   41CHL1    C1 5484   4.688   3.895   9.964  0.0356  0.1615 -0.3818
   41CHL1   H1A 5485   4.587   3.889   9.917 -0.1561  2.4987 -0.4249
   41CHL1   H1B 5486   4.722   3.790   9.972  0.4948  0.2025 -1.6492
   41CHL1    C2 5487   4.679   3.946  10.106  0.0864  0.4264  0.9247
   41CHL1   H2A 5488   4.602   3.891  10.165  1.2042 -1.1303  1.0049
   41CHL1   H2B 5489   4.642   4.050  10.098  1.6504  0.9925  0.5567
   41CHL1   C20 5490   4.798   3.756   9.188 -0.1470 -0.5152  0.0819
   41CHL1   H20 5491   4.743   3.853   9.183 -0.4119 -0.4743  2.7173
   41CHL1   C21 5492   4.717   3.630   9.208  0.1356 -0.7514 -0.1437
   41CHL1  H21A 5493   4.781   3.540   9.218  3.3916  1.4478  0.4653
   41CHL1  H21B 5494   4.634   3.615   9.136 -0.3126 -0.1995  0.2497
   41CHL1  H21C 5495   4.658   3.652   9.299  1.2503  0.0261  0.4295
   41CHL1   C22 5496   4.883   3.749   9.047  0.1500  0.5269  0.3093
   41CHL1  H22A 5497   4.814   3.778   8.965  1.1628  0.8818 -0.4393
   41CHL1  H22B 5498   4.956   3.832   9.048  1.7913 -0.8525  1.5992
   41CHL1   C23 5499   4.970   3.622   9.021 -0.6446  0.4678 -0.6269
   41CHL1  H23A 5500   5.005   3.582   9.119 -1.0755  0.9478 -0.2725
   41CHL1  H23B 5501   4.899   3.544   8.984 -0.2629  1.6350 -4.2549
   41CHL1   C24 5502   5.072   3.626   8.903  0.2296 -0.0239  0.1774
   41CHL1  H24A 5503   5.030   3.674   8.812 -2.1853 -0.2911  1.0881
   41CHL1  H24B 5504   5.149   3.701   8.933  1.5790 -0.8011 -1.2257
   41CHL1   C25 5505   5.148   3.493   8.883 -0.1906 -0.2210  0.1732
   41CHL1   H25 5506   5.166   3.453   8.985  0.2693  0.6295  0.4346
   41CHL1   C26 5507   5.057   3.395   8.798  0.1094  0.1293 -0.4799
   41CHL1  H26A 5508   4.966   3.366   8.854  0.6937 -1.5356 -0.3455
   41CHL1  H26B 5509   5.036   3.435   8.696 -0.1565  0.7614 -0.1861
   41CHL1  H26C 5510   5.120   3.309   8.768 -0.8159 -0.5069 -0.6398
   41CHL1   C27 5511   5.275   3.503   8.793  0.1877  0.5973 -0.3393
   41CHL1  H27A 5512   5.258   3.523   8.685 -1.6528 -2.4964 -0.7379
   41CHL1  H27B 5513   5.335   3.582   8.843  1.8967  0.5293 -2.1627
   41CHL1  H27C 5514   5.336   3.410   8.789 -0.8933 -0.2158  1.1275
   42CHL1    C3 5515   5.370   2.725  10.057 -0.3369 -0.0097 -0.3210
   42CHL1    H3 5516   5.465   2.783  10.060  0.5990 -1.4067 -1.4934
   42CHL1    O3 5517   5.307   2.691  10.181 -0.1893  0.5260 -0.7892
   42CHL1   H3' 5518   5.214   2.680  10.159 -0.5024  0.5471  0.4738
   42CHL1    C4 5519   5.285   2.833  10.000 -0.8075  0.2735  0.0591
   42CHL1   H4A 5520   5.181   2.795   9.999 -0.1450 -1.5837 -0.7947
   42CHL1   H4B 5521   5.297   2.920  10.069 -0.4646  0.1293  0.1851
   42CHL1    C5 5522   5.325   2.867   9.861  0.0121  0.1955 -0.6500
   42CHL1    C6 5523   5.340   2.990   9.822  0.2053  0.0492  0.1564
   42CHL1    H6 5524   5.319   3.074   9.890 -1.4453  0.2167 -0.5128
   42CHL1    C7 5525   5.375   3.029   9.679 -0.8046  0.4985  0.0415
   42CHL1   H7A 5526   5.318   3.122   9.656 -1.6396  0.5005  1.9086
   42CHL1   H7B 5527   5.483   3.055   9.683  0.2713 -3.4586  0.1597
   42CHL1    C8 5528   5.361   2.915   9.574 -0.2358  0.7620 -0.1366
   42CHL1    H8 5529   5.252   2.903   9.552  0.0983 -1.3850 -0.8513
   42CHL1   C14 5530   5.424   2.953   9.447  0.1549 -0.8000 -0.2300
   42CHL1   H14 5531   5.531   2.962   9.474 -0.1496 -0.6281  0.9460
   42CHL1   C15 5532   5.389   3.090   9.395 -0.1954 -0.0154 -0.0035
   42CHL1  H15A 5533   5.281   3.118   9.395 -0.1278  0.2702 -0.9116
   42CHL1  H15B 5534   5.435   3.165   9.463  0.4724 -0.3894 -0.0417
   42CHL1   C16 5535   5.443   3.087   9.256  0.0529 -0.0522  0.2652
   42CHL1  H16A 5536   5.365   3.100   9.178  0.6788 -0.3191 -0.4144
   42CHL1  H16B 5537   5.529   3.157   9.245 -0.6944  1.0849  1.3665
   42CHL1   C17 5538   5.488   2.937   9.232  0.1146  0.6340 -1.1587
   42CHL1   H17 5539   5.594   2.946   9.263 -0.7438  1.9430  1.7702
   42CHL1   C13 5540   5.412   2.852   9.340 -0.3316 -0.7507  0.3196
   42CHL1   C18 5541   5.264   2.833   9.289 -1.0283 -0.4444  0.3930
   42CHL1  H18A 5542   5.203   2.791   9.372 -0.9061 -1.5654 -0.0545
   42CHL1  H18B 5543   5.222   2.924   9.241  0.2222 -0.6293 -1.1269
   42CHL1  H18C 5544   5.265   2.763   9.202  0.3028  1.7099 -1.4222
   42CHL1   C12 5545   5.474   2.723   9.392 -0.0052  0.1334  0.0146
   42CHL1  H12A 5546   5.459   2.641   9.318 -0.1097  1.5607 -1.5960
   42CHL1  H12B 5547   5.584   2.728   9.409 -0.0358 -0.8626  0.6350
   42CHL1   C11 5548   5.410   2.677   9.526 -0.3468 -0.6257 -0.0678
   42CHL1  H11A 5549   5.309   2.649   9.491 -1.3832  1.6918  0.8655
   42CHL1  H11B 5550   5.459   2.582   9.558  1.8734  0.2818 -0.6297
   42CHL1    C9 5551   5.412   2.785   9.624  0.5224 -0.8804  0.1757
   42CHL1    H9 5552   5.517   2.808   9.651 -0.1074  3.4695 -0.3414
   42CHL1   C10 5553   5.352   2.751   9.763 -0.7628  0.2147 -0.2572
   42CHL1   C19 5554   5.210   2.682   9.752  0.1812 -0.0179  0.1542
   42CHL1  H19A 5555   5.211   2.578   9.711  0.5334  0.0728 -0.0755
   42CHL1  H19B 5556   5.158   2.681   9.850  1.2083  0.2436  0.7186
   42CHL1  H19C 5557   5.147   2.747   9.688  1.3044  0.0073 -0.9810
   42CHL1    C1 5558   5.454   2.657   9.838 -0.7982  0.1496 -0.1221
   42CHL1   H1A 5559   5.473   2.564   9.780  2.0592 -0.3299  1.3727
   42CHL1   H1B 5560   5.550   2.712   9.851 -0.8845  0.5066 -0.9153
   42CHL1    C2 5561   5.399   2.602   9.968  0.0050 -0.6866 -0.6428
   42CHL1   H2A 5562   5.477   2.545  10.023  0.4524  0.1661 -0.3865
   42CHL1   H2B 5563   5.306   2.544   9.952 -1.6831  1.7263 -0.1594
   42CHL1   C20 5564   5.495   2.886   9.087 -0.5574 -0.1281 -0.4214
   42CHL1   H20 5565   5.391   2.862   9.055 -1.0034 -0.0112  0.8732
   42CHL1   C21 5566   5.571   2.755   9.073 -0.1619 -0.0638 -0.2266
   42CHL1  H21A 5567   5.536   2.672   9.138  1.9403 -1.4886 -0.7816
   42CHL1  H21B 5568   5.672   2.781   9.111 -0.4076 -1.2891  1.3624
   42CHL1  H21C 5569   5.573   2.734   8.964  0.7005  2.0459 -0.6742
   42CHL1   C22 5570   5.542   2.987   8.990 -0.4876 -0.5317 -0.0941
   42CHL1  H22A 5571   5.544   2.935   8.892 -0.4479  0.6040 -0.7216
   42CHL1  H22B 5572   5.466   3.068   8.992 -0.4286 -0.4714  2.4142
   42CHL1   C23 5573   5.686   3.045   8.996 -0.4080  1.0199 -0.2621
   42CHL1  H23A 5574   5.722   3.080   9.094  1.7056  0.5020 -0.8072
   42CHL1  H23B 5575   5.756   2.965   8.963 -1.3068  0.7529 -1.6659
   42CHL1   C24 5576   5.717   3.154   8.889 -0.2747 -0.0252  0.3898
   42CHL1  H24A 5577   5.668   3.127   8.793  0.4466 -0.9743  0.2775
   42CHL1  H24B 5578   5.675   3.251   8.924  2.0132  1.5329 -0.9582
   42CHL1   C25 5579   5.861   3.186   8.846  1.3047 -0.3121  1.1194
   42CHL1   H25 5580   5.903   3.083   8.835 -0.1597 -0.8031 -0.3417
   42CHL1   C26 5581   5.872   3.259   8.716  0.0034 -0.0100 -0.1297
   42CHL1  H26A 5582   5.970   3.299   8.683 -1.1760  1.9239 -1.4886
   42CHL1  H26B 5583   5.834   3.194   8.635 -0.5283 -1.9975  1.6406
   42CHL1  H26C 5584   5.812   3.352   8.730 -0.5426 -0.7149  3.2333
   42CHL1   C27 5585   5.932   3.260   8.956 -0.3617 -0.5296 -0.1535
   42CHL1  H27A 5586   6.040   3.234   8.948 -0.4455 -0.7708 -0.5672
   42CHL1  H27B 5587   5.919   3.368   8.935 -1.1344 -0.8865 -1.7175
   42CHL1  H27C 5588   5.900   3.220   9.054 -0.0735  0.2982  0.2868
   43CHL1    C3 5589   5.921   2.901  10.169 -0.2870  0.7422  0.1989
   43CHL1    H3 5590   5.971   3.000  10.172  0.3541  0.4041  1.2423
   43CHL1    O3 5591   5.884   2.877  10.303 -0.5394  0.3295  0.2675
   43CHL1   H3' 5592   5.875   2.782  10.312  0.9437  0.1699  0.3436
   43CHL1    C4 5593   5.795   2.895  10.077 -0.1615  0.0129  0.4500
   43CHL1   H4A 5594   5.740   2.801  10.101  2.6515 -1.4261  1.7502
   43CHL1   H4B 5595   5.721   2.970  10.109 -1.4822 -0.6888 -0.8267
   43CHL1    C5 5596   5.836   2.903   9.928 -0.0908 -0.0056  0.3611
   43CHL1    C6 5597   5.785   3.001   9.851  0.2794  0.0719  0.7836
   43CHL1    H6 5598   5.710   3.070   9.891  0.8001  0.2229  1.5219
   43CHL1    C7 5599   5.807   3.010   9.698 -0.0462 -1.2530  0.3573
   43CHL1   H7A 5600   5.717   3.016   9.633  0.9645 -0.4943 -1.0295
   43CHL1   H7B 5601   5.873   3.097   9.677 -1.9003  0.3857  0.9445
   43CHL1    C8 5602   5.893   2.894   9.632  0.2710  0.2565 -0.2997
   43CHL1    H8 5603   5.819   2.818   9.599 -0.7018  0.2242  1.7827
   43CHL1   C14 5604   5.954   2.933   9.505  0.1350  0.0040 -0.3052
   43CHL1   H14 5605   6.014   3.025   9.524 -1.2858  0.4213  2.6284
   43CHL1   C15 5606   5.858   2.992   9.389  0.8558  0.1369  0.1825
   43CHL1  H15A 5607   5.763   2.936   9.400  0.4717 -0.1008 -3.2179
   43CHL1  H15B 5608   5.838   3.101   9.402 -1.3274 -0.1426 -0.4621
   43CHL1   C16 5609   5.944   2.969   9.265  0.5044  0.7525 -0.3466
   43CHL1  H16A 5610   5.882   2.920   9.187 -1.8831 -0.5540  2.2054
   43CHL1  H16B 5611   5.969   3.064   9.213  0.9561  0.8564  0.0649
   43CHL1   C17 5612   6.079   2.895   9.301  0.4851 -0.3114 -0.6077
   43CHL1   H17 5613   6.150   2.977   9.323  0.0263 -0.2213  0.6301
   43CHL1   C13 5614   6.042   2.827   9.443  0.0673  0.4641  0.1809
   43CHL1   C18 5615   5.955   2.705   9.408  0.1948 -0.6074 -0.7119
   43CHL1  H18A 5616   5.857   2.732   9.361  0.6927  1.1222 -0.8344
   43CHL1  H18B 5617   6.013   2.649   9.332  0.1511  2.5341 -3.3156
   43CHL1  H18C 5618   5.928   2.645   9.497  0.2168  1.7679  0.9973
   43CHL1   C12 5619   6.155   2.789   9.540 -0.5999 -0.3055  0.6213
   43CHL1  H12A 5620   6.215   2.706   9.497  2.0558  2.9462 -2.6161
   43CHL1  H12B 5621   6.223   2.874   9.559  1.6951 -1.3546 -2.1660
   43CHL1   C11 5622   6.093   2.743   9.674 -0.8473 -0.3704  0.3239
   43CHL1  H11A 5623   6.043   2.645   9.658  1.3287 -1.0250 -3.5756
   43CHL1  H11B 5624   6.185   2.727   9.734 -0.1561 -0.0141 -0.6178
   43CHL1    C9 5625   5.995   2.845   9.734  0.0179 -0.5266 -0.4824
   43CHL1    H9 5626   6.046   2.940   9.760 -0.7599  0.3929 -2.1127
   43CHL1   C10 5627   5.945   2.813   9.875 -0.0483  0.7295  0.6738
   43CHL1   C19 5628   5.877   2.671   9.865  0.2326  0.3429 -0.6108
   43CHL1  H19A 5629   5.785   2.675   9.803 -1.3655 -0.6529  1.5719
   43CHL1  H19B 5630   5.951   2.598   9.826 -0.3470 -0.3465 -0.4415
   43CHL1  H19C 5631   5.855   2.647   9.971  1.5699  0.5304 -0.2609
   43CHL1    C1 5632   6.063   2.820   9.972 -0.6568 -0.3910  0.3501
   43CHL1   H1A 5633   6.136   2.740   9.947 -0.1000 -0.3568  1.7557
   43CHL1   H1B 5634   6.109   2.921   9.967 -1.4790  0.0973  1.8476
   43CHL1    C2 5635   6.019   2.792  10.123  0.3190 -0.7951  0.0824
   43CHL1   H2A 5636   6.113   2.802  10.181  2.0046 -3.0378 -2.0354
   43CHL1   H2B 5637   5.977   2.691  10.143  0.8380 -0.7477  1.4741
   43CHL1   C20 5638   6.137   2.812   9.193 -0.1179  0.2607  0.6425
   43CHL1   H20 5639   6.066   2.730   9.167  2.3074 -1.7377 -0.0674
   43CHL1   C21 5640   6.275   2.741   9.224  0.0180  0.7049 -0.0372
   43CHL1  H21A 5641   6.265   2.655   9.294  0.3956  0.2242 -0.5655
   43CHL1  H21B 5642   6.340   2.826   9.252 -1.6924  2.8066 -2.0605
   43CHL1  H21C 5643   6.314   2.698   9.129 -0.7780  2.9187 -1.4323
   43CHL1   C22 5644   6.159   2.902   9.067 -0.5052 -0.4288  0.7172
   43CHL1  H22A 5645   6.200   2.828   8.995 -0.0179  0.1227  0.4138
   43CHL1  H22B 5646   6.065   2.949   9.031 -0.3469 -0.7712 -0.1678
   43CHL1   C23 5647   6.272   3.017   9.076  0.6812  0.4916 -0.1251
   43CHL1  H23A 5648   6.246   3.080   9.164 -1.4155  1.7921 -1.5626
   43CHL1  H23B 5649   6.366   2.965   9.103  0.3388 -0.0989 -0.0541
   43CHL1   C24 5650   6.290   3.093   8.945 -0.4334 -0.7978 -0.2457
   43CHL1  H24A 5651   6.187   3.116   8.911 -0.9420  1.0083  2.2012
   43CHL1  H24B 5652   6.343   3.190   8.960  1.1667 -1.6423 -0.2625
   43CHL1   C25 5653   6.360   3.014   8.837  0.0430 -0.0279  0.3044
   43CHL1   H25 5654   6.326   2.908   8.842  0.2062 -0.0377  2.9356
   43CHL1   C26 5655   6.347   3.082   8.704  0.1141  0.5492 -0.0486
   43CHL1  H26A 5656   6.412   3.046   8.621  1.0729  1.7899  0.1227
   43CHL1  H26B 5657   6.246   3.071   8.659  0.0989  0.1059  0.0875
   43CHL1  H26C 5658   6.375   3.189   8.713 -2.3080  1.2507 -0.2260
   43CHL1   C27 5659   6.508   3.006   8.877 -1.3057  0.1889 -0.3360
   43CHL1  H27A 5660   6.518   2.961   8.979  1.0152 -0.7403 -0.8990
   43CHL1  H27B 5661   6.564   2.942   8.805  1.0655 -0.0833  1.6114
   43CHL1  H27C 5662   6.559   3.105   8.869 -0.9648  0.0930  0.4684
   44CHL1    C3 5663   5.568   3.733  10.386 -1.1322  0.5073 -0.2427
   44CHL1    H3 5664   5.669   3.687  10.382 -0.4267  1.8794  0.7699
   44CHL1    O3 5665   5.522   3.713  10.519  0.7831 -0.0219  0.0561
   44CHL1   H3' 5666   5.438   3.760  10.525  0.7631 -0.1652  1.0339
   44CHL1    C4 5667   5.581   3.882  10.346 -0.3904  0.9741 -0.2556
   44CHL1   H4A 5668   5.479   3.924  10.360 -1.7541 -1.7530 -1.2336
   44CHL1   H4B 5669   5.658   3.928  10.411  0.8372  0.7440 -1.5045
   44CHL1    C5 5670   5.612   3.907  10.203 -0.3201 -0.6164  1.1140
   44CHL1    C6 5671   5.731   3.957  10.177  0.1140  0.5944  0.2503
   44CHL1    H6 5672   5.802   3.995  10.253  2.0962  1.1312 -1.7750
   44CHL1    C7 5673   5.781   3.981  10.033 -0.2256 -0.3201  0.3751
   44CHL1   H7A 5674   5.826   4.082  10.035  1.5710 -1.0905  1.2455
   44CHL1   H7B 5675   5.870   3.919  10.009  1.2462  1.4120  1.1951
   44CHL1    C8 5676   5.670   3.967   9.933 -0.7010  0.0426  0.3522
   44CHL1    H8 5677   5.624   4.068   9.940  1.7792  1.1181  2.7071
   44CHL1   C14 5678   5.729   3.941   9.791  0.5971  0.4370  0.1265
   44CHL1   H14 5679   5.756   3.833   9.787  0.2441  0.3495  0.0272
   44CHL1   C15 5680   5.860   4.010   9.738  0.2401  0.2254 -1.6226
   44CHL1  H15A 5681   5.856   4.119   9.759  3.0423  0.3686 -1.4754
   44CHL1  H15B 5682   5.952   3.971   9.787  0.4449 -0.9351 -2.8626
   44CHL1   C16 5683   5.853   4.001   9.587 -0.8376  0.0785 -0.0916
   44CHL1  H16A 5684   5.845   4.106   9.550  3.8105  1.2638  1.5074
   44CHL1  H16B 5685   5.935   3.948   9.534 -0.3458 -1.9819  2.4806
   44CHL1   C17 5686   5.715   3.937   9.543 -0.3782  0.7987 -0.1633
   44CHL1   H17 5687   5.737   3.830   9.527 -0.5773  0.8714 -0.9710
   44CHL1   C13 5688   5.627   3.953   9.670 -0.4389  0.3201 -0.2380
   44CHL1   C18 5689   5.577   4.100   9.662 -0.2055 -0.5154 -0.1758
   44CHL1  H18A 5690   5.663   4.170   9.663  0.2024 -1.0131 -0.1517
   44CHL1  H18B 5691   5.515   4.128   9.574  0.8101  2.0661 -0.1587
   44CHL1  H18C 5692   5.522   4.135   9.752 -1.0651 -2.1517 -0.0171
   44CHL1   C12 5693   5.529   3.846   9.702  0.2524 -0.0254 -0.3023
   44CHL1  H12A 5694   5.447   3.831   9.628 -0.0083  0.4287 -0.1060
   44CHL1  H12B 5695   5.595   3.757   9.710 -0.3416 -0.4267  0.3007
   44CHL1   C11 5696   5.458   3.857   9.837  0.0799 -0.8153 -0.2021
   44CHL1  H11A 5697   5.400   3.952   9.839  2.3517  0.6892 -1.4020
   44CHL1  H11B 5698   5.393   3.767   9.844  0.9133 -1.5492 -1.4321
   44CHL1    C9 5699   5.564   3.856   9.952 -0.0983  0.2335 -0.9178
   44CHL1    H9 5700   5.620   3.762   9.938 -2.5346 -1.7446  1.4741
   44CHL1   C10 5701   5.511   3.854  10.100 -0.4472  0.0410 -0.1160
   44CHL1   C19 5702   5.382   3.943  10.118 -0.1700  0.4113  0.0930
   44CHL1  H19A 5703   5.325   3.907  10.207 -1.8011  0.1788 -1.0131
   44CHL1  H19B 5704   5.413   4.049  10.122  1.6434 -0.0788  0.0202
   44CHL1  H19C 5705   5.316   3.902  10.039  0.0512  2.4439 -1.1965
   44CHL1    C1 5706   5.488   3.705  10.137 -0.0229  0.5432 -0.0473
   44CHL1   H1A 5707   5.409   3.670  10.068  0.2567 -2.8529  1.1767
   44CHL1   H1B 5708   5.577   3.643  10.114 -1.0464 -0.8285 -0.4471
   44CHL1    C2 5709   5.462   3.676  10.288 -0.1773  0.2055 -0.0979
   44CHL1   H2A 5710   5.452   3.567  10.308 -1.3325 -0.1219 -2.1551
   44CHL1   H2B 5711   5.356   3.700  10.312 -0.3869 -1.8801  1.3805
   44CHL1   C20 5712   5.666   3.998   9.405 -0.4753  0.1784 -0.1717
   44CHL1   H20 5713   5.659   4.109   9.411 -2.3419  0.1542 -1.1542
   44CHL1   C21 5714   5.527   3.936   9.372  0.7833 -0.5093  0.2320
   44CHL1  H21A 5715   5.442   3.969   9.435  2.0778  1.5291  1.0302
   44CHL1  H21B 5716   5.539   3.827   9.358  1.2201 -0.5730  1.0333
   44CHL1  H21C 5717   5.499   3.972   9.270  0.4330  0.8753  0.7888
   44CHL1   C22 5718   5.758   3.977   9.280 -0.4380  1.0548  0.2236
   44CHL1  H22A 5719   5.859   3.965   9.326  0.0068 -2.9609 -1.4367
   44CHL1  H22B 5720   5.733   3.878   9.238 -4.9031  1.5163  1.2821
   44CHL1   C23 5721   5.752   4.088   9.182  0.4954 -0.2359  0.1399
   44CHL1  H23A 5722   5.649   4.089   9.140  0.4070 -0.5985  0.3389
   44CHL1  H23B 5723   5.755   4.189   9.227 -2.2485 -0.2424  0.5073
   44CHL1   C24 5724   5.847   4.081   9.064  0.7766  0.0272 -0.4466
   44CHL1  H24A 5725   5.822   3.985   9.015  0.5442 -0.9911  1.5714
   44CHL1  H24B 5726   5.808   4.167   9.005  1.1547  0.3419 -0.2417
   44CHL1   C25 5727   5.990   4.092   9.096 -0.6176  0.1347  0.0635
   44CHL1   H25 5728   6.016   4.025   9.181 -0.4954 -0.0219 -0.0972
   44CHL1   C26 5729   6.071   4.031   8.974 -0.6324 -0.0779 -0.2283
   44CHL1  H26A 5730   6.045   4.088   8.882  0.6844 -0.0932 -0.6300
   44CHL1  H26B 5731   6.180   4.025   8.996 -0.3464  2.2306 -0.8152
   44CHL1  H26C 5732   6.059   3.923   8.950  3.9564 -0.5260 -1.5678
   44CHL1   C27 5733   6.045   4.237   9.112  0.5536  0.4230 -0.0641
   44CHL1  H27A 5734   6.148   4.249   9.072  0.0930  4.3561 -0.4411
   44CHL1  H27B 5735   5.998   4.306   9.039  1.4523 -0.4404 -1.5009
   44CHL1  H27C 5736   6.034   4.269   9.218 -0.6039 -2.6112  0.8611
   45CHL1    C3 5737   1.688   1.152  10.312  0.0222  0.3721  0.2286
   45CHL1    H3 5738   1.718   1.055  10.357  0.7077  0.0108 -0.9385
   45CHL1    O3 5739   1.693   1.247  10.419 -0.4474 -0.1385 -0.1968
   45CHL1   H3' 5740   1.653   1.206  10.496  0.5436  1.5653  1.2879
   45CHL1    C4 5741   1.802   1.198  10.208 -0.2522  0.2423  0.0566
   45CHL1   H4A 5742   1.800   1.307  10.186 -2.3153  0.3062  0.3228
   45CHL1   H4B 5743   1.895   1.176  10.264 -0.1559  0.2676 -0.0931
   45CHL1    C5 5744   1.806   1.123  10.077  0.5609  0.8795 -0.1798
   45CHL1    C6 5745   1.915   1.054  10.039  0.6281  0.1866  1.1293
   45CHL1    H6 5746   2.006   1.054  10.101  1.4983  4.0929  0.1384
   45CHL1    C7 5747   1.913   0.988   9.901 -0.3313  0.2458 -0.3450
   45CHL1   H7A 5748   2.011   1.001   9.850 -0.4852 -1.0622 -1.0141
   45CHL1   H7B 5749   1.909   0.877   9.907  1.4276  0.0749 -1.5518
   45CHL1    C8 5750   1.797   1.015   9.803 -0.7596  0.0580  0.1061
   45CHL1    H8 5751   1.803   0.918   9.749  2.5894  0.1318  0.1580
   45CHL1   C14 5752   1.816   1.123   9.703 -0.6500  0.0762 -0.0621
   45CHL1   H14 5753   1.823   1.213   9.767 -0.4342 -0.9731  1.4546
   45CHL1   C15 5754   1.954   1.110   9.627  0.7749 -0.9566 -0.0544
   45CHL1  H15A 5755   2.037   1.172   9.668  0.3277 -0.8223  0.6541
   45CHL1  H15B 5756   1.984   1.003   9.627  1.0836 -0.8723  0.2292
   45CHL1   C16 5757   1.920   1.148   9.483  0.6967  0.4827 -0.5043
   45CHL1  H16A 5758   1.933   1.258   9.484  3.2563  0.2377 -0.7011
   45CHL1  H16B 5759   1.995   1.103   9.414  1.5646  0.2178  0.5851
   45CHL1   C17 5760   1.772   1.104   9.458  0.0567  0.2602 -0.2704
   45CHL1   H17 5761   1.768   0.994   9.442 -0.0836 -0.2970  2.8276
   45CHL1   C13 5762   1.706   1.138   9.597  0.3188  0.5305  0.2020
   45CHL1   C18 5763   1.672   1.291   9.594 -0.2332 -0.3494 -0.1281
   45CHL1  H18A 5764   1.600   1.312   9.512  0.5510 -2.5154 -1.4533
   45CHL1  H18B 5765   1.622   1.333   9.684  0.7140 -0.3231  0.3888
   45CHL1  H18C 5766   1.761   1.354   9.575 -0.7524 -0.1648 -2.2266
   45CHL1   C12 5767   1.581   1.050   9.634 -0.0446  0.4338 -0.5831
   45CHL1  H12A 5768   1.489   1.088   9.584 -0.9544  0.8349  1.2957
   45CHL1  H12B 5769   1.598   0.947   9.597 -0.3185 -1.1169  3.1409
   45CHL1   C11 5770   1.546   1.035   9.787 -0.6979  0.2586 -0.1640
   45CHL1  H11A 5771   1.474   1.115   9.816  0.0138  0.1834  1.9475
   45CHL1  H11B 5772   1.491   0.939   9.796  0.9028 -0.8328 -1.4661
   45CHL1    C9 5773   1.666   1.025   9.881 -0.5669  0.5511 -0.1349
   45CHL1    H9 5774   1.655   0.924   9.927 -0.1936 -1.0248 -3.1934
   45CHL1   C10 5775   1.667   1.120  10.005  0.9223  0.3143  0.2242
   45CHL1   C19 5776   1.642   1.266   9.964 -0.2930 -0.7365  0.6337
   45CHL1  H19A 5777   1.734   1.310   9.920 -1.6139  2.9406  1.1701
   45CHL1  H19B 5778   1.553   1.273   9.897  0.2413  1.1907  0.0823
   45CHL1  H19C 5779   1.613   1.332  10.048 -1.7136  0.9696 -1.0932
   45CHL1    C1 5780   1.552   1.083  10.098  0.1166 -0.6413 -0.4742
   45CHL1   H1A 5781   1.452   1.092  10.050  0.1436 -2.1321 -0.8838
   45CHL1   H1B 5782   1.571   0.976  10.124 -0.6442  0.2479  4.9834
   45CHL1    C2 5783   1.549   1.146  10.246 -0.3506  0.5374  0.0660
   45CHL1   H2A 5784   1.470   1.101  10.310 -0.8900  0.6187 -0.5239
   45CHL1   H2B 5785   1.522   1.251  10.222 -2.5663 -0.1494 -0.7166
   45CHL1   C20 5786   1.709   1.174   9.326  0.0115  0.2393  0.5701
   45CHL1   H20 5787   1.675   1.277   9.347 -0.7836  0.3003 -0.8344
   45CHL1   C21 5788   1.585   1.092   9.280 -0.2954 -0.0013 -0.2431
   45CHL1  H21A 5789   1.531   1.134   9.193 -3.1729 -1.3493  0.7826
   45CHL1  H21B 5790   1.525   1.081   9.373 -0.1418 -0.3741 -0.1840
   45CHL1  H21C 5791   1.622   0.990   9.254 -0.9263 -0.7210  1.4880
   45CHL1   C22 5792   1.816   1.194   9.215  0.1984  0.3292  0.5190
   45CHL1  H22A 5793   1.892   1.265   9.254 -0.7496  0.5135  2.1173
   45CHL1  H22B 5794   1.871   1.098   9.211  0.2775  0.3479  1.0516
   45CHL1   C23 5795   1.767   1.247   9.079 -0.1539 -0.4642  0.0449
   45CHL1  H23A 5796   1.681   1.184   9.048 -0.3565 -0.8275  1.2963
   45CHL1  H23B 5797   1.728   1.349   9.098 -2.1842 -0.7907 -1.8943
   45CHL1   C24 5798   1.878   1.243   8.972  0.2008 -0.0965 -0.5521
   45CHL1  H24A 5799   1.957   1.312   9.007 -2.1788  1.7849  1.5189
   45CHL1  H24B 5800   1.920   1.142   8.991  0.3581  0.2031  0.8641
   45CHL1   C25 5801   1.833   1.267   8.821  0.0059  0.2739 -0.8995
   45CHL1   H25 5802   1.747   1.198   8.804  0.2741  0.2734 -2.3474
   45CHL1   C26 5803   1.785   1.410   8.802 -0.0576  0.0776 -1.0115
   45CHL1  H26A 5804   1.777   1.445   8.697  0.7451  0.4050 -0.9709
   45CHL1  H26B 5805   1.688   1.411   8.855 -0.1802  0.5153 -1.2408
   45CHL1  H26C 5806   1.864   1.474   8.847  1.4235 -1.8900 -0.6499
   45CHL1   C27 5807   1.952   1.247   8.729 -0.0428  0.5040  0.3599
   45CHL1  H27A 5808   2.044   1.290   8.774  0.5113 -0.0642 -0.2059
   45CHL1  H27B 5809   1.981   1.141   8.711  1.1307  0.7251  0.8212
   45CHL1  H27C 5810   1.921   1.297   8.635 -0.6727 -1.1754 -0.3767
   46CHL1    C3 5811   6.107   6.144  10.306  0.7314  0.3378 -0.2142
   46CHL1    H3 5812   6.197   6.209  10.301  1.8285 -1.1488 -0.1887
   46CHL1    O3 5813   6.042   6.135  10.443 -0.4631  0.3508 -0.2784
   46CHL1   H3' 5814   5.991   6.055  10.428  0.2329 -0.0793 -0.4117
   46CHL1    C4 5815   6.003   6.199  10.208 -0.1467 -0.1856  0.6397
   46CHL1   H4A 5816   5.908   6.143  10.223 -4.1115  5.6390  0.5926
   46CHL1   H4B 5817   5.974   6.300  10.243 -0.4607  0.1464 -0.5250
   46CHL1    C5 5818   6.032   6.198  10.060  0.0744 -0.3375  0.1502
   46CHL1    C6 5819   6.013   6.307   9.977  0.6888 -0.4510 -0.4542
   46CHL1    H6 5820   5.992   6.403  10.025 -0.3622 -0.7140 -0.3439
   46CHL1    C7 5821   6.039   6.314   9.833  0.2165  0.0810 -0.4221
   46CHL1   H7A 5822   5.957   6.355   9.771  2.5555  1.8809 -2.5114
   46CHL1   H7B 5823   6.124   6.384   9.819 -0.4003  1.1530  0.9501
   46CHL1    C8 5824   6.074   6.178   9.774  0.6382  0.0462  0.1309
   46CHL1    H8 5825   5.976   6.130   9.753  0.4215  1.3712 -2.2349
   46CHL1   C14 5826   6.147   6.182   9.642 -0.3679  0.0046  0.6572
   46CHL1   H14 5827   6.248   6.221   9.666 -0.5066  0.4969  0.4512
   46CHL1   C15 5828   6.090   6.283   9.534  0.0545  0.7998 -0.1654
   46CHL1  H15A 5829   5.983   6.278   9.562  0.1679 -1.6909  0.0202
   46CHL1  H15B 5830   6.135   6.381   9.558  1.2156  0.1385  0.4557
   46CHL1   C16 5831   6.137   6.222   9.400 -0.1783 -0.1311  0.3496
   46CHL1  H16A 5832   6.053   6.170   9.350  1.3459 -1.1905 -1.2281
   46CHL1  H16B 5833   6.174   6.304   9.335  0.1845 -3.1558 -3.6787
   46CHL1   C17 5834   6.240   6.106   9.442  0.6321 -0.1441 -0.4254
   46CHL1   H17 5835   6.327   6.163   9.481  0.1317 -0.6158  1.4829
   46CHL1   C13 5836   6.183   6.047   9.575  0.7772 -0.4635  0.3126
   46CHL1   C18 5837   6.052   5.973   9.552  0.4724  0.1439  0.3469
   46CHL1  H18A 5838   5.990   6.020   9.473 -0.0586 -2.8402 -1.1433
   46CHL1  H18B 5839   6.080   5.877   9.504  0.1563  1.9135 -3.7844
   46CHL1  H18C 5840   5.986   5.959   9.640  1.3815 -4.1594  0.5567
   46CHL1   C12 5841   6.269   5.979   9.676  0.3231  0.8368  0.1750
   46CHL1  H12A 5842   6.303   5.877   9.645  2.4817  1.6611 -0.3633
   46CHL1  H12B 5843   6.370   6.026   9.685  1.5182 -1.6902  1.1679
   46CHL1   C11 5844   6.194   5.950   9.803 -0.3942 -0.0943 -0.2184
   46CHL1  H11A 5845   6.112   5.877   9.786  0.6976 -2.4259  3.2767
   46CHL1  H11B 5846   6.266   5.897   9.869 -0.1686  1.0255  0.4417
   46CHL1    C9 5847   6.161   6.087   9.867  0.8079  0.3915  0.0101
   46CHL1    H9 5848   6.260   6.134   9.887  2.0824 -1.7177 -1.0584
   46CHL1   C10 5849   6.094   6.073  10.013 -0.0748  0.0302  0.2180
   46CHL1   C19 5850   5.986   5.967  10.003 -0.2976  0.3766  0.1310
   46CHL1  H19A 5851   5.903   5.985   9.932 -0.4838 -3.0007 -0.7085
   46CHL1  H19B 5852   6.041   5.874   9.974  3.4819  2.6768 -0.7705
   46CHL1  H19C 5853   5.934   5.950  10.100  1.2361 -0.8004  0.8008
   46CHL1    C1 5854   6.205   6.019  10.115 -0.6456 -0.4245 -0.6565
   46CHL1   H1A 5855   6.233   5.917  10.081 -0.0114 -0.7455  0.7528
   46CHL1   H1B 5856   6.294   6.085  10.108 -1.0369  0.1645 -0.2410
   46CHL1    C2 5857   6.153   6.006  10.256  0.3726  0.7837 -0.2141
   46CHL1   H2A 5858   6.224   5.968  10.333 -1.2419 -1.1213  0.4231
   46CHL1   H2B 5859   6.076   5.927  10.265  2.4629 -1.5685 -1.7169
   46CHL1   C20 5860   6.280   6.011   9.336  0.1786  0.6338 -0.7057
   46CHL1   H20 5861   6.332   5.923   9.380 -1.2017  0.1371 -0.0033
   46CHL1   C21 5862   6.378   6.092   9.245 -0.3204 -0.2376  0.5522
   46CHL1  H21A 5863   6.313   6.171   9.200 -1.3574 -0.9241  0.8102
   46CHL1  H21B 5864   6.433   6.026   9.175  0.7115  0.7096  0.4426
   46CHL1  H21C 5865   6.462   6.142   9.299  0.4986 -0.1361 -0.7698
   46CHL1   C22 5866   6.172   5.954   9.240 -0.2858 -0.0666 -0.3615
   46CHL1  H22A 5867   6.091   5.898   9.292 -1.0408 -0.0645 -1.4938
   46CHL1  H22B 5868   6.125   6.036   9.181 -0.3862 -1.4691 -2.3083
   46CHL1   C23 5869   6.200   5.852   9.129  0.4203 -0.7293 -0.1704
   46CHL1  H23A 5870   6.277   5.882   9.054 -0.5932  3.2892  0.1573
   46CHL1  H23B 5871   6.238   5.759   9.177  1.5387  0.4234  1.2767
   46CHL1   C24 5872   6.068   5.833   9.047  0.2120  0.4676 -0.2604
   46CHL1  H24A 5873   5.978   5.828   9.112  1.4582 -2.2191  1.4453
   46CHL1  H24B 5874   6.059   5.923   8.983 -1.3572  1.2988  1.0475
   46CHL1   C25 5875   6.061   5.716   8.950  0.4315  0.0803 -0.7153
   46CHL1   H25 5876   6.099   5.626   9.002 -0.4309 -0.6220 -1.2651
   46CHL1   C26 5877   5.915   5.706   8.915  0.9115  0.5019  0.1839
   46CHL1  H26A 5878   5.850   5.683   9.002 -1.0140  2.1433 -0.7448
   46CHL1  H26B 5879   5.885   5.808   8.883  1.3485  0.3754 -0.6651
   46CHL1  H26C 5880   5.891   5.640   8.828 -2.4269  0.3178  1.1219
   46CHL1   C27 5881   6.150   5.731   8.823 -0.2054  0.0640  1.0726
   46CHL1  H27A 5882   6.145   5.633   8.771  0.8667 -0.4309  1.8486
   46CHL1  H27B 5883   6.109   5.818   8.767 -1.2352 -1.9748 -1.5449
   46CHL1  H27C 5884   6.257   5.750   8.848  0.2679 -0.9080 -0.1261
   47CHL1    C3 5885   5.788   3.305  10.270 -0.2888  0.1583  0.1023
   47CHL1    H3 5886   5.766   3.199  10.249  2.5007 -0.8365  1.6441
   47CHL1    O3 5887   5.758   3.323  10.409  0.6169  0.0321 -0.3933
   47CHL1   H3' 5888   5.662   3.317  10.417  0.5779  2.0335  2.3793
   47CHL1    C4 5889   5.934   3.330  10.244 -0.2671 -0.3728 -0.5220
   47CHL1   H4A 5890   5.967   3.420  10.301 -0.0298 -0.8909  0.1784
   47CHL1   H4B 5891   5.999   3.258  10.298  2.5350  2.1216 -0.3205
   47CHL1    C5 5892   5.969   3.341  10.098  0.4843  0.2462  0.3024
   47CHL1    C6 5893   6.057   3.258  10.048  0.5293  0.2977  0.0583
   47CHL1    H6 5894   6.102   3.186  10.119 -1.7501 -0.6214  0.6776
   47CHL1    C7 5895   6.088   3.245   9.898 -0.3649 -0.1927 -0.2099
   47CHL1   H7A 5896   6.193   3.227   9.868 -0.2065  0.0188  0.2165
   47CHL1   H7B 5897   6.037   3.156   9.854 -2.8592  0.4218  1.2542
   47CHL1    C8 5898   6.044   3.365   9.821 -0.4575  0.2178 -0.4080
   47CHL1    H8 5899   6.107   3.450   9.856 -1.5562  0.0946  2.0930
   47CHL1   C14 5900   6.041   3.347   9.668 -0.1072  0.3275  0.6476
   47CHL1   H14 5901   5.965   3.269   9.650 -0.8766  1.0699  0.6297
   47CHL1   C15 5902   6.172   3.300   9.609  0.2191 -0.2611  0.9188
   47CHL1  H15A 5903   6.254   3.370   9.638  1.0579  0.1116 -2.0098
   47CHL1  H15B 5904   6.182   3.198   9.651 -2.7385 -0.4261  1.4231
   47CHL1   C16 5905   6.156   3.324   9.463 -0.2594  0.4625  0.5069
   47CHL1  H16A 5906   6.240   3.376   9.412 -1.9334  0.6881 -2.2116
   47CHL1  H16B 5907   6.147   3.232   9.402  1.6228  0.9877 -0.6597
   47CHL1   C17 5908   6.035   3.421   9.437 -0.8198 -0.0608 -0.1642
   47CHL1   H17 5909   5.950   3.356   9.408 -0.5226  0.1054 -1.4406
   47CHL1   C13 5910   5.998   3.466   9.585  0.3468  0.0061 -0.1935
   47CHL1   C18 5911   6.090   3.587   9.624 -0.1506  0.0457 -0.4339
   47CHL1  H18A 5912   6.088   3.621   9.729 -0.4436  0.2125 -0.4936
   47CHL1  H18B 5913   6.196   3.572   9.593  0.5519  3.6497 -0.1614
   47CHL1  H18C 5914   6.063   3.676   9.564 -0.5465  0.4106  0.2779
   47CHL1   C12 5915   5.850   3.491   9.614 -0.7021 -0.4696 -0.3119
   47CHL1  H12A 5916   5.808   3.586   9.575 -0.5981 -0.4244 -0.3138
   47CHL1  H12B 5917   5.795   3.398   9.588 -1.7070  0.3274 -1.0893
   47CHL1   C11 5918   5.833   3.509   9.769  0.2038 -0.6579  0.4618
   47CHL1  H11A 5919   5.859   3.616   9.785 -1.2947 -0.4775  1.9718
   47CHL1  H11B 5920   5.724   3.515   9.791 -0.0421  1.0495 -0.9491
   47CHL1    C9 5921   5.902   3.407   9.858 -0.6174 -0.2424 -0.2299
   47CHL1    H9 5922   5.838   3.318   9.841 -2.6901  1.1334  0.0349
   47CHL1   C10 5923   5.881   3.434  10.005 -0.2142 -0.9152 -0.5712
   47CHL1   C19 5924   5.914   3.589  10.037 -0.3861  0.1943  0.0649
   47CHL1  H19A 5925   5.854   3.657   9.972 -1.3788  1.6909  2.3925
   47CHL1  H19B 5926   5.883   3.614  10.141 -1.8193  1.8108 -0.6974
   47CHL1  H19C 5927   6.023   3.609  10.030 -0.6068  1.0533 -1.2685
   47CHL1    C1 5928   5.735   3.403  10.044 -0.0654  0.2262  0.2259
   47CHL1   H1A 5929   5.659   3.474  10.005  0.9664  2.0755  1.4515
   47CHL1   H1B 5930   5.704   3.302  10.009 -1.3894 -0.0937  2.1476
   47CHL1    C2 5931   5.702   3.403  10.194 -0.1819  0.5885 -0.1568
   47CHL1   H2A 5932   5.592   3.389  10.210 -0.2238 -1.7272 -1.9198
   47CHL1   H2B 5933   5.732   3.498  10.243  0.6296 -0.4784  1.5024
   47CHL1   C20 5934   6.072   3.539   9.338 -0.0699  0.0248 -0.6023
   47CHL1   H20 5935   6.165   3.592   9.367 -0.4326 -0.5989  1.8753
   47CHL1   C21 5936   5.954   3.630   9.324  0.3727  0.4018  0.1696
   47CHL1  H21A 5937   5.965   3.717   9.255  1.2927  0.3915  0.2929
   47CHL1  H21B 5938   5.930   3.680   9.421 -0.7363  2.0290 -0.8752
   47CHL1  H21C 5939   5.868   3.563   9.303  0.2654  0.1915  1.2138
   47CHL1   C22 5940   6.111   3.483   9.195  0.3544  0.3168 -1.2178
   47CHL1  H22A 5941   6.181   3.399   9.213 -2.5975 -1.6707  2.5719
   47CHL1  H22B 5942   6.032   3.426   9.142  0.6763 -0.7387 -0.6009
   47CHL1   C23 5943   6.154   3.589   9.096  0.9807  0.2412 -0.3570
   47CHL1  H23A 5944   6.065   3.635   9.048  1.4773 -1.4252 -3.1103
   47CHL1  H23B 5945   6.218   3.660   9.152 -0.0976  0.6704  0.3554
   47CHL1   C24 5946   6.241   3.523   8.982  0.2947  0.2338  0.9318
   47CHL1  H24A 5947   6.339   3.501   9.030  1.1818  1.1121 -0.3919
   47CHL1  H24B 5948   6.191   3.428   8.953  0.3134  1.5992 -4.5957
   47CHL1   C25 5949   6.244   3.619   8.861 -0.6205 -1.1236 -0.8144
   47CHL1   H25 5950   6.141   3.658   8.849 -0.4628 -0.3128  0.3288
   47CHL1   C26 5951   6.349   3.730   8.888 -0.0632 -0.3614  0.1055
   47CHL1  H26A 5952   6.351   3.801   8.803 -0.9765 -0.5097 -0.0434
   47CHL1  H26B 5953   6.455   3.696   8.901  0.1329 -0.5837 -1.8499
   47CHL1  H26C 5954   6.311   3.790   8.973 -2.0611 -1.7682  0.2860
   47CHL1   C27 5955   6.281   3.535   8.736 -0.3473 -0.2164  0.1413
   47CHL1  H27A 5956   6.220   3.443   8.748 -2.7398  1.4883  2.3534
   47CHL1  H27B 5957   6.260   3.586   8.640  0.4113  1.7102  0.9487
   47CHL1  H27C 5958   6.390   3.515   8.739 -0.0847  1.0783 -0.4482
   48CHL1    C3 5959   6.490   3.655  10.160  0.6759  0.0602  0.0734
   48CHL1    H3 5960   6.492   3.766  10.163 -1.3746  0.2413 -2.2554
   48CHL1    O3 5961   6.473   3.605  10.289 -0.3092 -0.3698 -0.4093
   48CHL1   H3' 5962   6.560   3.601  10.329 -1.0294 -0.5059  1.2284
   48CHL1    C4 5963   6.363   3.617  10.077 -0.7512 -0.2178  0.2610
   48CHL1   H4A 5964   6.359   3.508  10.060  0.9557 -0.0122 -2.0385
   48CHL1   H4B 5965   6.277   3.643  10.142  0.2544  1.3591  1.0418
   48CHL1    C5 5966   6.368   3.697   9.947  0.2789  1.0049 -0.1548
   48CHL1    C6 5967   6.279   3.797   9.917  0.1818 -0.6078 -0.4637
   48CHL1    H6 5968   6.199   3.829   9.985  0.5492  0.6062 -0.5894
   48CHL1    C7 5969   6.277   3.874   9.790  0.6548 -0.4881  0.1931
   48CHL1   H7A 5970   6.177   3.897   9.748  1.4687  1.0032 -1.0584
   48CHL1   H7B 5971   6.328   3.970   9.814 -2.0262  0.8216  1.0000
   48CHL1    C8 5972   6.371   3.803   9.690 -0.2132  0.0592 -0.3422
   48CHL1    H8 5973   6.327   3.708   9.652 -3.0154  1.0615  0.1179
   48CHL1   C14 5974   6.391   3.891   9.576  0.5356 -0.7471  0.1196
   48CHL1   H14 5975   6.443   3.981   9.616  0.8681 -0.1297 -1.5920
   48CHL1   C15 5976   6.267   3.935   9.497  0.2330  0.0290 -0.2163
   48CHL1  H15A 5977   6.191   3.855   9.480 -0.3611  0.2517  1.2270
   48CHL1  H15B 5978   6.218   4.020   9.549  1.4958  0.3843  0.4157
   48CHL1   C16 5979   6.318   3.984   9.355 -0.4913 -0.3059  0.4302
   48CHL1  H16A 5980   6.264   3.921   9.282 -0.1682  1.3160 -1.3056
   48CHL1  H16B 5981   6.304   4.093   9.336 -1.5665 -0.8331 -2.3394
   48CHL1   C17 5982   6.466   3.949   9.356 -0.5417 -0.2881  0.2772
   48CHL1   H17 5983   6.523   4.028   9.409 -2.5984 -0.2928  2.6713
   48CHL1   C13 5984   6.479   3.839   9.466 -0.0969 -0.0290  0.6852
   48CHL1   C18 5985   6.422   3.708   9.416 -0.4113  0.2998  0.0381
   48CHL1  H18A 5986   6.393   3.632   9.491  0.1709 -0.1683 -0.1976
   48CHL1  H18B 5987   6.336   3.730   9.350  0.3271  2.1577 -0.3666
   48CHL1  H18C 5988   6.495   3.654   9.352 -0.1166  0.5140  0.1934
   48CHL1   C12 5989   6.625   3.825   9.525  0.5598 -0.8690 -0.4852
   48CHL1  H12A 5990   6.687   3.775   9.448  1.2557 -0.5591 -0.1362
   48CHL1  H12B 5991   6.659   3.926   9.559  0.3100 -0.9181 -0.0833
   48CHL1   C11 5992   6.619   3.726   9.641 -0.7544  0.6696 -0.2605
   48CHL1  H11A 5993   6.610   3.627   9.593 -0.1656  0.9088 -0.8745
   48CHL1  H11B 5994   6.722   3.721   9.684 -0.0267 -1.3694 -2.1031
   48CHL1    C9 5995   6.512   3.764   9.751 -0.8816 -0.3575  0.5275
   48CHL1    H9 5996   6.547   3.863   9.788 -0.3693 -0.6834  0.9358
   48CHL1   C10 5997   6.492   3.660   9.866  0.1650  0.1951  0.6138
   48CHL1   C19 5998   6.485   3.512   9.808 -0.2283  0.3813 -0.7133
   48CHL1  H19A 5999   6.470   3.435   9.887  1.9913 -0.0507 -0.6333
   48CHL1  H19B 6000   6.402   3.503   9.734 -0.9702  1.5541 -0.0318
   48CHL1  H19C 6001   6.581   3.488   9.755 -0.9983 -0.5733 -1.7363
   48CHL1    C1 6002   6.617   3.672   9.956 -0.2606 -0.3202 -0.6979
   48CHL1   H1A 6003   6.708   3.632   9.907 -0.0322 -0.5427 -0.0991
   48CHL1   H1B 6004   6.625   3.782   9.973 -1.9281 -0.0903 -1.2394
   48CHL1    C2 6005   6.609   3.602  10.088 -0.2092  0.2962  0.1452
   48CHL1   H2A 6006   6.702   3.618  10.147  1.4340 -1.9956 -1.6565
   48CHL1   H2B 6007   6.600   3.492  10.072 -0.1674  0.5732 -2.0052
   48CHL1   C20 6008   6.524   3.927   9.213 -0.1623  0.3725  0.1953
   48CHL1   H20 6009   6.484   3.828   9.181 -0.3553 -0.6099  3.1232
   48CHL1   C21 6010   6.684   3.935   9.205 -0.0116  0.3089  0.1922
   48CHL1  H21A 6011   6.732   3.846   9.251  0.4724 -0.6900 -2.0885
   48CHL1  H21B 6012   6.718   4.028   9.256  0.5456  1.3713 -1.9648
   48CHL1  H21C 6013   6.724   3.938   9.101  0.6278 -0.6937  0.4041
   48CHL1   C22 6014   6.463   4.026   9.115  0.4691 -0.1324  0.3355
   48CHL1  H22A 6015   6.356   3.998   9.102  0.1988  0.6992  0.6639
   48CHL1  H22B 6016   6.459   4.129   9.157 -1.0457  1.7459 -3.8708
   48CHL1   C23 6017   6.530   4.026   8.976  0.6450  0.3793  0.1828
   48CHL1  H23A 6018   6.612   4.101   8.974 -1.1034  2.3982 -0.8609
   48CHL1  H23B 6019   6.555   3.920   8.955 -3.0050 -0.5629 -0.2062
   48CHL1   C24 6020   6.435   4.095   8.867  0.1320  0.4020  0.0854
   48CHL1  H24A 6021   6.341   4.040   8.846  0.7359  0.1042 -2.0677
   48CHL1  H24B 6022   6.410   4.198   8.901 -2.5890  0.5113 -1.8858
   48CHL1   C25 6023   6.504   4.112   8.733 -0.9611  0.0859 -0.6886
   48CHL1   H25 6024   6.579   4.193   8.734  0.0673 -0.8395  1.1901
   48CHL1   C26 6025   6.592   3.992   8.698  0.1458 -0.3138  0.6657
   48CHL1  H26A 6026   6.681   3.978   8.761 -0.0881  0.9696  1.3134
   48CHL1  H26B 6027   6.534   3.899   8.712 -1.6783  0.0641 -3.0472
   48CHL1  H26C 6028   6.628   4.005   8.593  2.5583  1.0777  1.5889
   48CHL1   C27 6029   6.403   4.143   8.614 -0.4681 -0.0409 -0.3429
   48CHL1  H27A 6030   6.458   4.215   8.550  0.2879  0.4490  0.8138
   48CHL1  H27B 6031   6.378   4.055   8.550  1.5689 -2.9098  2.4782
   48CHL1  H27C 6032   6.319   4.198   8.661  1.0116  1.8148  0.2773
   49CHL1    C3 6033   5.147   0.727  10.303  0.6397 -0.0629 -0.3120
   49CHL1    H3 6034   5.097   0.816  10.347  0.0646 -0.2636 -0.5479
   49CHL1    O3 6035   5.175   0.638  10.409  0.4933  0.4280 -0.2726
   49CHL1   H3' 6036   5.245   0.681  10.459  1.2723  1.2006 -1.9607
   49CHL1    C4 6037   5.053   0.653  10.204  0.5544 -0.1147 -0.2515
   49CHL1   H4A 6038   5.111   0.560  10.181 -1.2172 -1.1381 -0.7589
   49CHL1   H4B 6039   4.957   0.620  10.247  0.0967 -2.1979 -2.6028
   49CHL1    C5 6040   5.029   0.714  10.071  0.3847  0.5173 -0.2615
   49CHL1    C6 6041   4.903   0.739  10.032  0.6385 -0.4499 -0.5133
   49CHL1    H6 6042   4.815   0.705  10.088 -0.3155  1.3057 -0.8690
   49CHL1    C7 6043   4.877   0.800   9.896  0.1268  0.0786 -0.5202
   49CHL1   H7A 6044   4.803   0.749   9.831  0.3897 -0.2251 -0.5822
   49CHL1   H7B 6045   4.847   0.907   9.897  0.2046  0.1110  0.8705
   49CHL1    C8 6046   5.004   0.799   9.806  0.4441 -0.3002  0.4907
   49CHL1    H8 6047   5.019   0.692   9.780  2.4794 -0.0204  0.3283
   49CHL1   C14 6048   4.982   0.877   9.677  0.4880 -0.5641 -0.3258
   49CHL1   H14 6049   4.957   0.978   9.715 -0.7907 -1.2379  0.6812
   49CHL1   C15 6050   4.864   0.838   9.582  0.0053 -0.4840  0.5115
   49CHL1  H15A 6051   4.874   0.732   9.552 -0.6285  0.0533 -1.7818
   49CHL1  H15B 6052   4.759   0.857   9.615 -0.7348 -1.2506 -1.3109
   49CHL1   C16 6053   4.898   0.920   9.455 -0.4212  0.1892  0.6516
   49CHL1  H16A 6054   4.875   0.870   9.358  2.3923  0.5544 -0.3104
   49CHL1  H16B 6055   4.844   1.016   9.444 -0.3513  0.0974 -0.7922
   49CHL1   C17 6056   5.043   0.974   9.472 -0.4074 -0.1592 -0.0722
   49CHL1   H17 6057   5.026   1.079   9.506  0.6700  0.0919 -0.2691
   49CHL1   C13 6058   5.107   0.896   9.587 -0.2204  0.3315  0.0290
   49CHL1   C18 6059   5.158   0.757   9.537 -0.4115  0.2379 -0.0283
   49CHL1  H18A 6060   5.181   0.682   9.616  2.2619 -0.0386 -0.9829
   49CHL1  H18B 6061   5.085   0.715   9.464  1.4344  0.9021 -2.3761
   49CHL1  H18C 6062   5.249   0.768   9.474  0.9518 -2.2264  1.3515
   49CHL1   C12 6063   5.201   0.982   9.671  0.5141  0.0024 -0.7588
   49CHL1  H12A 6064   5.296   1.010   9.621  1.5960 -0.2885  1.0218
   49CHL1  H12B 6065   5.146   1.075   9.698  0.4836  0.3528 -1.9682
   49CHL1   C11 6066   5.242   0.898   9.793 -0.0428  0.7914  0.0717
   49CHL1  H11A 6067   5.304   0.823   9.740 -0.6942  0.8286 -0.7585
   49CHL1  H11B 6068   5.309   0.956   9.861  1.5264 -2.4737  1.5366
   49CHL1    C9 6069   5.123   0.854   9.881  0.4758  0.3973  0.0823
   49CHL1    H9 6070   5.092   0.951   9.927 -1.7759  0.9115 -2.2221
   49CHL1   C10 6071   5.159   0.763  10.001 -0.0882  0.3021 -0.2389
   49CHL1   C19 6072   5.222   0.633   9.935 -0.4196  0.3977 -0.1338
   49CHL1  H19A 6073   5.225   0.546  10.004 -0.6927  0.9512  0.5952
   49CHL1  H19B 6074   5.172   0.582   9.850  0.0020 -1.8849  0.9272
   49CHL1  H19C 6075   5.324   0.662   9.900 -0.9476  0.9418 -1.2964
   49CHL1    C1 6076   5.253   0.833  10.099 -0.1539  0.5792  0.3603
   49CHL1   H1A 6077   5.355   0.847  10.059  0.3809  1.0667  1.8392
   49CHL1   H1B 6078   5.198   0.926  10.128  0.2088  0.9818 -0.2106
   49CHL1    C2 6079   5.273   0.760  10.232 -0.5946  0.0840  0.2165
   49CHL1   H2A 6080   5.332   0.827  10.297 -0.7988 -0.1326  0.6308
   49CHL1   H2B 6081   5.326   0.663  10.218  2.6435  1.7511  0.1951
   49CHL1   C20 6082   5.111   0.983   9.333 -0.6756 -0.2509 -0.4643
   49CHL1   H20 6083   5.138   0.879   9.303 -0.0475 -0.8923  2.0900
   49CHL1   C21 6084   5.244   1.056   9.348 -0.0497 -0.3774 -0.4641
   49CHL1  H21A 6085   5.301   1.085   9.257 -0.4120  3.2980  0.3541
   49CHL1  H21B 6086   5.315   0.988   9.401  2.4418  2.1602 -0.2684
   49CHL1  H21C 6087   5.229   1.153   9.399 -0.2915  1.1445 -3.2812
   49CHL1   C22 6088   5.033   1.060   9.216  0.4172  0.9150 -0.6516
   49CHL1  H22A 6089   4.924   1.040   9.216  0.4533  0.5833  1.0760
   49CHL1  H22B 6090   5.042   1.167   9.243  0.4407  0.5023  1.0848
   49CHL1   C23 6091   5.090   1.034   9.078  0.0285  0.3785  1.6948
   49CHL1  H23A 6092   5.188   1.087   9.080  0.3890 -0.1064 -0.7045
   49CHL1  H23B 6093   5.114   0.929   9.053  2.5447  0.7937  2.0485
   49CHL1   C24 6094   5.002   1.111   8.976 -0.2427 -0.5636  0.1485
   49CHL1  H24A 6095   4.896   1.081   8.990 -0.9305  1.6478  0.0542
   49CHL1  H24B 6096   5.004   1.216   9.013 -1.0025 -1.0118  1.5343
   49CHL1   C25 6097   5.047   1.105   8.826  0.4599  0.5080  0.2012
   49CHL1   H25 6098   5.013   1.003   8.798 -0.5470  1.5121 -2.6120
   49CHL1   C26 6099   4.955   1.206   8.740 -0.5670 -0.2131 -1.2227
   49CHL1  H26A 6100   4.962   1.180   8.633  0.4709 -0.6121 -1.0706
   49CHL1  H26B 6101   4.848   1.211   8.771  0.0749  1.8047  0.9589
   49CHL1  H26C 6102   4.993   1.304   8.776 -0.8133  0.0096 -1.5646
   49CHL1   C27 6103   5.194   1.128   8.802 -0.1282  0.1875  0.7879
   49CHL1  H27A 6104   5.265   1.067   8.861  0.4240 -1.1766 -1.1714
   49CHL1  H27B 6105   5.229   1.107   8.698  0.4207  1.0285  0.7929
   49CHL1  H27C 6106   5.208   1.238   8.813 -1.0234  0.5727 -1.3480
   50CHL1    C3 6107   2.368   6.620  10.447 -0.0404  0.2258 -0.5460
   50CHL1    H3 6108   2.276   6.679  10.429 -0.9679 -0.6168  1.2157
   50CHL1    O3 6109   2.340   6.568  10.575 -1.0558  0.0559  0.6198
   50CHL1   H3' 6110   2.427   6.534  10.597  0.2096  0.2266 -3.2805
   50CHL1    C4 6111   2.389   6.512  10.336 -0.6318  0.0422  0.3666
   50CHL1   H4A 6112   2.474   6.447  10.367 -1.3819 -0.7909  0.7107
   50CHL1   H4B 6113   2.299   6.447  10.337 -0.0983 -0.7938 -1.5071
   50CHL1    C5 6114   2.408   6.574  10.202 -0.0736  0.4378  0.2362
   50CHL1    C6 6115   2.331   6.540  10.098  0.7721 -0.4239  0.1479
   50CHL1    H6 6116   2.258   6.457  10.104  1.0884 -0.7531 -0.4992
   50CHL1    C7 6117   2.353   6.605   9.967  0.6470 -0.3461 -0.1559
   50CHL1   H7A 6118   2.361   6.521   9.895  2.8814 -0.1594 -0.1977
   50CHL1   H7B 6119   2.263   6.665   9.941  0.7629 -0.1286 -0.0559
   50CHL1    C8 6120   2.480   6.692   9.953 -0.2888  0.1971 -0.0351
   50CHL1    H8 6121   2.565   6.628   9.921 -0.8416  0.6378 -2.6770
   50CHL1   C14 6122   2.449   6.785   9.839  0.5149 -0.7980 -0.2965
   50CHL1   H14 6123   2.376   6.854   9.886  0.8974 -0.3520 -0.3484
   50CHL1   C15 6124   2.378   6.732   9.713  0.1426 -0.5215  0.5704
   50CHL1  H15A 6125   2.412   6.629   9.690 -0.0947 -0.2369 -1.1630
   50CHL1  H15B 6126   2.268   6.728   9.725 -0.0907  0.8248 -0.7327
   50CHL1   C16 6127   2.409   6.844   9.607 -0.1647 -0.2580  0.0652
   50CHL1  H16A 6128   2.475   6.801   9.529 -1.2975 -4.5386  1.1928
   50CHL1  H16B 6129   2.312   6.870   9.559 -0.6329 -0.6727  0.7746
   50CHL1   C17 6130   2.485   6.960   9.684  0.1455  0.8625 -0.7542
   50CHL1   H17 6131   2.412   7.016   9.745 -1.1721 -2.2315  0.7293
   50CHL1   C13 6132   2.559   6.879   9.800  0.1614  0.1155 -0.2501
   50CHL1   C18 6133   2.678   6.798   9.748 -0.3082 -0.1339  0.2202
   50CHL1  H18A 6134   2.759   6.872   9.729  0.8612 -1.4092  0.0760
   50CHL1  H18B 6135   2.725   6.739   9.829 -1.6227 -0.3154  0.8604
   50CHL1  H18C 6136   2.654   6.730   9.664 -0.0758  0.4784 -0.3533
   50CHL1   C12 6137   2.596   6.952   9.928  0.1156  0.0958  0.1251
   50CHL1  H12A 6138   2.680   7.025   9.927 -0.7846  1.1602  0.6743
   50CHL1  H12B 6139   2.503   7.010   9.945 -0.4355  0.0241 -2.2732
   50CHL1   C11 6140   2.609   6.864  10.050  0.7880  0.0911  0.1754
   50CHL1  H11A 6141   2.703   6.808  10.034 -0.0004 -1.4126  0.6557
   50CHL1  H11B 6142   2.623   6.934  10.135 -0.0663 -0.3595  0.7030
   50CHL1    C9 6143   2.500   6.765  10.077  0.7511  0.6714  0.2538
   50CHL1    H9 6144   2.404   6.816  10.100 -0.5046 -1.8281  0.9098
   50CHL1   C10 6145   2.520   6.675  10.202 -0.8837  0.6241 -0.4900
   50CHL1   C19 6146   2.653   6.595  10.213 -0.0483  0.0941  0.3979
   50CHL1  H19A 6147   2.652   6.540  10.309 -2.9002 -0.1194  0.3123
   50CHL1  H19B 6148   2.656   6.511  10.140  0.3301  0.0697  0.4409
   50CHL1  H19C 6149   2.750   6.645  10.189 -0.0223  0.2464  0.8162
   50CHL1    C1 6150   2.521   6.781  10.321  0.1397  0.7118 -0.5635
   50CHL1   H1A 6151   2.617   6.837  10.325 -0.5723  1.9205  0.2061
   50CHL1   H1B 6152   2.440   6.854  10.300 -0.0304  0.5964 -0.3058
   50CHL1    C2 6153   2.488   6.716  10.456 -0.2047  0.5507  0.2005
   50CHL1   H2A 6154   2.455   6.798  10.523 -2.6537 -1.2565  1.3910
   50CHL1   H2B 6155   2.579   6.666  10.495 -0.6463  0.0382  0.5860
   50CHL1   C20 6156   2.566   7.065   9.611 -0.0804  0.3076  0.7900
   50CHL1   H20 6157   2.659   7.032   9.560 -1.1870 -0.1819 -0.9785
   50CHL1   C21 6158   2.608   7.187   9.696 -0.5559  0.2720 -0.6695
   50CHL1  H21A 6159   2.703   7.152   9.742 -2.0173 -1.9051  0.9195
   50CHL1  H21B 6160   2.528   7.215   9.768 -0.5342  1.6516 -1.1665
   50CHL1  H21C 6161   2.622   7.271   9.625 -1.6094  1.5267  0.5393
   50CHL1   C22 6162   2.474   7.110   9.490  0.6299 -0.1176 -0.4225
   50CHL1  H22A 6163   2.421   7.024   9.443 -2.5421  0.5538  1.5739
   50CHL1  H22B 6164   2.396   7.176   9.534 -0.6322 -0.7844 -1.5796
   50CHL1   C23 6165   2.552   7.190   9.376 -0.6323  0.1153  0.3156
   50CHL1  H23A 6166   2.606   7.281   9.409  1.9231 -0.9337 -0.7434
   50CHL1  H23B 6167   2.615   7.122   9.315  0.2551  1.1914  0.0085
   50CHL1   C24 6168   2.447   7.233   9.269 -0.2716  0.1064  0.5490
   50CHL1  H24A 6169   2.404   7.146   9.216 -1.4968  1.6418 -1.1106
   50CHL1  H24B 6170   2.353   7.272   9.314 -0.7408  1.5284 -1.5354
   50CHL1   C25 6171   2.498   7.346   9.173 -0.8915  0.0543  0.6456
   50CHL1   H25 6172   2.594   7.309   9.130 -0.7659 -0.4925  1.3620
   50CHL1   C26 6173   2.396   7.366   9.055  0.2664 -0.1278  0.1696
   50CHL1  H26A 6174   2.296   7.386   9.099  0.5963  1.3625  0.2858
   50CHL1  H26B 6175   2.427   7.456   8.998  2.5745 -1.0556 -0.1416
   50CHL1  H26C 6176   2.402   7.272   8.997 -0.2897 -1.6155  2.3754
   50CHL1   C27 6177   2.522   7.481   9.235  0.5476 -0.2517 -0.8106
   50CHL1  H27A 6178   2.424   7.496   9.287  1.4387 -0.5640  1.0486
   50CHL1  H27B 6179   2.605   7.479   9.308 -0.6270  3.9175  0.9460
   50CHL1  H27C 6180   2.543   7.568   9.170 -0.4881  0.3173 -0.4164
   51CHL1    C3 6181   2.052   1.974  10.536 -0.0843 -0.7000 -0.9963
   51CHL1    H3 6182   2.134   2.035  10.579 -1.2220 -0.0937  0.3857
   51CHL1    O3 6183   2.017   1.888  10.646 -0.0119  0.1975  0.0142
   51CHL1   H3' 6184   2.105   1.861  10.675  0.2581  0.1211 -0.8454
   51CHL1    C4 6185   1.940   2.065  10.481  0.6637 -0.1551 -0.4744
   51CHL1   H4A 6186   1.845   2.007  10.475  0.9801 -0.6963 -0.3824
   51CHL1   H4B 6187   1.920   2.133  10.566  0.1971  2.6609 -2.6880
   51CHL1    C5 6188   1.973   2.136  10.344  0.8052 -0.1358 -0.5521
   51CHL1    C6 6189   1.959   2.264  10.326 -0.5271  0.0715 -0.2034
   51CHL1    H6 6190   1.908   2.315  10.408 -0.9369  0.4278 -0.6713
   51CHL1    C7 6191   1.991   2.337  10.195 -0.2462 -0.2708 -0.3073
   51CHL1   H7A 6192   1.910   2.410  10.176  0.9079  0.6244 -2.0821
   51CHL1   H7B 6193   2.080   2.402  10.208 -0.7275  0.2475  0.4981
   51CHL1    C8 6194   2.003   2.244  10.073 -0.5340  0.2805  0.0775
   51CHL1    H8 6195   1.902   2.203  10.049  0.1395 -1.7070  0.4828
   51CHL1   C14 6196   2.041   2.315   9.946 -0.0755 -0.1213 -0.9338
   51CHL1   H14 6197   2.137   2.368   9.964  0.0632 -0.4912 -0.5671
   51CHL1   C15 6198   1.952   2.431   9.887 -0.3976  0.2796 -0.0372
   51CHL1  H15A 6199   1.848   2.397   9.910  0.9356 -3.1093  1.5729
   51CHL1  H15B 6200   1.972   2.527   9.938 -2.2467  0.0693  1.2035
   51CHL1   C16 6201   1.992   2.431   9.742  0.3376  0.8922  0.7739
   51CHL1  H16A 6202   1.904   2.419   9.675  1.0635 -2.0271  0.2185
   51CHL1  H16B 6203   2.029   2.532   9.713  3.6701 -0.4595 -0.1188
   51CHL1   C17 6204   2.092   2.322   9.714 -0.0967  0.0424 -0.1997
   51CHL1   H17 6205   2.193   2.366   9.722  0.3600 -1.1277  0.9529
   51CHL1   C13 6206   2.073   2.221   9.830  0.0787  0.2034  0.2071
   51CHL1   C18 6207   1.950   2.132   9.790 -0.1568 -0.6240 -0.9342
   51CHL1  H18A 6208   1.868   2.199   9.755  0.1486 -0.3484 -1.1220
   51CHL1  H18B 6209   1.978   2.056   9.715  0.7122 -2.9397  1.5856
   51CHL1  H18C 6210   1.905   2.077   9.876 -0.6379  0.2967 -0.5735
   51CHL1   C12 6211   2.199   2.140   9.874 -0.6339 -0.7941 -0.3869
   51CHL1  H12A 6212   2.241   2.076   9.794  0.9077  1.0544 -1.1344
   51CHL1  H12B 6213   2.279   2.213   9.898 -0.2821 -1.3681  0.2200
   51CHL1   C11 6214   2.163   2.047   9.989 -0.0910 -1.0445 -0.3351
   51CHL1  H11A 6215   2.082   1.978   9.955 -0.6844 -0.4627 -0.1272
   51CHL1  H11B 6216   2.254   1.999  10.031  0.2476 -0.0425  0.0991
   51CHL1    C9 6217   2.101   2.133  10.108 -0.1669  0.1526 -0.5194
   51CHL1    H9 6218   2.187   2.189  10.152 -0.8284  1.4901 -0.8845
   51CHL1   C10 6219   2.041   2.053  10.234 -0.7860 -0.2201 -0.0269
   51CHL1   C19 6220   1.943   1.956  10.177 -0.1700  0.5257 -0.4999
   51CHL1  H19A 6221   1.996   1.870  10.131 -1.5460 -0.5688 -0.1261
   51CHL1  H19B 6222   1.890   1.904  10.260  2.0096  0.4780  0.9323
   51CHL1  H19C 6223   1.863   2.000  10.113 -2.6426 -1.7590  0.8370
   51CHL1    C1 6224   2.167   1.993  10.307  0.8324 -0.2869  0.8278
   51CHL1   H1A 6225   2.229   1.942  10.231  0.6237  0.6187  0.0347
   51CHL1   H1B 6226   2.227   2.081  10.338  0.7319  0.2628 -0.4913
   51CHL1    C2 6227   2.119   1.899  10.418  0.1621  0.7864  0.5439
   51CHL1   H2A 6228   2.198   1.837  10.466  0.8963  0.4817 -0.9876
   51CHL1   H2B 6229   2.044   1.827  10.378 -0.0967  1.9172 -1.1139
   51CHL1   C20 6230   2.086   2.271   9.573 -0.1489  0.6223 -0.0458
   51CHL1   H20 6231   1.985   2.223   9.570 -0.6091  1.3504  1.8989
   51CHL1   C21 6232   2.193   2.157   9.546  0.5304  0.2953 -0.1042
   51CHL1  H21A 6233   2.170   2.100   9.453 -0.4871 -2.4800  1.7056
   51CHL1  H21B 6234   2.177   2.074   9.618  0.2475  0.2476 -0.2202
   51CHL1  H21C 6235   2.299   2.190   9.539  1.3447 -2.2958 -1.4674
   51CHL1   C22 6236   2.096   2.391   9.476 -0.3551 -0.1431 -0.2038
   51CHL1  H22A 6237   2.006   2.451   9.499 -0.1171  0.7750 -1.5517
   51CHL1  H22B 6238   2.187   2.453   9.492 -1.1235  0.6953  1.1085
   51CHL1   C23 6239   2.078   2.339   9.331 -0.3678 -0.3673  0.8504
   51CHL1  H23A 6240   2.167   2.275   9.310 -0.3922 -0.2613  0.4098
   51CHL1  H23B 6241   1.992   2.270   9.325  0.0996 -0.8353 -0.9177
   51CHL1   C24 6242   2.073   2.450   9.222  0.4022 -0.1362  0.0199
   51CHL1  H24A 6243   1.981   2.513   9.223  0.8590  0.5471  1.1778
   51CHL1  H24B 6244   2.153   2.526   9.235 -0.0711  0.2712  0.6474
   51CHL1   C25 6245   2.104   2.405   9.079 -0.1633 -0.2402  0.6450
   51CHL1   H25 6246   2.046   2.313   9.055  1.8404 -1.7146  1.1318
   51CHL1   C26 6247   2.047   2.506   8.973 -0.0041  0.2329  0.1210
   51CHL1  H26A 6248   1.938   2.521   8.979 -0.1202  1.4161 -3.0515
   51CHL1  H26B 6249   2.100   2.603   8.981  1.9611 -0.7725 -0.0023
   51CHL1  H26C 6250   2.077   2.471   8.871  4.6565  0.0209  1.3046
   51CHL1   C27 6251   2.249   2.373   9.046  0.0715 -0.7644  0.4160
   51CHL1  H27A 6252   2.248   2.339   8.941  0.6797 -0.2934  0.2507
   51CHL1  H27B 6253   2.310   2.464   9.059  0.1137 -0.5886 -0.8794
   51CHL1  H27C 6254   2.282   2.293   9.116  1.9641  0.3208  0.8497
   52CHL1    C3 6255   0.631   2.880  10.198 -0.7693 -0.4091  0.4118
   52CHL1    H3 6256   0.703   2.961  10.222  2.0053 -2.2634 -1.1606
   52CHL1    O3 6257   0.572   2.834  10.316 -0.0045  0.3105  0.0109
   52CHL1   H3' 6258   0.608   2.746  10.331  0.8564  0.6805  0.1576
   52CHL1    C4 6259   0.523   2.935  10.110  0.8386 -0.4621  0.0364
   52CHL1   H4A 6260   0.429   2.876  10.103  0.2557  0.1756  1.9060
   52CHL1   H4B 6261   0.469   3.023  10.150 -1.5622 -0.4049 -2.9622
   52CHL1    C5 6262   0.582   2.978   9.971  0.8504  0.2261 -0.3261
   52CHL1    C6 6263   0.563   3.097   9.921  0.3236  0.0437  0.6102
   52CHL1    H6 6264   0.509   3.171   9.982 -2.3411 -1.5365  0.3441
   52CHL1    C7 6265   0.607   3.138   9.784  1.1430 -0.1113  0.3229
   52CHL1   H7A 6266   0.512   3.182   9.745 -0.6383 -1.4240  2.8957
   52CHL1   H7B 6267   0.690   3.212   9.788  0.7549  0.6166 -2.6874
   52CHL1    C8 6268   0.645   3.029   9.693  0.7205 -0.0075  0.3366
   52CHL1    H8 6269   0.560   2.971   9.650  0.0192  1.0574  0.2472
   52CHL1   C14 6270   0.730   3.082   9.577  0.1173  0.1588 -0.0499
   52CHL1   H14 6271   0.825   3.112   9.626 -0.5863 -0.6247  1.9278
   52CHL1   C15 6272   0.683   3.211   9.499 -0.3191  0.0432  0.0343
   52CHL1  H15A 6273   0.573   3.213   9.483 -0.1009  0.1056 -1.6161
   52CHL1  H15B 6274   0.714   3.303   9.554  0.3171 -0.2164  0.1209
   52CHL1   C16 6275   0.741   3.186   9.362  0.1604  0.2676  0.1509
   52CHL1  H16A 6276   0.654   3.149   9.304 -1.9938  2.7776  1.6068
   52CHL1  H16B 6277   0.793   3.274   9.318  1.6342 -0.4409  0.4199
   52CHL1   C17 6278   0.849   3.068   9.372  0.2722 -1.0219  0.5758
   52CHL1   H17 6279   0.934   3.116   9.425 -0.9405  0.2460  1.4089
   52CHL1   C13 6280   0.780   2.972   9.475 -0.2833 -0.2836  0.2039
   52CHL1   C18 6281   0.657   2.903   9.422  0.5982 -0.0982 -0.2468
   52CHL1  H18A 6282   0.681   2.830   9.343 -2.3414 -1.0514 -0.3935
   52CHL1  H18B 6283   0.608   2.845   9.504  2.1396  1.3857  1.8350
   52CHL1  H18C 6284   0.575   2.974   9.396  0.8593  0.8443  1.3265
   52CHL1   C12 6285   0.870   2.875   9.549  0.2347 -0.7277  0.7289
   52CHL1  H12A 6286   0.886   2.791   9.478 -2.1704  2.1366 -3.6593
   52CHL1  H12B 6287   0.973   2.914   9.564  0.9428 -1.3494 -1.9282
   52CHL1   C11 6288   0.806   2.824   9.679 -0.6597 -0.3553  0.1397
   52CHL1  H11A 6289   0.726   2.752   9.649  0.3211 -0.7309 -1.7592
   52CHL1  H11B 6290   0.885   2.765   9.730  1.1683 -0.2615 -2.4183
   52CHL1    C9 6291   0.735   2.928   9.774 -0.1478 -0.5639  0.0760
   52CHL1    H9 6292   0.816   2.994   9.813  0.0279 -2.3328  2.9610
   52CHL1   C10 6293   0.667   2.871   9.903 -0.0197 -0.3447 -0.0268
   52CHL1   C19 6294   0.588   2.739   9.868 -0.0197 -0.0317 -0.1170
   52CHL1  H19A 6295   0.507   2.768   9.797 -0.1634  0.1118  0.1043
   52CHL1  H19B 6296   0.657   2.661   9.830 -1.4493 -1.7620  0.6818
   52CHL1  H19C 6297   0.535   2.697   9.956  1.6504 -1.4151  0.2743
   52CHL1    C1 6298   0.775   2.834  10.008  0.0434  0.7578 -0.1241
   52CHL1   H1A 6299   0.838   2.749   9.973  1.3183  1.7604 -0.3260
   52CHL1   H1B 6300   0.838   2.920  10.037  2.7317 -1.8441  2.4846
   52CHL1    C2 6301   0.718   2.773  10.133  0.8050 -0.1666 -0.1930
   52CHL1   H2A 6302   0.795   2.745  10.208  0.9011  0.0030 -0.2279
   52CHL1   H2B 6303   0.649   2.686  10.129 -2.0647  1.8362  1.7218
   52CHL1   C20 6304   0.894   3.007   9.237  0.3326  1.0055  0.1188
   52CHL1   H20 6305   0.830   2.921   9.208 -0.4311  0.8280  2.1170
   52CHL1   C21 6306   1.031   2.949   9.260 -0.6530  0.2649 -0.4054
   52CHL1  H21A 6307   1.021   2.857   9.321 -2.1709 -1.1895 -2.6561
   52CHL1  H21B 6308   1.101   3.018   9.310 -1.3499  0.0779  0.8549
   52CHL1  H21C 6309   1.080   2.920   9.164  0.2824 -0.8620  0.3786
   52CHL1   C22 6310   0.897   3.106   9.122  0.7302 -0.0558  0.5759
   52CHL1  H22A 6311   0.801   3.161   9.111  0.8040  0.0089  0.2133
   52CHL1  H22B 6312   0.972   3.185   9.142  0.3454  0.3980  0.2365
   52CHL1   C23 6313   0.933   3.044   8.985 -0.7092  0.0458  0.1315
   52CHL1  H23A 6314   1.034   2.998   8.989 -1.5906 -1.9757  0.1020
   52CHL1  H23B 6315   0.863   2.961   8.964 -1.5975  0.8408 -0.1132
   52CHL1   C24 6316   0.929   3.153   8.876 -0.1446 -0.4097 -0.1254
   52CHL1  H24A 6317   0.842   3.221   8.889 -0.9627 -1.5325  0.5353
   52CHL1  H24B 6318   1.025   3.208   8.877  0.1531 -0.8374  2.2889
   52CHL1   C25 6319   0.916   3.102   8.731 -0.1569  0.7304 -0.2588
   52CHL1   H25 6320   0.981   3.013   8.725 -0.6251  0.0989  2.5229
   52CHL1   C26 6321   0.774   3.052   8.691  0.4915  0.0945  0.2637
   52CHL1  H26A 6322   0.686   3.120   8.701  1.0825  0.9317 -0.1478
   52CHL1  H26B 6323   0.763   3.006   8.590  0.0957  2.0057 -0.6071
   52CHL1  H26C 6324   0.746   2.979   8.770 -1.0497  0.0141 -0.3067
   52CHL1   C27 6325   0.968   3.202   8.624  0.0205 -0.2330 -0.5386
   52CHL1  H27A 6326   0.921   3.302   8.635 -0.8312 -0.7860  1.1247
   52CHL1  H27B 6327   1.078   3.219   8.632 -0.3007  2.7846 -1.4309
   52CHL1  H27C 6328   0.947   3.166   8.521 -1.3607  1.1475 -0.7695
   53CHL1    C3 6329   0.515   1.325  10.396 -0.6107  0.8367 -0.9178
   53CHL1    H3 6330   0.426   1.356  10.337 -0.6384  3.3705  0.3115
   53CHL1    O3 6331   0.471   1.315  10.530  0.3343 -0.0299  0.6118
   53CHL1   H3' 6332   0.551   1.332  10.580  0.1826  1.8333  0.3041
   53CHL1    C4 6333   0.569   1.186  10.353 -0.0437 -1.1913 -0.1558
   53CHL1   H4A 6334   0.667   1.174  10.404  1.5009  2.7803 -1.7839
   53CHL1   H4B 6335   0.491   1.111  10.377 -2.8279  1.2629 -1.0632
   53CHL1    C5 6336   0.593   1.194  10.205 -0.4304 -0.7076  0.0794
   53CHL1    C6 6337   0.534   1.112  10.114  0.4053 -0.0671 -0.3282
   53CHL1    H6 6338   0.470   1.031  10.153 -1.9693  2.7818  2.2468
   53CHL1    C7 6339   0.548   1.117   9.967  0.3075 -0.1904  0.3138
   53CHL1   H7A 6340   0.574   1.017   9.926  0.1013 -0.0014 -0.2810
   53CHL1   H7B 6341   0.449   1.152   9.930 -0.3437 -2.2047 -0.0047
   53CHL1    C8 6342   0.661   1.219   9.922  0.3989  0.0100  0.4930
   53CHL1    H8 6343   0.755   1.161   9.935 -1.6260 -3.7623 -0.2776
   53CHL1   C14 6344   0.650   1.247   9.768 -0.2794  0.2678  0.0115
   53CHL1   H14 6345   0.553   1.302   9.762 -1.2976 -0.9362  3.0362
   53CHL1   C15 6346   0.631   1.124   9.669  0.6776 -0.0496  0.5560
   53CHL1  H15A 6347   0.716   1.053   9.676  0.2232 -0.5063  1.6921
   53CHL1  H15B 6348   0.535   1.073   9.691  0.7877 -1.5304 -1.9253
   53CHL1   C16 6349   0.630   1.198   9.535 -0.3454 -0.1871 -0.1667
   53CHL1  H16A 6350   0.682   1.147   9.451 -0.6713  1.5379 -1.4906
   53CHL1  H16B 6351   0.524   1.211   9.503 -1.1088 -0.1682  2.1818
   53CHL1   C17 6352   0.694   1.341   9.565  0.5661 -0.5031  0.3112
   53CHL1   H17 6353   0.606   1.410   9.566  0.1664 -0.9944 -0.3095
   53CHL1   C13 6354   0.751   1.336   9.709 -0.7850 -0.5115 -0.4332
   53CHL1   C18 6355   0.890   1.271   9.708 -0.0645  0.0425  0.1772
   53CHL1  H18A 6356   0.902   1.207   9.617 -0.9765  2.2311 -1.5853
   53CHL1  H18B 6357   0.955   1.360   9.697  0.1549 -0.1418 -0.0464
   53CHL1  H18C 6358   0.912   1.222   9.805 -0.7280 -1.6072 -0.4614
   53CHL1   C12 6359   0.741   1.468   9.798 -0.3239  1.4538  0.6093
   53CHL1  H12A 6360   0.813   1.540   9.754  0.7594 -0.3709 -0.7658
   53CHL1  H12B 6361   0.640   1.511   9.780 -1.4801 -1.0203  0.7058
   53CHL1   C11 6362   0.773   1.441   9.949  1.0777 -0.0717  0.2542
   53CHL1  H11A 6363   0.869   1.385   9.954  0.3743 -1.2929  0.5648
   53CHL1  H11B 6364   0.780   1.529  10.015  1.7145 -1.0253  1.4892
   53CHL1    C9 6365   0.664   1.342  10.010 -0.7275 -0.0352 -0.4522
   53CHL1    H9 6366   0.568   1.395   9.991  0.4467  2.7223  0.6678
   53CHL1   C10 6367   0.683   1.317  10.162  0.0106 -0.4419  0.2338
   53CHL1   C19 6368   0.830   1.290  10.192  0.1379 -0.1893  0.0192
   53CHL1  H19A 6369   0.851   1.192  10.145 -0.2218  1.1886 -3.3099
   53CHL1  H19B 6370   0.888   1.378  10.156 -0.6122  0.9997  1.5949
   53CHL1  H19C 6371   0.829   1.283  10.303  0.9608  2.2335  0.2397
   53CHL1    C1 6372   0.651   1.447  10.240 -0.6719 -0.0402  0.0212
   53CHL1   H1A 6373   0.745   1.506  10.232 -0.0152 -1.2149 -1.3457
   53CHL1   H1B 6374   0.567   1.497  10.188 -2.5486 -1.6352  1.3709
   53CHL1    C2 6375   0.623   1.425  10.392 -0.7362 -0.6128 -0.0605
   53CHL1   H2A 6376   0.592   1.526  10.429  2.1579  0.5159 -0.4196
   53CHL1   H2B 6377   0.710   1.387  10.448  0.0383 -0.7484 -1.3071
   53CHL1   C20 6378   0.788   1.381   9.447  0.3561 -0.5582  0.5444
   53CHL1   H20 6379   0.873   1.310   9.445 -1.8346 -3.3912  1.2927
   53CHL1   C21 6380   0.842   1.527   9.466  0.0214  0.1141 -0.0922
   53CHL1  H21A 6381   0.904   1.544   9.556 -0.0675  3.2713 -0.5095
   53CHL1  H21B 6382   0.752   1.593   9.463  0.4167  0.6257 -2.5555
   53CHL1  H21C 6383   0.905   1.564   9.382  2.0045 -0.5872  1.0209
   53CHL1   C22 6384   0.723   1.380   9.301 -0.0998 -0.1294 -0.1065
   53CHL1  H22A 6385   0.658   1.291   9.290 -0.8462  0.2901  0.7562
   53CHL1  H22B 6386   0.663   1.473   9.286 -4.0067 -2.4886 -0.4371
   53CHL1   C23 6387   0.831   1.374   9.189 -0.2240  0.5953 -0.1593
   53CHL1  H23A 6388   0.896   1.464   9.196 -0.9458  0.9985  2.3796
   53CHL1  H23B 6389   0.900   1.292   9.216  0.2853  0.9616 -0.3374
   53CHL1   C24 6390   0.761   1.350   9.045 -0.5958 -0.1297 -0.8053
   53CHL1  H24A 6391   0.679   1.276   9.061 -0.2285 -0.2012  0.9321
   53CHL1  H24B 6392   0.704   1.443   9.022  1.2797  1.2204 -0.2423
   53CHL1   C25 6393   0.855   1.314   8.930 -0.2404  0.5918 -0.9344
   53CHL1   H25 6394   0.931   1.394   8.925  0.5918 -0.1610 -0.5635
   53CHL1   C26 6395   0.951   1.194   8.964 -0.0423  0.4897  0.5201
   53CHL1  H26A 6396   0.978   1.174   9.070  0.1650 -3.0536 -0.0669
   53CHL1  H26B 6397   0.896   1.105   8.925  0.1767 -0.3941  2.1414
   53CHL1  H26C 6398   1.043   1.206   8.903 -1.3594  1.6430 -1.3296
   53CHL1   C27 6399   0.770   1.306   8.801  0.1653 -0.0248  0.1313
   53CHL1  H27A 6400   0.661   1.290   8.817  0.2812 -0.6676  0.3139
   53CHL1  H27B 6401   0.784   1.397   8.739 -1.8782  0.7758  0.7769
   53CHL1  H27C 6402   0.803   1.221   8.736  0.8506  0.9403 -0.8205
   54CHL1    C3 6403   6.294   2.553  10.358  0.3527  0.0702 -0.8163
   54CHL1    H3 6404   6.198   2.609  10.347 -0.7523 -1.7828 -1.0076
   54CHL1    O3 6405   6.307   2.540  10.502  0.3534 -0.1063 -0.2813
   54CHL1   H3' 6406   6.230   2.488  10.526  0.8123 -1.7625 -2.0895
   54CHL1    C4 6407   6.296   2.423  10.288 -0.2868 -0.1354 -0.7916
   54CHL1   H4A 6408   6.389   2.378  10.329 -0.3674 -0.6582 -1.1728
   54CHL1   H4B 6409   6.209   2.367  10.328  1.1637 -0.7294  1.7359
   54CHL1    C5 6410   6.306   2.425  10.136  0.8649  0.0876 -0.8592
   54CHL1    C6 6411   6.217   2.362  10.064  0.3613  0.0836 -0.2707
   54CHL1    H6 6412   6.146   2.290  10.108  0.9665 -1.0953 -1.1790
   54CHL1    C7 6413   6.206   2.380   9.915 -0.8149 -0.2123  0.4888
   54CHL1   H7A 6414   6.183   2.285   9.861 -1.9632  1.1305 -1.5054
   54CHL1   H7B 6415   6.137   2.455   9.871 -1.1888 -0.7513  0.1444
   54CHL1    C8 6416   6.351   2.421   9.857  0.1732 -0.0080 -0.3962
   54CHL1    H8 6417   6.412   2.332   9.884 -1.9162 -1.2530  0.4724
   54CHL1   C14 6418   6.356   2.451   9.708  0.4418  0.4816 -0.0769
   54CHL1   H14 6419   6.298   2.544   9.692 -0.9663 -0.0522  1.7062
   54CHL1   C15 6420   6.293   2.359   9.597  0.0625 -0.6109 -0.3762
   54CHL1  H15A 6421   6.313   2.253   9.624  0.2434  0.2286  3.2295
   54CHL1  H15B 6422   6.182   2.357   9.595  0.0529 -2.7910 -2.0934
   54CHL1   C16 6423   6.356   2.402   9.468  0.3070 -0.2069  0.4712
   54CHL1  H16A 6424   6.411   2.313   9.431 -2.3168 -1.7657 -0.0092
   54CHL1  H16B 6425   6.288   2.437   9.387  1.4827  0.3799 -0.2803
   54CHL1   C17 6426   6.463   2.515   9.497 -0.5257 -0.5350 -0.8887
   54CHL1   H17 6427   6.414   2.615   9.494  0.4638  0.0758  1.1953
   54CHL1   C13 6428   6.492   2.497   9.643 -0.0542  0.4676 -0.5811
   54CHL1   C18 6429   6.592   2.382   9.681  0.0597  0.1147 -0.3786
   54CHL1  H18A 6430   6.693   2.390   9.637  0.9268 -0.7976  1.3486
   54CHL1  H18B 6431   6.616   2.366   9.788 -0.8725 -1.0370 -0.3270
   54CHL1  H18C 6432   6.554   2.283   9.650  0.2906 -0.2930  0.5956
   54CHL1   C12 6433   6.537   2.626   9.712 -0.2745 -0.0616 -0.7759
   54CHL1  H12A 6434   6.636   2.655   9.671  1.0143  0.3524  2.3511
   54CHL1  H12B 6435   6.462   2.707   9.701  0.1960  0.3209 -1.2001
   54CHL1   C11 6436   6.539   2.603   9.868 -0.1305  0.5650 -0.4705
   54CHL1  H11A 6437   6.629   2.546   9.900  0.6782  3.0899  2.1382
   54CHL1  H11B 6438   6.561   2.700   9.918  1.3136  0.4355 -0.7965
   54CHL1    C9 6439   6.403   2.546   9.932  0.3219  0.4439  0.2499
   54CHL1    H9 6440   6.321   2.621   9.926 -0.4501 -0.2692  1.4703
   54CHL1   C10 6441   6.412   2.527  10.086 -0.2520 -0.0563 -0.0396
   54CHL1   C19 6442   6.546   2.451  10.123  0.5936 -0.4181 -0.7191
   54CHL1  H19A 6443   6.545   2.347  10.084  1.1574 -0.2705 -1.1417
   54CHL1  H19B 6444   6.644   2.495  10.094 -0.3646  2.7253  0.4313
   54CHL1  H19C 6445   6.556   2.449  10.233  1.1966 -0.8241 -0.7734
   54CHL1    C1 6446   6.398   2.659  10.154 -0.2721 -0.0788 -1.5666
   54CHL1   H1A 6447   6.485   2.722  10.126  1.1967 -1.3160  0.0071
   54CHL1   H1B 6448   6.304   2.711  10.125 -1.0880 -0.7931 -0.3087
   54CHL1    C2 6449   6.405   2.644  10.310  0.5400  0.7529 -0.9621
   54CHL1   H2A 6450   6.401   2.747  10.350  0.3954 -0.3317  2.0909
   54CHL1   H2B 6451   6.499   2.597  10.347  0.5349  1.6675  0.2840
   54CHL1   C20 6452   6.583   2.513   9.392  0.1438  0.5770 -0.5568
   54CHL1   H20 6453   6.642   2.425   9.424 -0.3709  0.5072  0.2486
   54CHL1   C21 6454   6.674   2.635   9.398  0.1636  0.7272  0.3864
   54CHL1  H21A 6455   6.607   2.724   9.387 -0.5421  0.3619  1.5129
   54CHL1  H21B 6456   6.748   2.617   9.317 -0.8885  0.5839 -0.5611
   54CHL1  H21C 6457   6.728   2.634   9.495 -0.2909 -1.3900  0.6543
   54CHL1   C22 6458   6.537   2.480   9.248 -0.5939 -0.8191 -0.1431
   54CHL1  H22A 6459   6.528   2.369   9.244 -1.5400 -0.7317 -0.9094
   54CHL1  H22B 6460   6.429   2.503   9.231 -0.9115 -0.7985  1.7250
   54CHL1   C23 6461   6.624   2.538   9.131 -0.2556  0.6181 -0.5720
   54CHL1  H23A 6462   6.614   2.648   9.129 -1.3812  0.5154 -2.0411
   54CHL1  H23B 6463   6.729   2.504   9.146 -1.0467 -2.3651 -1.0822
   54CHL1   C24 6464   6.563   2.505   8.993  0.2661 -0.1809  0.9811
   54CHL1  H24A 6465   6.456   2.535   8.994  0.7636  1.7254  0.3158
   54CHL1  H24B 6466   6.604   2.574   8.918  0.8188 -2.3348 -0.8004
   54CHL1   C25 6467   6.577   2.361   8.946  0.8633 -0.2105  0.3123
   54CHL1   H25 6468   6.508   2.302   9.010 -0.8454  1.0832 -0.2496
   54CHL1   C26 6469   6.527   2.350   8.799 -0.0506  0.4531 -0.9042
   54CHL1  H26A 6470   6.606   2.383   8.728  0.8227 -3.6995 -2.1417
   54CHL1  H26B 6471   6.503   2.244   8.774 -2.2448  0.6323  0.2151
   54CHL1  H26C 6472   6.426   2.395   8.787 -1.4246 -2.0875  0.3067
   54CHL1   C27 6473   6.716   2.307   8.967 -0.1381  0.6869 -0.3560
   54CHL1  H27A 6474   6.759   2.322   9.068 -0.0614  1.5624 -0.5074
   54CHL1  H27B 6475   6.725   2.197   8.953  0.3120  0.7752 -0.8371
   54CHL1  H27C 6476   6.781   2.351   8.887  0.9922 -1.3229 -0.6116
   55CHL1    C3 6477   1.040   6.491  10.264 -0.0457 -0.0938 -0.8097
   55CHL1    H3 6478   0.938   6.447  10.261 -0.4915  0.9639 -2.3748
   55CHL1    O3 6479   1.085   6.497  10.394  0.1919 -0.0256  0.2830
   55CHL1   H3' 6480   1.032   6.565  10.437  1.2872 -0.2723  2.1276
   55CHL1    C4 6481   1.140   6.404  10.176 -0.2448 -0.1384  0.0976
   55CHL1   H4A 6482   1.234   6.460  10.194 -1.1024  1.1507  0.7627
   55CHL1   H4B 6483   1.159   6.309  10.229  1.5539 -1.2676 -2.3803
   55CHL1    C5 6484   1.099   6.405  10.025 -0.7422 -0.2516 -1.3543
   55CHL1    C6 6485   1.069   6.288   9.965  0.0442 -0.2470  0.9992
   55CHL1    H6 6486   1.071   6.192  10.019 -3.4386 -1.6108 -0.9638
   55CHL1    C7 6487   1.042   6.288   9.823  0.2912  0.1399  0.4139
   55CHL1   H7A 6488   1.100   6.205   9.777  0.0725  0.4391 -0.4319
   55CHL1   H7B 6489   0.937   6.262   9.796  0.0747  1.2901  0.0527
   55CHL1    C8 6490   1.077   6.424   9.746  0.1578  0.2972 -0.0461
   55CHL1    H8 6491   1.188   6.430   9.742  0.2698 -1.7025 -1.2249
   55CHL1   C14 6492   1.019   6.413   9.612  0.5906 -0.1173 -0.2101
   55CHL1   H14 6493   0.911   6.388   9.621  0.1427  2.0586  1.2598
   55CHL1   C15 6494   1.068   6.303   9.507  0.0842 -0.8585 -0.2376
   55CHL1  H15A 6495   1.178   6.299   9.516 -0.0837 -0.8400  2.5781
   55CHL1  H15B 6496   1.021   6.206   9.535 -0.7748  0.1205  1.8998
   55CHL1   C16 6497   1.025   6.360   9.372 -0.7337  0.1639 -0.2006
   55CHL1  H16A 6498   1.102   6.344   9.294 -1.1678 -0.7693 -0.4552
   55CHL1  H16B 6499   0.941   6.301   9.328 -0.6590 -0.1127  0.0272
   55CHL1   C17 6500   0.970   6.505   9.389  0.1342 -0.6947 -0.2819
   55CHL1   H17 6501   0.861   6.491   9.401  0.0305  0.1970 -0.1183
   55CHL1   C13 6502   1.030   6.549   9.528  0.3104  0.7060 -0.0187
   55CHL1   C18 6503   1.178   6.590   9.509 -0.0322 -0.3342 -0.8839
   55CHL1  H18A 6504   1.231   6.577   9.606 -1.2032  0.8230 -0.0594
   55CHL1  H18B 6505   1.229   6.534   9.428 -0.4245  1.7526 -2.6604
   55CHL1  H18C 6506   1.186   6.695   9.475 -0.9857  0.4947  1.2764
   55CHL1   C12 6507   0.958   6.655   9.607  0.0707 -0.0632 -0.5435
   55CHL1  H12A 6508   0.963   6.759   9.566 -1.2641  0.1969 -0.0848
   55CHL1  H12B 6509   0.851   6.625   9.605  0.1291 -0.2351 -1.7364
   55CHL1   C11 6510   1.018   6.676   9.749  0.1959 -0.8135  0.2245
   55CHL1  H11A 6511   1.123   6.701   9.724 -0.1443 -2.0784 -2.8285
   55CHL1  H11B 6512   0.969   6.756   9.808  1.8575  0.9380 -0.6504
   55CHL1    C9 6513   1.025   6.542   9.825 -0.1618 -0.5968  0.0721
   55CHL1    H9 6514   0.920   6.515   9.850 -0.2139 -0.8661 -0.4228
   55CHL1   C10 6515   1.088   6.552   9.967 -0.5734  0.1397  0.2888
   55CHL1   C19 6516   1.227   6.620   9.964 -0.1610  0.3465 -0.6317
   55CHL1  H19A 6517   1.271   6.621  10.066 -0.1419 -0.5314 -0.6223
   55CHL1  H19B 6518   1.298   6.569   9.894  2.0866  0.3611  1.5009
   55CHL1  H19C 6519   1.220   6.723   9.924 -1.6774  0.3605 -0.3792
   55CHL1    C1 6520   0.994   6.635  10.064 -0.2100 -0.2995  0.2477
   55CHL1   H1A 6521   0.978   6.736  10.021  0.8880 -0.4061 -0.4549
   55CHL1   H1B 6522   0.896   6.586  10.053 -0.9564  1.2357 -0.2504
   55CHL1    C2 6523   1.031   6.635  10.212  0.0792 -0.1388 -0.0845
   55CHL1   H2A 6524   0.963   6.705  10.264  2.1738  1.2291  0.9874
   55CHL1   H2B 6525   1.134   6.675  10.227  0.2020 -0.7797  0.9040
   55CHL1   C20 6526   0.982   6.608   9.273  0.7368  0.0880 -0.3025
   55CHL1   H20 6527   1.084   6.651   9.276  1.4281 -1.4208 -1.4207
   55CHL1   C21 6528   0.881   6.720   9.293 -0.3896 -0.2154 -0.0268
   55CHL1  H21A 6529   0.907   6.789   9.377  1.1349 -0.2464 -0.4475
   55CHL1  H21B 6530   0.777   6.684   9.310 -0.8554 -1.2456 -4.0826
   55CHL1  H21C 6531   0.887   6.780   9.200  0.3759 -0.5877 -0.2166
   55CHL1   C22 6532   0.961   6.547   9.137 -0.1383 -0.0868  0.3445
   55CHL1  H22A 6533   0.982   6.628   9.063 -0.9211 -0.4537 -0.2825
   55CHL1  H22B 6534   1.035   6.467   9.115  0.9559  1.2087 -1.0174
   55CHL1   C23 6535   0.826   6.472   9.116  0.1246  0.7025 -0.6516
   55CHL1  H23A 6536   0.823   6.383   9.182  0.1175 -0.9421 -2.7858
   55CHL1  H23B 6537   0.742   6.542   9.136 -1.3872 -1.2701  0.2516
   55CHL1   C24 6538   0.804   6.417   8.974 -0.3684 -0.5559 -0.0648
   55CHL1  H24A 6539   0.706   6.366   8.984 -0.5292  0.0294  1.7953
   55CHL1  H24B 6540   0.791   6.493   8.894  0.6303 -0.9831 -0.6603
   55CHL1   C25 6541   0.907   6.317   8.922  0.2906  0.1639 -0.2685
   55CHL1   H25 6542   1.008   6.364   8.916  0.2173  0.2875 -0.5562
   55CHL1   C26 6543   0.920   6.192   9.020 -0.1644 -0.5947  0.0249
   55CHL1  H26A 6544   0.973   6.228   9.111 -1.1079  1.6964 -0.2498
   55CHL1  H26B 6545   0.815   6.167   9.049  0.0630 -1.1094  0.4080
   55CHL1  H26C 6546   0.961   6.099   8.976 -1.5300 -0.9887 -0.4823
   55CHL1   C27 6547   0.866   6.274   8.785  0.4132  0.3592  0.6258
   55CHL1  H27A 6548   0.767   6.223   8.786  0.8441 -0.4878  1.0958
   55CHL1  H27B 6549   0.864   6.363   8.718  1.8407  0.8689  1.2273
   55CHL1  H27C 6550   0.935   6.199   8.741 -0.6618  0.2854 -1.0724
   56CHL1    C3 6551   4.910   6.235  10.153 -0.1713  0.5940 -0.5325
   56CHL1    H3 6552   4.830   6.313  10.157 -0.3224  0.3946  1.4450
   56CHL1    O3 6553   4.894   6.135  10.253  0.1073  0.1366  0.2558
   56CHL1   H3' 6554   4.978   6.091  10.268 -0.6862 -1.1364  1.1951
   56CHL1    C4 6555   4.897   6.160  10.021  0.2810  0.1748 -0.0099
   56CHL1   H4A 6556   4.962   6.070  10.026  0.1564 -0.0030 -1.2458
   56CHL1   H4B 6557   4.794   6.119  10.010  0.0157  1.4462 -3.6228
   56CHL1    C5 6558   4.940   6.238   9.900  0.4726  0.0105 -0.4690
   56CHL1    C6 6559   4.865   6.247   9.791  1.0428  0.0058 -0.1589
   56CHL1    H6 6560   4.768   6.196   9.777  1.1219  0.1417 -1.3675
   56CHL1    C7 6561   4.919   6.300   9.663 -0.2285 -0.1534 -0.0555
   56CHL1   H7A 6562   4.897   6.238   9.573 -1.7049 -2.7664  1.9504
   56CHL1   H7B 6563   4.865   6.397   9.653 -2.6623 -1.0018  3.0404
   56CHL1    C8 6564   5.072   6.338   9.660 -0.4032  0.4061 -0.2550
   56CHL1    H8 6565   5.129   6.244   9.641  1.3438  1.1679  0.9041
   56CHL1   C14 6566   5.104   6.436   9.538 -0.0681 -0.2992 -0.2955
   56CHL1   H14 6567   5.037   6.519   9.569  2.5811  0.9802  2.6126
   56CHL1   C15 6568   5.056   6.403   9.393  0.6173 -0.4869 -1.0915
   56CHL1  H15A 6569   5.083   6.299   9.365 -1.1375 -0.6591 -2.3109
   56CHL1  H15B 6570   4.946   6.406   9.386  0.4844  0.5627  0.8539
   56CHL1   C16 6571   5.126   6.512   9.307 -0.2961 -0.1050 -0.6009
   56CHL1  H16A 6572   5.187   6.459   9.231 -2.5209 -0.6927 -2.0698
   56CHL1  H16B 6573   5.046   6.575   9.263 -0.7452  0.3067  0.7336
   56CHL1   C17 6574   5.232   6.586   9.409 -0.3373 -0.2107 -0.0619
   56CHL1   H17 6575   5.186   6.675   9.456 -0.0294 -1.1476  2.1272
   56CHL1   C13 6576   5.248   6.490   9.530 -0.4572 -0.1817 -0.7732
   56CHL1   C18 6577   5.340   6.369   9.496  0.3141  0.5616  0.0419
   56CHL1  H18A 6578   5.445   6.406   9.496 -0.0780  1.7306 -0.7574
   56CHL1  H18B 6579   5.332   6.291   9.575 -1.5594 -0.1463 -0.7810
   56CHL1  H18C 6580   5.317   6.315   9.402 -1.3972  0.6611  0.3758
   56CHL1   C12 6581   5.280   6.544   9.671 -0.5141  0.2070 -0.2924
   56CHL1  H12A 6582   5.382   6.588   9.664 -0.8978  1.1483 -0.0734
   56CHL1  H12B 6583   5.215   6.634   9.677  0.0154  0.5753  0.0428
   56CHL1   C11 6584   5.258   6.444   9.783 -0.6688 -0.3802  0.5388
   56CHL1  H11A 6585   5.325   6.358   9.762 -0.5374 -0.6190  1.8298
   56CHL1  H11B 6586   5.289   6.493   9.878 -0.0081 -0.1754  0.2238
   56CHL1    C9 6587   5.116   6.392   9.787  0.6187 -0.5755 -0.5742
   56CHL1    H9 6588   5.053   6.483   9.797  0.0687 -1.0174  0.0244
   56CHL1   C10 6589   5.082   6.303   9.908  0.5131 -0.0002 -0.1427
   56CHL1   C19 6590   5.182   6.188   9.912  0.1229 -0.1800  0.8644
   56CHL1  H19A 6591   5.279   6.224   9.953 -0.8991  1.0357  2.3637
   56CHL1  H19B 6592   5.162   6.106   9.984  0.1869 -0.7505  0.2387
   56CHL1  H19C 6593   5.197   6.155   9.807 -4.1811  1.7840 -0.6030
   56CHL1    C1 6594   5.092   6.381  10.041  0.2632  0.1197  0.2083
   56CHL1   H1A 6595   5.199   6.409  10.049 -0.4015  2.3096  2.5886
   56CHL1   H1B 6596   5.032   6.474  10.033  0.3409  0.1303 -0.2722
   56CHL1    C2 6597   5.051   6.301  10.174  0.1228 -0.3673  0.8944
   56CHL1   H2A 6598   5.052   6.370  10.261  2.4647  0.6984  0.0996
   56CHL1   H2B 6599   5.124   6.218  10.181 -1.0459 -1.4102  1.2056
   56CHL1   C20 6600   5.356   6.637   9.335 -0.9182  0.3475 -0.3922
   56CHL1   H20 6601   5.406   6.539   9.318 -1.4528  0.3200 -1.9883
   56CHL1   C21 6602   5.435   6.716   9.440 -0.5032  0.1513 -0.0042
   56CHL1  H21A 6603   5.520   6.770   9.393  0.1174 -0.8790 -0.0912
   56CHL1  H21B 6604   5.479   6.639   9.507 -1.3922  0.1843  0.6217
   56CHL1  H21C 6605   5.372   6.794   9.487 -0.7643  0.2031 -0.4252
   56CHL1   C22 6606   5.329   6.698   9.193 -0.1995  0.0584  0.2293
   56CHL1  H22A 6607   5.310   6.619   9.117 -1.2631  0.0682  0.4677
   56CHL1  H22B 6608   5.237   6.759   9.208 -0.2764 -0.0192  0.0796
   56CHL1   C23 6609   5.433   6.799   9.135  0.0645  0.2984 -0.3074
   56CHL1  H23A 6610   5.427   6.898   9.187  0.7418  0.6780 -0.9196
   56CHL1  H23B 6611   5.535   6.761   9.157 -0.7986 -1.9141  0.0766
   56CHL1   C24 6612   5.409   6.831   8.984 -0.7726  0.7735 -0.8379
   56CHL1  H24A 6613   5.492   6.896   8.946  0.0897 -0.8324 -1.8090
   56CHL1  H24B 6614   5.417   6.732   8.936  0.2751  0.5895 -0.3197
   56CHL1   C25 6615   5.268   6.871   8.945 -0.0796  0.7392 -0.4126
   56CHL1   H25 6616   5.198   6.801   8.995 -0.2028  1.5213  0.5274
   56CHL1   C26 6617   5.234   7.007   8.989 -0.3055 -0.2295  0.3043
   56CHL1  H26A 6618   5.131   7.035   8.957  0.1583  2.4343  0.9143
   56CHL1  H26B 6619   5.238   7.019   9.099 -1.0484  0.5489  0.2555
   56CHL1  H26C 6620   5.309   7.074   8.942  0.4759 -1.3789 -0.1269
   56CHL1   C27 6621   5.240   6.852   8.791  0.7541 -0.6798 -0.3209
   56CHL1  H27A 6622   5.232   6.742   8.776 -2.8482 -0.6510  0.5242
   56CHL1  H27B 6623   5.139   6.891   8.767  0.6149 -0.2120  0.9338
   56CHL1  H27C 6624   5.308   6.905   8.721  1.0469  1.1450  1.2454
   57CHL1    C3 6625   0.436   0.691  10.420  0.1605 -0.0542  0.6923
   57CHL1    H3 6626   0.441   0.802  10.428 -0.2280  0.1409 -1.2569
   57CHL1    O3 6627   0.412   0.638  10.547 -0.3208 -0.1426  0.5789
   57CHL1   H3' 6628   0.405   0.542  10.547  1.6815 -0.3521 -0.7373
   57CHL1    C4 6629   0.319   0.632  10.343 -0.0095  0.4710  0.9841
   57CHL1   H4A 6630   0.310   0.522  10.361  0.7295  0.5535  1.9141
   57CHL1   H4B 6631   0.221   0.672  10.377 -0.3433  0.2742  0.2808
   57CHL1    C5 6632   0.329   0.645  10.191  0.4679  0.4197 -0.6724
   57CHL1    C6 6633   0.229   0.692  10.122  0.0021  0.6797 -0.3885
   57CHL1    H6 6634   0.132   0.711  10.170  0.6498 -2.1762  2.3304
   57CHL1    C7 6635   0.239   0.717   9.974  0.3886 -0.4072  0.1339
   57CHL1   H7A 6636   0.141   0.697   9.926 -0.1032 -0.0640  0.9558
   57CHL1   H7B 6637   0.259   0.824   9.955  1.7156 -1.0775 -2.7009
   57CHL1    C8 6638   0.352   0.637   9.903 -0.5243 -0.1243 -0.3827
   57CHL1    H8 6639   0.321   0.531   9.908 -0.1006 -0.2907 -1.1081
   57CHL1   C14 6640   0.371   0.683   9.763  0.5222  0.3054 -0.2044
   57CHL1   H14 6641   0.395   0.791   9.771  0.2731  0.3961 -0.6179
   57CHL1   C15 6642   0.249   0.677   9.665 -0.2147 -0.1664  0.3013
   57CHL1  H15A 6643   0.204   0.576   9.673  1.8807 -0.9873  3.4807
   57CHL1  H15B 6644   0.170   0.745   9.705 -0.1378 -0.6762  1.3462
   57CHL1   C16 6645   0.317   0.689   9.526 -0.1745  0.1074 -0.0242
   57CHL1  H16A 6646   0.280   0.610   9.456 -0.3268 -0.0516  0.2351
   57CHL1  H16B 6647   0.303   0.786   9.474 -1.8102 -0.4116 -0.6415
   57CHL1   C17 6648   0.475   0.677   9.556 -0.0685 -0.0797 -0.2393
   57CHL1   H17 6649   0.522   0.777   9.572 -0.3753  0.0748 -0.2937
   57CHL1   C13 6650   0.490   0.612   9.694  0.2321  0.9202  0.1796
   57CHL1   C18 6651   0.472   0.458   9.673  0.0332  0.0245  0.2923
   57CHL1  H18A 6652   0.552   0.407   9.615 -0.5324 -2.4690  1.5498
   57CHL1  H18B 6653   0.454   0.409   9.771 -0.6839  0.4897  0.3972
   57CHL1  H18C 6654   0.381   0.449   9.610  0.1943 -0.3586  0.1118
   57CHL1   C12 6655   0.624   0.654   9.772  0.8710  0.5941 -0.0930
   57CHL1  H12A 6656   0.712   0.598   9.734  1.5818 -0.4539  2.8363
   57CHL1  H12B 6657   0.653   0.762   9.777  1.1691  0.4563  2.2027
   57CHL1   C11 6658   0.610   0.604   9.917  0.6102  0.6270 -0.1353
   57CHL1  H11A 6659   0.629   0.495   9.908 -1.5703  0.2701 -1.1122
   57CHL1  H11B 6660   0.699   0.644   9.971 -0.3898  1.6197  0.8377
   57CHL1    C9 6661   0.480   0.656   9.983 -1.1511  0.1460  0.0063
   57CHL1    H9 6662   0.498   0.766   9.989 -0.5692  0.1784 -1.6876
   57CHL1   C10 6663   0.468   0.604  10.126  0.2471  0.3362  0.0953
   57CHL1   C19 6664   0.470   0.452  10.116  0.1316  0.0776  0.3068
   57CHL1  H19A 6665   0.377   0.411  10.073  0.4227  0.7734 -1.0161
   57CHL1  H19B 6666   0.561   0.406  10.072  0.0074  0.2840 -0.1649
   57CHL1  H19C 6667   0.477   0.409  10.218 -0.3006 -0.5863  0.0645
   57CHL1    C1 6668   0.576   0.667  10.211 -0.2435  0.1119 -0.0173
   57CHL1   H1A 6669   0.675   0.629  10.177 -0.2543  0.3922 -0.3630
   57CHL1   H1B 6670   0.586   0.777  10.203  2.2942  0.0126  0.7383
   57CHL1    C2 6671   0.570   0.635  10.364 -0.0115 -0.0496  0.3142
   57CHL1   H2A 6672   0.650   0.694  10.413 -0.6873  0.5262  0.7503
   57CHL1   H2B 6673   0.579   0.527  10.390  1.5290  0.4503  2.0632
   57CHL1   C20 6674   0.545   0.618   9.431 -0.7368  0.3742 -0.0344
   57CHL1   H20 6675   0.502   0.517   9.411  1.2407 -0.8052  1.2617
   57CHL1   C21 6676   0.691   0.593   9.462  0.1241 -0.4834  0.8007
   57CHL1  H21A 6677   0.707   0.507   9.530  1.2618 -2.1986 -1.4606
   57CHL1  H21B 6678   0.737   0.689   9.494  2.4275 -1.2638  0.0699
   57CHL1  H21C 6679   0.751   0.561   9.373  2.8788 -0.6838  2.6130
   57CHL1   C22 6680   0.534   0.698   9.301 -0.0792 -0.2510  0.5910
   57CHL1  H22A 6681   0.569   0.643   9.210  1.3864  0.3462  0.7800
   57CHL1  H22B 6682   0.424   0.710   9.292 -0.4422 -1.8689  2.2256
   57CHL1   C23 6683   0.590   0.840   9.307  0.1437  0.1004  0.2538
   57CHL1  H23A 6684   0.529   0.898   9.379 -2.3811  0.1763 -1.7694
   57CHL1  H23B 6685   0.695   0.836   9.343  0.7973 -0.0490 -1.5300
   57CHL1   C24 6686   0.601   0.916   9.179 -0.0673  0.4116 -0.3452
   57CHL1  H24A 6687   0.638   1.020   9.189  1.0913  0.2075 -2.0030
   57CHL1  H24B 6688   0.682   0.860   9.127  1.1951 -0.2447  2.1685
   57CHL1   C25 6689   0.468   0.937   9.091 -0.7533 -0.3601  0.5686
   57CHL1   H25 6690   0.439   0.834   9.063  3.4988 -1.2624 -1.2069
   57CHL1   C26 6691   0.353   1.001   9.175  0.5443  0.3185 -0.0512
   57CHL1  H26A 6692   0.264   1.018   9.110  1.4524 -2.2155 -2.1347
   57CHL1  H26B 6693   0.318   0.929   9.251 -0.4503  0.1696 -0.6311
   57CHL1  H26C 6694   0.375   1.097   9.226  1.3444 -0.4795  1.1598
   57CHL1   C27 6695   0.498   1.000   8.961 -0.4673 -0.1787  0.2578
   57CHL1  H27A 6696   0.562   1.090   8.968 -0.2803 -0.0140 -2.4630
   57CHL1  H27B 6697   0.557   0.930   8.897  0.9264 -1.8625  3.2049
   57CHL1  H27C 6698   0.407   1.038   8.910  1.0254  1.7203 -1.1148
   58CHL1    C3 6699   4.653   1.040  10.123  0.0848 -0.2602  0.0768
   58CHL1    H3 6700   4.745   0.977  10.121  0.6603  0.5234 -2.4590
   58CHL1    O3 6701   4.607   1.039  10.256  0.6015 -0.1842  0.1295
   58CHL1   H3' 6702   4.540   1.107  10.270 -0.2746 -1.1777  0.8862
   58CHL1    C4 6703   4.700   1.177  10.091  0.3764 -0.4708 -0.1496
   58CHL1   H4A 6704   4.614   1.243  10.114  1.4099  1.4949 -1.6184
   58CHL1   H4B 6705   4.777   1.217  10.161  1.5049  0.4129 -1.8223
   58CHL1    C5 6706   4.723   1.199   9.943 -0.4047  0.2835 -0.7141
   58CHL1    C6 6707   4.844   1.232   9.901 -0.7977  0.3133  0.0985
   58CHL1    H6 6708   4.919   1.256   9.978 -0.3326  1.8020 -0.7834
   58CHL1    C7 6709   4.865   1.277   9.760 -0.3155  0.0744 -0.3202
   58CHL1   H7A 6710   4.914   1.377   9.756  1.8391 -0.9446 -3.6267
   58CHL1   H7B 6711   4.925   1.200   9.707 -0.8574 -1.2567  0.9363
   58CHL1    C8 6712   4.738   1.305   9.676  0.4515  0.7111  0.3097
   58CHL1    H8 6713   4.691   1.400   9.711 -2.5530 -1.2364  2.0749
   58CHL1   C14 6714   4.771   1.318   9.533 -0.4103 -1.1253 -0.8058
   58CHL1   H14 6715   4.813   1.219   9.503  1.1090 -1.0939  1.0210
   58CHL1   C15 6716   4.878   1.415   9.490  0.1275  0.2036 -0.9881
   58CHL1  H15A 6717   4.855   1.514   9.536  0.9443 -1.5727  3.8767
   58CHL1  H15B 6718   4.980   1.390   9.528  0.0411  0.7923 -0.3460
   58CHL1   C16 6719   4.865   1.430   9.339 -0.5389 -0.2842  0.3247
   58CHL1  H16A 6720   4.839   1.534   9.312  2.2562  0.4655  0.1820
   58CHL1  H16B 6721   4.956   1.401   9.281 -2.0894  1.6690 -3.3793
   58CHL1   C17 6722   4.740   1.339   9.300  0.7705 -0.7529  0.4575
   58CHL1   H17 6723   4.781   1.238   9.280  0.1429 -0.6818 -1.3493
   58CHL1   C13 6724   4.657   1.326   9.435  0.1615  0.1220 -0.2691
   58CHL1   C18 6725   4.571   1.457   9.462  0.2476  0.3926  0.0758
   58CHL1  H18A 6726   4.526   1.449   9.563  1.0515 -2.2172  0.3004
   58CHL1  H18B 6727   4.644   1.540   9.456 -0.3545  0.8384 -1.8147
   58CHL1  H18C 6728   4.496   1.466   9.381  0.7551  1.7728 -0.2732
   58CHL1   C12 6729   4.576   1.195   9.450 -0.0798 -0.1186 -0.2671
   58CHL1  H12A 6730   4.484   1.203   9.388 -0.3748 -0.8732  0.0634
   58CHL1  H12B 6731   4.636   1.109   9.416 -0.9238 -0.1917 -1.6376
   58CHL1   C11 6732   4.535   1.161   9.595  0.5517  0.0861  0.3092
   58CHL1  H11A 6733   4.459   1.238   9.620 -0.9347 -1.8269  2.0756
   58CHL1  H11B 6734   4.480   1.066   9.608  2.2856 -1.0839 -0.4993
   58CHL1    C9 6735   4.648   1.183   9.699 -0.4540  0.1347  0.0943
   58CHL1    H9 6736   4.710   1.094   9.673 -1.0075 -0.2263 -0.0186
   58CHL1   C10 6737   4.607   1.173   9.848  0.0600  0.1022 -0.3620
   58CHL1   C19 6738   4.494   1.280   9.874  0.9834 -1.0707  0.2659
   58CHL1  H19A 6739   4.471   1.292   9.982  2.2782 -1.6264  0.6299
   58CHL1  H19B 6740   4.516   1.383   9.839 -2.2638 -1.1164 -2.3584
   58CHL1  H19C 6741   4.398   1.246   9.830  0.6328 -0.9052  0.8831
   58CHL1    C1 6742   4.557   1.028   9.884  0.0389 -0.1431 -0.6727
   58CHL1   H1A 6743   4.468   1.013   9.819 -1.7368  3.1238  0.7309
   58CHL1   H1B 6744   4.637   0.955   9.860 -0.0247 -0.4476  0.0174
   58CHL1    C2 6745   4.540   1.002  10.027  0.1922 -0.0777 -0.1905
   58CHL1   H2A 6746   4.522   0.893  10.044 -0.5370 -0.2143 -1.6669
   58CHL1   H2B 6747   4.444   1.050  10.055  0.8457  0.6559  0.8828
   58CHL1   C20 6748   4.675   1.398   9.176  0.2563 -0.9019  0.1176
   58CHL1   H20 6749   4.632   1.498   9.198 -0.5069 -1.0410 -0.6869
   58CHL1   C21 6750   4.569   1.306   9.116  0.9006 -0.3002  0.0127
   58CHL1  H21A 6751   4.506   1.274   9.202  0.1704 -0.2745 -0.5011
   58CHL1  H21B 6752   4.610   1.220   9.060  2.7835  0.4925  0.1058
   58CHL1  H21C 6753   4.510   1.366   9.043  0.1532 -0.6327  0.3303
   58CHL1   C22 6754   4.778   1.433   9.068 -0.1956 -0.0514 -0.2692
   58CHL1  H22A 6755   4.841   1.517   9.103 -1.0880  0.0250  1.2354
   58CHL1  H22B 6756   4.846   1.347   9.053 -0.6329 -0.0936 -2.3613
   58CHL1   C23 6757   4.738   1.486   8.933  0.2796  0.4375 -0.4298
   58CHL1  H23A 6758   4.830   1.495   8.872  0.7371 -0.4977  0.0947
   58CHL1  H23B 6759   4.672   1.408   8.890 -0.8996  0.7094  0.8087
   58CHL1   C24 6760   4.670   1.620   8.924 -0.7102  0.0197 -0.1201
   58CHL1  H24A 6761   4.574   1.608   8.978  0.2352 -2.8589  1.1040
   58CHL1  H24B 6762   4.740   1.681   8.985 -0.5480 -1.0620  0.8166
   58CHL1   C25 6763   4.659   1.673   8.776  0.7301 -0.0152 -1.3357
   58CHL1   H25 6764   4.748   1.644   8.718 -0.2647 -2.9688 -1.5578
   58CHL1   C26 6765   4.531   1.626   8.707 -0.1101  0.0114 -0.2373
   58CHL1  H26A 6766   4.459   1.600   8.788  0.3662 -0.8383 -0.0835
   58CHL1  H26B 6767   4.503   1.704   8.632  1.0417 -0.5462 -1.2714
   58CHL1  H26C 6768   4.551   1.531   8.653 -0.5853 -0.0512 -0.3075
   58CHL1   C27 6769   4.644   1.826   8.779  0.1245  0.7926  0.8360
   58CHL1  H27A 6770   4.560   1.857   8.845  0.7540  0.1685  1.9633
   58CHL1  H27B 6771   4.735   1.872   8.822  0.1627  1.5117  0.0182
   58CHL1  H27C 6772   4.635   1.874   8.679  0.0023  0.7722  0.8367
   59CHL1    C3 6773   3.888   6.381  10.447 -0.8249  0.6010 -0.4551
   59CHL1    H3 6774   3.880   6.270  10.443  2.3388  0.3069 -1.1840
   59CHL1    O3 6775   3.890   6.418  10.589 -0.5877 -0.5510 -0.0166
   59CHL1   H3' 6776   3.854   6.507  10.593 -0.3781 -0.4327 -0.6435
   59CHL1    C4 6777   4.023   6.423  10.382 -0.4766  0.8805 -0.5496
   59CHL1   H4A 6778   4.042   6.532  10.396 -0.6035  0.7752  0.5209
   59CHL1   H4B 6779   4.104   6.369  10.434 -0.7949  1.1163  0.2066
   59CHL1    C5 6780   4.022   6.404  10.228 -0.1576  0.2047 -0.6439
   59CHL1    C6 6781   4.099   6.315  10.167 -1.0333  0.2129 -0.6067
   59CHL1    H6 6782   4.171   6.257  10.227 -0.6713 -0.8418 -2.0192
   59CHL1    C7 6783   4.100   6.285  10.022 -0.0075 -0.2368 -0.0309
   59CHL1   H7A 6784   4.204   6.276   9.985  1.0148  2.1544  1.9983
   59CHL1   H7B 6785   4.043   6.193   9.997 -0.1716  0.3935 -2.2304
   59CHL1    C8 6786   4.040   6.408   9.943  0.1063  0.4058 -0.1358
   59CHL1    H8 6787   4.108   6.494   9.958  0.4668  0.2031 -0.6096
   59CHL1   C14 6788   4.031   6.370   9.793 -0.5575 -0.7584 -0.4081
   59CHL1   H14 6789   3.969   6.278   9.793 -0.5157 -0.7877 -0.5937
   59CHL1   C15 6790   4.156   6.328   9.717  0.2479 -0.3597  0.1163
   59CHL1  H15A 6791   4.227   6.405   9.755 -0.6584  0.0193  1.1136
   59CHL1  H15B 6792   4.202   6.233   9.751  4.2497  1.2762 -0.1834
   59CHL1   C16 6793   4.123   6.337   9.568  0.8450 -0.8013 -0.2454
   59CHL1  H16A 6794   4.186   6.417   9.525 -2.0673  1.9467  0.2413
   59CHL1  H16B 6795   4.123   6.244   9.508  2.3201  0.0556 -1.6656
   59CHL1   C17 6796   3.981   6.401   9.565 -0.1449  0.0723  0.1877
   59CHL1   H17 6797   3.906   6.319   9.562  0.4575 -0.5992  1.9478
   59CHL1   C13 6798   3.962   6.467   9.706  0.6246  0.4365  0.3274
   59CHL1   C18 6799   4.052   6.594   9.700  0.0254 -0.1013 -0.0680
   59CHL1  H18A 6800   4.149   6.560   9.658  0.0489 -2.2802  1.6223
   59CHL1  H18B 6801   4.004   6.672   9.636  2.0442 -0.4349 -2.1144
   59CHL1  H18C 6802   4.067   6.631   9.804 -0.0601 -0.9826  0.2602
   59CHL1   C12 6803   3.817   6.490   9.761  0.4631  0.0814  0.1378
   59CHL1  H12A 6804   3.767   6.573   9.706  1.5575  0.1759 -0.7477
   59CHL1  H12B 6805   3.762   6.397   9.737 -0.3928  0.8962 -1.1831
   59CHL1   C11 6806   3.810   6.528   9.916  0.5999 -0.0280 -0.7418
   59CHL1  H11A 6807   3.840   6.635   9.918 -1.1749  0.4901  1.2701
   59CHL1  H11B 6808   3.709   6.526   9.963  1.5208  0.3570  1.3502
   59CHL1    C9 6809   3.898   6.433  10.005  0.2316 -0.5539  0.2912
   59CHL1    H9 6810   3.841   6.338  10.006  2.0162 -1.7121 -1.6160
   59CHL1   C10 6811   3.907   6.476  10.149 -0.3481 -0.4056  0.4376
   59CHL1   C19 6812   3.941   6.628  10.149  1.2777  0.0815  0.0264
   59CHL1  H19A 6813   4.033   6.641  10.089  1.0063 -0.7243 -0.5801
   59CHL1  H19B 6814   3.855   6.686  10.108 -0.0241 -1.9990 -0.3195
   59CHL1  H19C 6815   3.960   6.674  10.248 -0.2975  1.6960 -0.3547
   59CHL1    C1 6816   3.778   6.453  10.224 -0.3532 -0.1597 -1.0511
   59CHL1   H1A 6817   3.705   6.522  10.176 -1.1777 -1.3023 -1.4651
   59CHL1   H1B 6818   3.744   6.349  10.206  0.2330 -0.8359  1.4042
   59CHL1    C2 6819   3.776   6.464  10.385  0.1382 -0.0600  0.9726
   59CHL1   H2A 6820   3.685   6.413  10.424 -1.0890 -0.1669 -1.7950
   59CHL1   H2B 6821   3.774   6.571  10.413  1.2602  1.1255 -2.9284
   59CHL1   C20 6822   3.959   6.480   9.435  0.5168 -0.0642  0.1574
   59CHL1   H20 6823   4.034   6.561   9.424 -0.5529  0.7605 -1.7237
   59CHL1   C21 6824   3.822   6.553   9.432 -0.1827 -0.8772 -0.3776
   59CHL1  H21A 6825   3.803   6.617   9.522 -4.1764 -0.7207 -1.1596
   59CHL1  H21B 6826   3.749   6.469   9.433  1.0514 -1.9855 -0.6141
   59CHL1  H21C 6827   3.811   6.617   9.342 -0.7367  1.4775  1.2619
   59CHL1   C22 6828   3.973   6.398   9.294  0.2748 -0.6293  0.4070
   59CHL1  H22A 6829   3.999   6.296   9.329  0.8070  0.2736  2.8049
   59CHL1  H22B 6830   3.872   6.394   9.248 -0.3936  0.6157  1.7194
   59CHL1   C23 6831   4.073   6.454   9.193 -0.2700  0.4436 -0.4040
   59CHL1  H23A 6832   4.037   6.554   9.162 -2.3811 -0.2688 -0.3646
   59CHL1  H23B 6833   4.167   6.480   9.248 -0.1710  1.1341 -0.8782
   59CHL1   C24 6834   4.099   6.363   9.077 -0.1557  0.0929 -0.0273
   59CHL1  H24A 6835   4.006   6.323   9.029 -0.2009  3.2766 -2.9681
   59CHL1  H24B 6836   4.149   6.425   8.999 -2.3317  1.7977 -0.1572
   59CHL1   C25 6837   4.186   6.240   9.114  0.2802 -0.4334 -0.1593
   59CHL1   H25 6838   4.121   6.160   9.156 -0.5550  1.0305  1.4336
   59CHL1   C26 6839   4.255   6.187   8.986 -0.2839  0.3195 -0.1803
   59CHL1  H26A 6840   4.176   6.171   8.909 -0.2998  1.7858 -0.5117
   59CHL1  H26B 6841   4.330   6.257   8.943 -1.8786  1.3586 -1.3967
   59CHL1  H26C 6842   4.312   6.096   9.013 -0.7314  0.5317  1.5962
   59CHL1   C27 6843   4.297   6.266   9.211  0.4090  0.6560  0.0070
   59CHL1  H27A 6844   4.350   6.361   9.190  3.1167 -0.4368  1.4016
   59CHL1  H27B 6845   4.261   6.282   9.315  1.8346  0.1835  0.6035
   59CHL1  H27C 6846   4.366   6.179   9.214 -0.6916 -0.4283 -2.8491
   60CHL1    C3 6847   4.281   4.645  10.471  0.0059 -0.8266 -0.0772
   60CHL1    H3 6848   4.328   4.562  10.415  0.9016 -1.2086  1.1971
   60CHL1    O3 6849   4.295   4.622  10.609  0.2358 -0.4504  0.0426
   60CHL1   H3' 6850   4.208   4.623  10.650  0.6864 -1.5198  1.0727
   60CHL1    C4 6851   4.359   4.775  10.430 -0.3956  0.2252 -0.2981
   60CHL1   H4A 6852   4.309   4.858  10.485  0.6282  1.4736 -1.1905
   60CHL1   H4B 6853   4.459   4.757  10.475 -1.7109  0.5430  3.0765
   60CHL1    C5 6854   4.359   4.787  10.276  0.2395  0.8048 -0.0594
   60CHL1    C6 6855   4.470   4.786  10.208 -0.5379  0.3978 -0.0853
   60CHL1    H6 6856   4.566   4.794  10.262  0.0051 -1.4596 -0.6692
   60CHL1    C7 6857   4.475   4.806  10.060  0.2734  0.0445  0.5538
   60CHL1   H7A 6858   4.544   4.889  10.035 -0.5624  0.1592 -1.6491
   60CHL1   H7B 6859   4.514   4.710  10.018  1.0375  0.5234  0.1568
   60CHL1    C8 6860   4.340   4.842  10.001 -0.8002 -0.0220 -0.4507
   60CHL1    H8 6861   4.326   4.949  10.028  2.2918  0.2915  0.2962
   60CHL1   C14 6862   4.334   4.826   9.845 -0.6902  0.3104 -0.5859
   60CHL1   H14 6863   4.333   4.719   9.814 -0.7045  0.1414 -0.0056
   60CHL1   C15 6864   4.454   4.883   9.762 -0.0714  0.3614 -0.4555
   60CHL1  H15A 6865   4.476   4.983   9.804  0.2198 -0.2179  0.8265
   60CHL1  H15B 6866   4.545   4.822   9.778  0.8483  2.3914  2.8825
   60CHL1   C16 6867   4.395   4.878   9.622 -0.2253  0.0246 -0.2871
   60CHL1  H16A 6868   4.422   4.980   9.585  2.2181 -0.3467  0.3173
   60CHL1  H16B 6869   4.445   4.802   9.559  0.0923  0.4230 -0.5181
   60CHL1   C17 6870   4.241   4.858   9.633 -0.2487 -0.2788 -0.6565
   60CHL1   H17 6871   4.222   4.751   9.612  2.0550 -0.6036 -1.3866
   60CHL1   C13 6872   4.209   4.879   9.784 -0.1383  0.3057 -0.1823
   60CHL1   C18 6873   4.196   5.031   9.826  0.6568  0.4102  1.1450
   60CHL1  H18A 6874   4.116   5.086   9.773  0.0730  2.1024  3.6580
   60CHL1  H18B 6875   4.176   5.046   9.934 -3.6586  0.3478  0.5318
   60CHL1  H18C 6876   4.286   5.087   9.792  1.7179 -2.0076 -0.3531
   60CHL1   C12 6877   4.091   4.793   9.833 -0.0372 -0.2448 -0.7871
   60CHL1  H12A 6878   3.999   4.842   9.794  0.4211 -0.3756 -2.0789
   60CHL1  H12B 6879   4.084   4.693   9.783 -2.8021 -1.4541  1.7415
   60CHL1   C11 6880   4.090   4.783   9.990  0.5786 -0.3825  0.3769
   60CHL1  H11A 6881   4.047   4.882  10.014  2.5584  0.2394  1.6887
   60CHL1  H11B 6882   4.014   4.716  10.035 -0.2105 -0.2563 -0.7342
   60CHL1    C9 6883   4.225   4.758  10.068 -0.4818 -0.7157  0.1287
   60CHL1    H9 6884   4.249   4.650  10.058  0.1011 -0.5601 -0.2439
   60CHL1   C10 6885   4.216   4.789  10.218 -0.5158  0.4899  0.3287
   60CHL1   C19 6886   4.153   4.922  10.249  0.6953 -0.1477  0.8568
   60CHL1  H19A 6887   4.170   4.940  10.357  0.0531  0.7144  0.8220
   60CHL1  H19B 6888   4.196   5.007  10.193 -1.4567  0.8807  0.6786
   60CHL1  H19C 6889   4.045   4.918  10.224  0.7679  0.6057  0.4159
   60CHL1    C1 6890   4.132   4.672  10.276  0.6654 -0.4487 -0.0967
   60CHL1   H1A 6891   4.027   4.685  10.244  0.8848 -0.1710 -0.7381
   60CHL1   H1B 6892   4.171   4.577  10.233 -1.9041 -1.1956 -0.9490
   60CHL1    C2 6893   4.139   4.656  10.431  0.2742  0.5512  0.8804
   60CHL1   H2A 6894   4.089   4.559  10.453  0.2529  0.3254 -0.0921
   60CHL1   H2B 6895   4.095   4.740  10.488 -4.4600 -1.7263  1.0592
   60CHL1   C20 6896   4.171   4.943   9.527  0.1812 -0.5020  0.2082
   60CHL1   H20 6897   4.203   5.047   9.548  0.4355 -0.5742  0.1864
   60CHL1   C21 6898   4.016   4.934   9.545 -0.1225 -0.4495 -0.4592
   60CHL1  H21A 6899   3.983   4.994   9.632 -0.2920 -0.1301 -0.7393
   60CHL1  H21B 6900   3.980   4.831   9.562  1.1051 -0.5276  2.0037
   60CHL1  H21C 6901   3.965   4.988   9.462  0.5373 -0.1809 -0.6901
   60CHL1   C22 6902   4.210   4.890   9.384  0.1941  0.0385  0.6181
   60CHL1  H22A 6903   4.161   4.959   9.311  1.2343  0.2501  0.0988
   60CHL1  H22B 6904   4.318   4.904   9.364  0.0384  0.9701  0.3381
   60CHL1   C23 6905   4.171   4.748   9.344  0.2020  0.2888 -0.4948
   60CHL1  H23A 6906   4.232   4.670   9.396 -0.5200  0.1834  0.2038
   60CHL1  H23B 6907   4.073   4.710   9.378  0.5893  0.0845  0.4157
   60CHL1   C24 6908   4.191   4.726   9.196  0.0062 -0.3795  0.8203
   60CHL1  H24A 6909   4.159   4.624   9.165  0.6076  0.1757 -1.8552
   60CHL1  H24B 6910   4.130   4.798   9.139  0.5369  0.7774  1.6820
   60CHL1   C25 6911   4.337   4.727   9.139  0.3566  0.0088 -0.3618
   60CHL1   H25 6912   4.379   4.830   9.148 -0.0871  0.2416 -0.9136
   60CHL1   C26 6913   4.437   4.635   9.216 -0.1638 -0.5531  0.2625
   60CHL1  H26A 6914   4.452   4.676   9.318 -0.7059  2.1540 -0.6492
   60CHL1  H26B 6915   4.410   4.527   9.214 -2.0432 -0.1521  1.5007
   60CHL1  H26C 6916   4.535   4.648   9.164 -0.2360  0.5460  0.3720
   60CHL1   C27 6917   4.328   4.679   8.996 -0.6584 -1.0871 -0.4306
   60CHL1  H27A 6918   4.274   4.743   8.924  1.5191  1.1916 -0.1700
   60CHL1  H27B 6919   4.430   4.672   8.953 -0.7656 -2.7296 -0.4812
   60CHL1  H27C 6920   4.287   4.575   8.996 -0.0083 -1.3717  0.9589
   61CHL1    C3 6921   6.223   4.786  10.337  0.5690  0.2975  0.2145
   61CHL1    H3 6922   6.203   4.677  10.329 -1.5818  0.5952  0.9202
   61CHL1    O3 6923   6.249   4.826  10.468  0.6120 -0.1320  0.6047
   61CHL1   H3' 6924   6.205   4.912  10.473 -0.9880 -0.8827  0.0874
   61CHL1    C4 6925   6.337   4.819  10.252 -0.3006  0.2183 -0.7625
   61CHL1   H4A 6926   6.378   4.920  10.273  0.9507 -0.3562 -0.3145
   61CHL1   H4B 6927   6.433   4.768  10.277 -0.2626 -0.0180 -1.3739
   61CHL1    C5 6928   6.311   4.810  10.105 -0.2392 -0.1257  0.0436
   61CHL1    C6 6929   6.378   4.731  10.029  0.1809  0.2761  0.0368
   61CHL1    H6 6930   6.455   4.660  10.062  0.1032  0.2304  0.1183
   61CHL1    C7 6931   6.373   4.727   9.873  0.2343 -0.2538 -0.6829
   61CHL1   H7A 6932   6.480   4.735   9.846  1.1156  0.8558  2.6547
   61CHL1   H7B 6933   6.346   4.627   9.834  0.2787 -0.2822 -0.6433
   61CHL1    C8 6934   6.294   4.848   9.811 -0.1680 -0.2890 -0.4107
   61CHL1    H8 6935   6.364   4.934   9.817 -0.4765  0.2745 -3.4133
   61CHL1   C14 6936   6.263   4.829   9.664  0.9921 -0.8336 -0.2255
   61CHL1   H14 6937   6.187   4.748   9.657  0.4822 -0.2029 -2.6809
   61CHL1   C15 6938   6.381   4.797   9.566 -0.1308 -0.8714 -0.1010
   61CHL1  H15A 6939   6.472   4.845   9.608 -0.0570 -1.8604  0.9061
   61CHL1  H15B 6940   6.414   4.692   9.549  2.0994 -0.8030  2.8775
   61CHL1   C16 6941   6.342   4.861   9.430 -0.3809 -0.4292 -0.2413
   61CHL1  H16A 6942   6.394   4.957   9.410  0.0767 -0.2988  1.4384
   61CHL1  H16B 6943   6.369   4.799   9.341  3.7228  0.8813 -0.1184
   61CHL1   C17 6944   6.196   4.913   9.447  0.0244 -0.2794 -0.1148
   61CHL1   H17 6945   6.142   4.818   9.429  1.2912 -0.9891 -0.3337
   61CHL1   C13 6946   6.191   4.950   9.600 -0.0459  0.4394  0.0613
   61CHL1   C18 6947   6.273   5.078   9.626  0.6420  0.2027  0.2298
   61CHL1  H18A 6948   6.208   5.153   9.575 -1.0714 -1.7864 -0.6533
   61CHL1  H18B 6949   6.278   5.094   9.736  1.3257 -1.5427  0.4769
   61CHL1  H18C 6950   6.377   5.077   9.589  0.6266  1.5237  0.0861
   61CHL1   C12 6951   6.056   4.940   9.676  0.4028  0.2821  0.7085
   61CHL1  H12A 6952   5.994   5.023   9.636  1.1776 -0.1508 -1.5546
   61CHL1  H12B 6953   6.001   4.850   9.642  2.1048 -0.8332  0.7688
   61CHL1   C11 6954   6.065   4.971   9.824  0.5195  0.2900  0.2687
   61CHL1  H11A 6955   6.092   5.075   9.852 -0.9970  1.1299 -1.1858
   61CHL1  H11B 6956   5.961   4.957   9.861  0.0484  1.4743 -0.5644
   61CHL1    C9 6957   6.163   4.869   9.893  0.0775  0.0147  0.1150
   61CHL1    H9 6958   6.117   4.768   9.888  1.1054 -0.5427  1.2225
   61CHL1   C10 6959   6.199   4.892  10.043  0.1230 -1.0165 -0.5307
   61CHL1   C19 6960   6.260   5.035  10.067 -0.0056  0.0557 -0.1858
   61CHL1  H19A 6961   6.271   5.058  10.175  0.9627  2.2119 -0.6770
   61CHL1  H19B 6962   6.360   5.057  10.023  0.2785 -0.2726  0.2840
   61CHL1  H19C 6963   6.192   5.115  10.030  0.3189  0.4457  0.0514
   61CHL1    C1 6964   6.070   4.858  10.129 -0.7141 -0.5988  0.3372
   61CHL1   H1A 6965   5.995   4.933  10.096  1.8708  1.1821 -1.9275
   61CHL1   H1B 6966   6.026   4.763  10.091 -0.8785  0.3819 -2.1082
   61CHL1    C2 6967   6.093   4.860  10.284  0.6960 -0.4099 -0.1285
   61CHL1   H2A 6968   6.007   4.820  10.342  3.0248 -0.0803  3.9910
   61CHL1   H2B 6969   6.118   4.966  10.305  1.0223 -0.6633  0.8327
   61CHL1   C20 6970   6.157   5.020   9.346 -0.3270  0.7221 -0.0999
   61CHL1   H20 6971   6.217   5.107   9.379  1.4268 -0.2636 -0.5649
   61CHL1   C21 6972   6.007   5.036   9.355 -0.1293 -0.4344  0.4485
   61CHL1  H21A 6973   5.967   4.943   9.311 -0.0571  0.6482 -2.0479
   61CHL1  H21B 6974   5.979   5.124   9.293  3.5662  0.0905 -0.7225
   61CHL1  H21C 6975   5.960   5.064   9.452 -1.3155  0.8726 -0.4706
   61CHL1   C22 6976   6.188   4.981   9.204  0.0051  0.4222 -0.6066
   61CHL1  H22A 6977   6.291   4.939   9.196 -0.6669 -1.1975 -1.1543
   61CHL1  H22B 6978   6.116   4.902   9.171  1.0583 -0.6503 -0.4006
   61CHL1   C23 6979   6.194   5.105   9.119  0.5003  0.0182 -0.7345
   61CHL1  H23A 6980   6.086   5.125   9.101 -0.0531 -3.1504 -1.4795
   61CHL1  H23B 6981   6.231   5.193   9.176  3.6395 -2.1866  0.8865
   61CHL1   C24 6982   6.268   5.090   8.987 -0.6098  0.3794  0.5708
   61CHL1  H24A 6983   6.367   5.042   9.003 -0.1024  1.1476 -0.1771
   61CHL1  H24B 6984   6.221   5.015   8.920  1.7175  1.6488 -2.8055
   61CHL1   C25 6985   6.270   5.220   8.905 -0.4329  0.6874  0.3909
   61CHL1   H25 6986   6.174   5.271   8.882  0.1039  1.9297  0.8356
   61CHL1   C26 6987   6.360   5.318   8.979  0.1473  0.2554  0.4589
   61CHL1  H26A 6988   6.468   5.293   8.979  0.2329  0.4747  2.0419
   61CHL1  H26B 6989   6.353   5.411   8.919 -0.4263 -0.8919 -1.3240
   61CHL1  H26C 6990   6.331   5.348   9.082 -1.2374 -1.3983  0.6057
   61CHL1   C27 6991   6.327   5.194   8.764  0.0304  0.5367  0.0016
   61CHL1  H27A 6992   6.339   5.292   8.712 -0.8863  1.2842  1.1379
   61CHL1  H27B 6993   6.432   5.157   8.761  0.1568  0.8884 -2.8967
   61CHL1  H27C 6994   6.265   5.128   8.699 -0.3074  1.5630 -0.7581
   62CHL1    C3 6995   0.941   0.811  10.325  0.1557  0.3506 -0.7398
   62CHL1    H3 6996   0.886   0.716  10.310 -0.5435  0.6599 -0.2252
   62CHL1    O3 6997   0.937   0.833  10.465  0.3853  0.2553  0.0437
   62CHL1   H3' 6998   1.002   0.899  10.491 -0.4616  1.8451 -1.6333
   62CHL1    C4 6999   1.076   0.806  10.281  0.3236 -0.4851 -0.1512
   62CHL1   H4A 7000   1.132   0.900  10.301 -0.4872  0.0062 -0.1560
   62CHL1   H4B 7001   1.130   0.723  10.331 -1.9744 -1.5012  0.7902
   62CHL1    C5 7002   1.092   0.790  10.134 -0.2687  0.4969 -0.3586
   62CHL1    C6 7003   1.167   0.686  10.079 -0.0334  0.3752 -0.5691
   62CHL1    H6 7004   1.215   0.613  10.145  0.1791  0.2253 -0.8865
   62CHL1    C7 7005   1.173   0.658   9.934  0.0328 -0.0653  0.2117
   62CHL1   H7A 7006   1.278   0.634   9.906  0.3025  1.0663  0.2007
   62CHL1   H7B 7007   1.118   0.566   9.903  1.8672 -0.8205 -0.9710
   62CHL1    C8 7008   1.130   0.777   9.842 -0.3510  0.3965 -0.5510
   62CHL1    H8 7009   1.207   0.855   9.857 -0.8348  0.7880 -0.0420
   62CHL1   C14 7010   1.122   0.735   9.699  0.6353 -0.2353  0.2368
   62CHL1   H14 7011   1.048   0.652   9.699  1.4325 -1.0085 -1.9044
   62CHL1   C15 7012   1.248   0.679   9.639 -0.2970  0.4896  0.0851
   62CHL1  H15A 7013   1.323   0.755   9.668  0.9015 -1.1865  1.6023
   62CHL1  H15B 7014   1.288   0.582   9.676 -0.3392  0.7940  0.9437
   62CHL1   C16 7015   1.231   0.688   9.486  0.9409  0.6054  0.2507
   62CHL1  H16A 7016   1.321   0.739   9.445  2.4661 -1.0361  1.3662
   62CHL1  H16B 7017   1.243   0.592   9.432  1.1146  1.3945 -1.1494
   62CHL1   C17 7018   1.099   0.767   9.464 -0.2290  0.1372 -0.2122
   62CHL1   H17 7019   1.020   0.690   9.462 -0.0631 -0.0241 -0.6416
   62CHL1   C13 7020   1.079   0.845   9.594 -0.0084  0.0060  0.4414
   62CHL1   C18 7021   1.164   0.972   9.595  0.0399 -1.3204 -0.1015
   62CHL1  H18A 7022   1.271   0.948   9.579  0.4450  0.2361  0.1788
   62CHL1  H18B 7023   1.127   1.052   9.528 -0.5403 -1.0460  0.5232
   62CHL1  H18C 7024   1.159   1.040   9.683 -0.0943 -1.3350 -0.0973
   62CHL1   C12 7025   0.932   0.867   9.644  0.6831  0.1833  0.0226
   62CHL1  H12A 7026   0.880   0.942   9.580 -0.2604  1.4789  2.1793
   62CHL1  H12B 7027   0.881   0.768   9.637  1.8425 -0.3366 -2.9478
   62CHL1   C11 7028   0.924   0.921   9.792 -0.1578 -0.2337 -0.0513
   62CHL1  H11A 7029   0.982   1.015   9.779 -0.6836  0.4419  2.1571
   62CHL1  H11B 7030   0.817   0.938   9.817 -0.2163 -1.5446  0.6271
   62CHL1    C9 7031   0.996   0.829   9.895 -0.0283  0.5069  0.4790
   62CHL1    H9 7032   0.937   0.735   9.902 -1.0322  1.0136 -0.8119
   62CHL1   C10 7033   1.007   0.885  10.044  0.8015 -0.4353 -0.1168
   62CHL1   C19 7034   1.060   1.034  10.045 -0.3435  0.6438 -0.4380
   62CHL1  H19A 7035   0.994   1.099   9.984  2.0176  3.1438 -0.4954
   62CHL1  H19B 7036   1.068   1.076  10.147 -2.8191 -1.9850  1.0058
   62CHL1  H19C 7037   1.157   1.031   9.990 -1.9398 -1.2924 -3.4262
   62CHL1    C1 7038   0.862   0.902  10.101  0.0932 -0.0766 -0.0803
   62CHL1   H1A 7039   0.820   0.993  10.053  1.9544  1.2448  0.6462
   62CHL1   H1B 7040   0.803   0.812  10.073 -0.3386  0.4571 -0.9163
   62CHL1    C2 7041   0.858   0.919  10.255 -0.1045 -0.0580 -0.0299
   62CHL1   H2A 7042   0.754   0.929  10.291  0.0042  1.0666 -0.0088
   62CHL1   H2B 7043   0.908   1.015  10.280 -0.8863  1.1133 -2.6433
   62CHL1   C20 7044   1.100   0.843   9.329 -0.3880  0.5169  0.1082
   62CHL1   H20 7045   1.185   0.915   9.323  0.3076 -0.4055 -2.4918
   62CHL1   C21 7046   0.968   0.912   9.299 -0.0203 -0.0490 -0.5727
   62CHL1  H21A 7047   0.885   0.839   9.293  0.1225 -0.2019 -0.7039
   62CHL1  H21B 7048   0.968   0.967   9.203  2.1358  0.6728 -0.2308
   62CHL1  H21C 7049   0.945   0.980   9.384 -0.9577 -2.9952  1.7012
   62CHL1   C22 7050   1.139   0.744   9.212 -0.4462  0.1996 -0.2299
   62CHL1  H22A 7051   1.203   0.659   9.244 -0.5444 -0.3850 -1.4956
   62CHL1  H22B 7052   1.042   0.698   9.182  1.1475 -2.0408 -2.4368
   62CHL1   C23 7053   1.206   0.813   9.092 -0.9610 -0.0051  0.1646
   62CHL1  H23A 7054   1.135   0.888   9.053 -1.9592 -0.5588  0.8628
   62CHL1  H23B 7055   1.292   0.863   9.142 -3.1157 -0.0786  4.4271
   62CHL1   C24 7056   1.229   0.721   8.975  0.5349  0.4911 -0.2567
   62CHL1  H24A 7057   1.285   0.629   9.003  0.7556  0.3956 -0.9810
   62CHL1  H24B 7058   1.132   0.688   8.933  0.3285  0.5197  0.2014
   62CHL1   C25 7059   1.285   0.800   8.862 -0.0228 -1.4673  0.0598
   62CHL1   H25 7060   1.204   0.870   8.835  0.5875  0.2516  2.3322
   62CHL1   C26 7061   1.421   0.880   8.882 -0.5358 -0.7815 -0.2442
   62CHL1  H26A 7062   1.508   0.812   8.890  0.6284  0.6177 -0.6398
   62CHL1  H26B 7063   1.438   0.958   8.805 -0.5869  0.7480  1.2442
   62CHL1  H26C 7064   1.417   0.949   8.969 -2.4430 -2.7391  1.3287
   62CHL1   C27 7065   1.299   0.701   8.745 -0.1160 -0.9417  0.8513
   62CHL1  H27A 7066   1.391   0.640   8.757 -0.0509 -1.3053 -1.2624
   62CHL1  H27B 7067   1.223   0.621   8.732 -0.8773 -0.1715  0.4295
   62CHL1  H27C 7068   1.321   0.755   8.651  2.4667 -0.6751  1.5369
   63CHL1    C3 7069   3.277   2.776  10.721 -0.1515  0.2547 -0.0649
   63CHL1    H3 7070   3.251   2.884  10.728 -2.3969 -0.2971  0.9689
   63CHL1    O3 7071   3.256   2.721  10.850 -0.1383  0.2810 -0.1096
   63CHL1   H3' 7072   3.288   2.631  10.845  0.4422  0.4193  0.8359
   63CHL1    C4 7073   3.194   2.694  10.617 -0.1219  0.5264 -0.2067
   63CHL1   H4A 7074   3.219   2.586  10.623  0.1247  0.5843 -0.2087
   63CHL1   H4B 7075   3.089   2.696  10.655  0.0988  1.1068  0.3870
   63CHL1    C5 7076   3.219   2.762  10.486  0.1873  0.1103  0.1929
   63CHL1    C6 7077   3.123   2.829  10.431  0.8014  0.6404  0.0877
   63CHL1    H6 7078   3.027   2.837  10.483  0.9654  1.9269  0.2173
   63CHL1    C7 7079   3.131   2.904  10.299 -0.1128 -0.1095 -0.5591
   63CHL1   H7A 7080   3.041   2.881  10.238 -0.7044 -1.2956  0.7019
   63CHL1   H7B 7081   3.143   3.013  10.317  1.0255  0.0629 -2.2076
   63CHL1    C8 7082   3.266   2.872  10.222  0.0952  0.3701 -0.1600
   63CHL1    H8 7083   3.270   2.772  10.175  0.0507 -0.5884  1.8183
   63CHL1   C14 7084   3.294   2.973  10.108 -0.0861  0.0820 -0.4474
   63CHL1   H14 7085   3.288   3.075  10.151 -2.6138  0.0591 -0.5714
   63CHL1   C15 7086   3.178   2.989  10.001 -0.4926 -0.2540 -0.3584
   63CHL1  H15A 7087   3.147   2.891   9.960 -0.7123 -0.9699  1.4232
   63CHL1  H15B 7088   3.102   3.060  10.040 -0.7321 -1.1823  0.9206
   63CHL1   C16 7089   3.254   3.056   9.883  0.0753  0.5678 -0.4796
   63CHL1  H16A 7090   3.222   2.995   9.796 -0.8046 -1.7064  1.3516
   63CHL1  H16B 7091   3.230   3.164   9.870 -0.0826  0.4054 -1.6940
   63CHL1   C17 7092   3.405   3.046   9.914  0.5125 -0.4392  0.6272
   63CHL1   H17 7093   3.433   3.145   9.955 -0.0518 -1.1116  2.7614
   63CHL1   C13 7094   3.425   2.947  10.026  0.3318 -0.9959 -0.8756
   63CHL1   C18 7095   3.422   2.807   9.971  0.5501  0.5689  0.1529
   63CHL1  H18A 7096   3.330   2.779   9.915  1.6621 -1.5518 -0.7166
   63CHL1  H18B 7097   3.512   2.789   9.909  0.7867  1.2371  0.2984
   63CHL1  H18C 7098   3.424   2.728  10.050 -1.0195 -0.8414 -1.1287
   63CHL1   C12 7099   3.545   2.978  10.128  0.6802 -0.8208  0.1328
   63CHL1  H12A 7100   3.639   2.939  10.082 -0.1343 -3.1209  0.2632
   63CHL1  H12B 7101   3.543   3.087  10.149  1.5737 -0.9012  0.6627
   63CHL1   C11 7102   3.525   2.898  10.259 -0.2910  0.1354 -0.0569
   63CHL1  H11A 7103   3.558   2.794  10.239 -0.1516 -0.0614  1.1639
   63CHL1  H11B 7104   3.600   2.929  10.335 -0.1329  0.5664 -0.3846
   63CHL1    C9 7105   3.379   2.882  10.322  0.4081  0.4057 -0.4987
   63CHL1    H9 7106   3.368   2.980  10.373  3.0115  0.4967  0.0670
   63CHL1   C10 7107   3.365   2.773  10.436  0.1629 -0.8342 -0.1713
   63CHL1   C19 7108   3.413   2.635  10.382 -1.0908  0.2949 -0.6212
   63CHL1  H19A 7109   3.518   2.634  10.346 -0.2048  1.7428  1.6486
   63CHL1  H19B 7110   3.424   2.563  10.466  0.0100 -0.5868 -1.4944
   63CHL1  H19C 7111   3.357   2.598  10.294 -1.5711 -0.3550 -0.0544
   63CHL1    C1 7112   3.453   2.816  10.550  0.1086 -0.1539  0.2200
   63CHL1   H1A 7113   3.558   2.785  10.528  0.3552  1.1419 -0.4758
   63CHL1   H1B 7114   3.456   2.926  10.556  1.5314 -0.2266  1.7354
   63CHL1    C2 7115   3.419   2.756  10.687 -0.3086 -0.3901  0.4725
   63CHL1   H2A 7116   3.494   2.801  10.755  0.1352  0.5065 -0.5671
   63CHL1   H2B 7117   3.454   2.651  10.684  1.3620  0.1334  0.8575
   63CHL1   C20 7118   3.494   3.039   9.789  0.2500  0.5509 -0.0222
   63CHL1   H20 7119   3.455   2.962   9.719  0.9012  0.9399 -0.8445
   63CHL1   C21 7120   3.642   3.014   9.826 -0.0521  0.2864 -0.5500
   63CHL1  H21A 7121   3.660   3.085   9.910 -0.7946 -2.2642  1.9416
   63CHL1  H21B 7122   3.709   3.043   9.743  0.1670  1.1563 -0.0786
   63CHL1  H21C 7123   3.655   2.909   9.860 -2.4100  0.3753  0.9063
   63CHL1   C22 7124   3.481   3.169   9.710 -0.0938  0.0337 -0.0752
   63CHL1  H22A 7125   3.378   3.207   9.694 -0.0023 -0.9478 -3.7569
   63CHL1  H22B 7126   3.545   3.234   9.773  0.1132  0.0194 -0.2733
   63CHL1   C23 7127   3.539   3.161   9.567 -0.2920 -0.7470  0.3592
   63CHL1  H23A 7128   3.631   3.099   9.562 -0.3603 -0.7597 -3.1042
   63CHL1  H23B 7129   3.470   3.116   9.492  0.6525 -1.1025 -0.3143
   63CHL1   C24 7130   3.571   3.298   9.503 -0.3020 -0.0615 -0.1790
   63CHL1  H24A 7131   3.482   3.351   9.463  0.2534  0.2401 -1.0434
   63CHL1  H24B 7132   3.606   3.365   9.584 -0.5049  1.4245 -1.2919
   63CHL1   C25 7133   3.667   3.278   9.387  0.4619 -0.0327  0.0402
   63CHL1   H25 7134   3.738   3.196   9.409 -0.0240  0.1821  2.6533
   63CHL1   C26 7135   3.589   3.232   9.263 -1.1007  0.3037 -0.2188
   63CHL1  H26A 7136   3.511   3.156   9.286 -0.1022 -0.2707  1.3990
   63CHL1  H26B 7137   3.533   3.314   9.213 -1.2902  0.0833 -0.3754
   63CHL1  H26C 7138   3.656   3.186   9.187  1.0961  1.2981  1.0359
   63CHL1   C27 7139   3.744   3.407   9.347 -0.3121 -0.7421 -0.7465
   63CHL1  H27A 7140   3.829   3.415   9.419 -2.2738 -1.0205  1.7246
   63CHL1  H27B 7141   3.785   3.384   9.247  1.1373 -0.0545 -0.3482
   63CHL1  H27C 7142   3.682   3.499   9.346  0.6148 -0.0978 -1.3542
   64CHL1    C3 7143   1.344   2.156  10.347 -0.2272 -0.2087  0.1424
   64CHL1    H3 7144   1.238   2.185  10.332 -0.4178 -0.9127  0.0579
   64CHL1    O3 7145   1.364   2.134  10.488 -0.4205 -0.7172  0.0376
   64CHL1   H3' 7146   1.449   2.089  10.484  0.7295  1.3918 -1.4104
   64CHL1    C4 7147   1.373   2.037  10.257 -0.4581  0.0736  0.1263
   64CHL1   H4A 7148   1.474   1.994  10.274 -0.2126  0.6433  0.1162
   64CHL1   H4B 7149   1.303   1.953  10.278 -1.7411  0.9917 -0.3861
   64CHL1    C5 7150   1.381   2.078  10.114 -0.1687  0.6971  0.4800
   64CHL1    C6 7151   1.302   2.020  10.023  0.2641  0.5851 -0.4590
   64CHL1    H6 7152   1.248   1.933  10.062 -0.8762  1.6882  0.5443
   64CHL1    C7 7153   1.290   2.048   9.879 -0.8255 -0.0653  0.2837
   64CHL1   H7A 7154   1.302   1.952   9.824 -0.7148 -0.4641  0.9990
   64CHL1   H7B 7155   1.189   2.087   9.856 -1.7031 -3.2798 -2.1297
   64CHL1    C8 7156   1.404   2.140   9.820  0.1023 -0.2853  0.1746
   64CHL1    H8 7157   1.490   2.071   9.810 -1.4485 -2.1164 -1.2678
   64CHL1   C14 7158   1.370   2.202   9.686 -0.9249 -0.2895 -0.0685
   64CHL1   H14 7159   1.288   2.277   9.689  0.0480  0.7748  0.4424
   64CHL1   C15 7160   1.323   2.109   9.572 -0.3509 -0.1239  0.4264
   64CHL1  H15A 7161   1.382   2.016   9.583  0.1661 -0.0255 -1.1920
   64CHL1  H15B 7162   1.214   2.091   9.579 -0.4831  0.5600  0.1986
   64CHL1   C16 7163   1.354   2.186   9.442  0.7384  0.2464 -0.3371
   64CHL1  H16A 7164   1.403   2.124   9.364 -1.4511 -2.2082  0.1182
   64CHL1  H16B 7165   1.261   2.220   9.390 -0.6069 -2.9913 -0.3067
   64CHL1   C17 7166   1.433   2.310   9.486  0.3534 -0.8070  0.2776
   64CHL1   H17 7167   1.354   2.387   9.498  0.7747 -0.4751  1.0183
   64CHL1   C13 7168   1.487   2.279   9.628 -0.3586 -0.2891  0.6577
   64CHL1   C18 7169   1.617   2.196   9.600  0.8952  0.0532 -0.2951
   64CHL1  H18A 7170   1.655   2.161   9.698 -3.7841  0.2189  1.8514
   64CHL1  H18B 7171   1.605   2.117   9.523 -1.0376  2.3969 -2.6152
   64CHL1  H18C 7172   1.696   2.268   9.570 -0.8562  2.0217 -0.4372
   64CHL1   C12 7173   1.515   2.402   9.713  0.0918 -0.0622 -0.5273
   64CHL1  H12A 7174   1.605   2.459   9.682  0.9970 -0.9964  0.3065
   64CHL1  H12B 7175   1.424   2.466   9.721 -0.0353 -0.3904  1.0309
   64CHL1   C11 7176   1.539   2.358   9.860 -0.0734 -0.0965  0.7173
   64CHL1  H11A 7177   1.636   2.303   9.863  0.4728  0.8344  0.6252
   64CHL1  H11B 7178   1.549   2.446   9.927 -1.3222  1.5022 -1.1119
   64CHL1    C9 7179   1.433   2.253   9.913 -0.0395  0.1752 -0.5708
   64CHL1    H9 7180   1.339   2.310   9.924  1.2115  2.1620  0.3157
   64CHL1   C10 7181   1.469   2.194  10.066  0.1472 -1.0438  0.3248
   64CHL1   C19 7182   1.611   2.141  10.073  0.2948  0.3982 -0.1398
   64CHL1  H19A 7183   1.645   2.127  10.178  1.5624 -0.1518 -0.6022
   64CHL1  H19B 7184   1.626   2.044  10.021 -1.0647 -1.1282  2.0911
   64CHL1  H19C 7185   1.677   2.221  10.036 -0.2128  0.7079 -0.3868
   64CHL1    C1 7186   1.441   2.304  10.168 -0.0586  0.5023 -0.0758
   64CHL1   H1A 7187   1.507   2.392  10.155  3.7196 -2.0107  0.6599
   64CHL1   H1B 7188   1.336   2.338  10.153 -0.1758  0.0445 -0.3146
   64CHL1    C2 7189   1.439   2.267  10.316  0.1414  0.0942 -0.4067
   64CHL1   H2A 7190   1.404   2.347  10.384  0.8721 -0.5041  0.7048
   64CHL1   H2B 7191   1.542   2.248  10.354  0.6034 -0.7689 -1.9813
   64CHL1   C20 7192   1.524   2.356   9.371  0.0585 -0.1167 -0.8013
   64CHL1   H20 7193   1.623   2.306   9.361 -0.2671 -1.0283  0.3735
   64CHL1   C21 7194   1.570   2.506   9.399 -0.0546  0.5239 -0.2774
   64CHL1  H21A 7195   1.576   2.538   9.505  1.4181 -1.1810  0.2069
   64CHL1  H21B 7196   1.499   2.568   9.340  1.8810  2.0039 -1.1440
   64CHL1  H21C 7197   1.668   2.536   9.356  0.7302  1.6123  2.1152
   64CHL1   C22 7198   1.447   2.358   9.230  0.3954  0.7226  0.4171
   64CHL1  H22A 7199   1.430   2.251   9.204  2.5202  0.5974 -0.7172
   64CHL1  H22B 7200   1.351   2.412   9.244  0.4816  1.4531 -1.5455
   64CHL1   C23 7201   1.522   2.432   9.113  0.2885  0.4934 -0.1145
   64CHL1  H23A 7202   1.550   2.534   9.146 -0.7417  0.5333  0.7193
   64CHL1  H23B 7203   1.614   2.371   9.105 -0.0597 -0.1376  0.4923
   64CHL1   C24 7204   1.432   2.424   8.985  0.0688 -0.2458 -0.1953
   64CHL1  H24A 7205   1.403   2.318   8.978  3.5525 -1.4090  0.8346
   64CHL1  H24B 7206   1.339   2.483   9.002 -0.5431 -1.0950 -0.5739
   64CHL1   C25 7207   1.502   2.462   8.852 -0.3192 -0.6451  0.7007
   64CHL1   H25 7208   1.430   2.452   8.767  0.2211 -1.5164  0.3266
   64CHL1   C26 7209   1.550   2.609   8.863  0.1386 -0.0851 -0.3506
   64CHL1  H26A 7210   1.469   2.681   8.885  0.9833  0.5876  0.6454
   64CHL1  H26B 7211   1.631   2.613   8.939  0.7490 -0.1526 -0.9786
   64CHL1  H26C 7212   1.608   2.643   8.775  1.8361  0.2848  0.8613
   64CHL1   C27 7213   1.613   2.361   8.826 -0.0831 -0.2662  0.3761
   64CHL1  H27A 7214   1.582   2.258   8.798 -0.1510 -0.4670  1.1644
   64CHL1  H27B 7215   1.659   2.398   8.731  0.8938 -2.0582  0.1157
   64CHL1  H27C 7216   1.694   2.356   8.902  2.7122  0.8872 -2.2910
   65CHL1    C3 7217   4.958   0.033  10.270 -0.2107  0.4603  0.1395
   65CHL1    H3 7218   5.064   0.040  10.235  0.0598  1.6609  1.1123
   65CHL1    O3 7219   4.958  -0.007  10.407  0.6079  0.0635 -0.0895
   65CHL1   H3' 7220   4.867   0.018  10.426  0.7105  1.7433 -1.5368
   65CHL1    C4 7221   4.883   0.164  10.240 -0.1466  0.0266 -0.0921
   65CHL1   H4A 7222   4.778   0.174  10.273 -0.0764 -0.4587  0.2839
   65CHL1   H4B 7223   4.938   0.246  10.293  0.4953  1.1527 -2.3823
   65CHL1    C5 7224   4.894   0.188  10.091  0.1865 -0.1650 -0.0420
   65CHL1    C6 7225   4.961   0.290  10.037 -0.4860 -0.6525  0.3081
   65CHL1    H6 7226   5.007   0.365  10.103  1.2542  1.2299 -2.8337
   65CHL1    C7 7227   4.965   0.326   9.892 -0.4259 -0.6482 -0.0718
   65CHL1   H7A 7228   4.945   0.434   9.879  1.5395 -0.3099 -0.6034
   65CHL1   H7B 7229   5.070   0.324   9.854 -0.8214  1.5874 -1.4232
   65CHL1    C8 7230   4.882   0.239   9.799  0.2565  0.1284  0.5888
   65CHL1    H8 7231   4.778   0.277   9.810 -0.1907 -0.8138 -0.2783
   65CHL1   C14 7232   4.920   0.254   9.653  0.2734 -0.0803  0.2903
   65CHL1   H14 7233   5.026   0.224   9.647  0.3727  0.4091 -0.5226
   65CHL1   C15 7234   4.908   0.395   9.589  0.3575 -0.5630 -0.2501
   65CHL1  H15A 7235   4.820   0.455   9.621  1.7794  1.1437  0.6229
   65CHL1  H15B 7236   4.997   0.456   9.612 -0.3327  0.9755 -1.5425
   65CHL1   C16 7237   4.902   0.370   9.433  0.0353  0.1725 -0.3298
   65CHL1  H16A 7238   4.806   0.410   9.393 -0.9363 -0.7291  1.0039
   65CHL1  H16B 7239   4.982   0.425   9.379 -0.2686  0.7688 -0.1854
   65CHL1   C17 7240   4.904   0.215   9.415 -0.0471 -0.7148 -0.3147
   65CHL1   H17 7241   5.014   0.199   9.406  0.1277  0.0430  0.3194
   65CHL1   C13 7242   4.848   0.162   9.554 -0.3755  0.8163  0.6882
   65CHL1   C18 7243   4.698   0.194   9.547  0.4293 -0.3500 -0.6933
   65CHL1  H18A 7244   4.655   0.188   9.649 -1.2590 -0.2134 -1.3757
   65CHL1  H18B 7245   4.670   0.292   9.503 -0.3565 -0.1176  0.2957
   65CHL1  H18C 7246   4.644   0.108   9.502 -0.3902  0.0369 -0.4619
   65CHL1   C12 7247   4.870   0.013   9.603 -0.2474  0.7516 -0.6279
   65CHL1  H12A 7248   4.813  -0.050   9.531  0.5976 -0.0340 -0.6200
   65CHL1  H12B 7249   4.975  -0.019   9.588 -0.3089  0.1879  0.0772
   65CHL1   C11 7250   4.825  -0.007   9.745  0.1100 -0.0258 -0.3893
   65CHL1  H11A 7251   4.721   0.032   9.740  1.0771  2.7999 -0.6643
   65CHL1  H11B 7252   4.828  -0.114   9.775  0.8906 -0.8467 -3.1224
   65CHL1    C9 7253   4.891   0.093   9.848  0.5431  0.2991  0.1126
   65CHL1    H9 7254   5.000   0.071   9.843  0.7240  0.5084  2.3387
   65CHL1   C10 7255   4.845   0.078   9.997  0.5849 -0.0945  0.5947
   65CHL1   C19 7256   4.688   0.090  10.003  0.0546 -0.0471 -0.4823
   65CHL1  H19A 7257   4.662   0.184   9.950  3.0623  0.9780 -0.3416
   65CHL1  H19B 7258   4.647   0.005   9.945 -1.8604  0.5407 -0.0437
   65CHL1  H19C 7259   4.643   0.091  10.105  1.2815 -1.1165  0.0996
   65CHL1    C1 7260   4.894  -0.057  10.049  0.4985  0.0438 -0.1601
   65CHL1   H1A 7261   4.834  -0.141  10.008 -1.0457 -0.5947  3.1415
   65CHL1   H1B 7262   4.997  -0.074  10.012 -0.2757 -0.8416 -2.0273
   65CHL1    C2 7263   4.880  -0.084  10.204  0.2602 -0.2459 -0.4792
   65CHL1   H2A 7264   4.932  -0.179  10.231 -0.2617 -0.3744  0.1047
   65CHL1   H2B 7265   4.771  -0.083  10.223  0.3083  0.1523 -0.2178
   65CHL1   C20 7266   4.838   0.170   9.289  0.1389 -0.3937  0.7886
   65CHL1   H20 7267   4.727   0.170   9.303 -0.2109  2.0454 -1.2741
   65CHL1   C21 7268   4.902   0.031   9.260 -0.3324  0.2614 -0.0192
   65CHL1  H21A 7269   4.932  -0.027   9.350  0.4697  1.8948  0.8126
   65CHL1  H21B 7270   4.991   0.045   9.195 -0.2550 -1.6295 -0.3879
   65CHL1  H21C 7271   4.826  -0.029   9.206 -0.3408  0.5663 -0.3504
   65CHL1   C22 7272   4.854   0.256   9.163 -0.2406 -0.2660  0.7746
   65CHL1  H22A 7273   4.780   0.339   9.170 -0.6210 -0.5573  0.2587
   65CHL1  H22B 7274   4.960   0.290   9.157 -0.0907 -1.0639 -2.5854
   65CHL1   C23 7275   4.831   0.187   9.028 -0.2226 -0.6290  0.1739
   65CHL1  H23A 7276   4.903   0.106   9.005  0.9705  0.2351  0.7878
   65CHL1  H23B 7277   4.729   0.145   9.046  0.6925 -3.7827 -1.2461
   65CHL1   C24 7278   4.832   0.285   8.912 -0.4573  0.6303 -0.0864
   65CHL1  H24A 7279   4.748   0.358   8.917 -1.5648 -0.6353  0.3830
   65CHL1  H24B 7280   4.927   0.343   8.904 -0.9665  1.3193 -1.7426
   65CHL1   C25 7281   4.818   0.208   8.779  0.0488  0.1969  0.4192
   65CHL1   H25 7282   4.897   0.131   8.767 -2.8136 -3.0403  0.6118
   65CHL1   C26 7283   4.686   0.132   8.751  0.1774 -0.1115  0.1458
   65CHL1  H26A 7284   4.686   0.092   8.647 -1.1743  1.0398 -0.3287
   65CHL1  H26B 7285   4.668   0.053   8.828  2.0255 -0.3110  0.4305
   65CHL1  H26C 7286   4.602   0.205   8.748 -0.1054 -0.4807 -1.7375
   65CHL1   C27 7287   4.848   0.296   8.655  0.4817 -0.0375  0.5634
   65CHL1  H27A 7288   4.954   0.329   8.663  0.1809  0.6599  2.2294
   65CHL1  H27B 7289   4.838   0.230   8.567 -0.2333  0.1602  0.4891
   65CHL1  H27C 7290   4.770   0.374   8.645  0.9607  0.6205  1.7349
   66CHL1    C3 7291   2.366   5.472  10.778 -0.5927  0.8006 -0.3627
   66CHL1    H3 7292   2.297   5.554  10.748  0.5808  2.0622  0.2641
   66CHL1    O3 7293   2.401   5.485  10.913 -0.4808 -0.8206 -0.0366
   66CHL1   H3' 7294   2.481   5.438  10.935  0.9279  2.3776  2.5604
   66CHL1    C4 7295   2.287   5.339  10.770 -0.2774 -0.0183 -0.6692
   66CHL1   H4A 7296   2.350   5.261  10.816  0.2378 -0.3927 -1.9783
   66CHL1   H4B 7297   2.192   5.342  10.828  0.1825 -1.2103  0.1784
   66CHL1    C5 7298   2.262   5.301  10.618 -0.0462 -0.1429 -0.4501
   66CHL1    C6 7299   2.135   5.292  10.570 -0.0763 -0.6086 -0.7467
   66CHL1    H6 7300   2.051   5.290  10.641 -0.7675  1.1191 -1.4351
   66CHL1    C7 7301   2.089   5.278  10.426 -0.5380 -0.3177  0.3291
   66CHL1   H7A 7302   2.003   5.210  10.415 -3.4316  3.3440 -2.2881
   66CHL1   H7B 7303   2.056   5.377  10.387  1.5092  0.3541  0.1322
   66CHL1    C8 7304   2.205   5.236  10.335  0.4245  0.5670  0.0416
   66CHL1    H8 7305   2.220   5.127  10.350 -0.2894  0.4448 -0.0941
   66CHL1   C14 7306   2.166   5.263  10.185 -0.2178 -0.6129 -0.2774
   66CHL1   H14 7307   2.161   5.374  10.191  0.0950 -0.6769  2.0572
   66CHL1   C15 7308   2.032   5.223  10.120  0.1057  0.5550  0.3109
   66CHL1  H15A 7309   2.023   5.112  10.125 -0.1962  0.4527 -1.7364
   66CHL1  H15B 7310   1.948   5.286  10.156 -1.3433  0.8261 -3.1687
   66CHL1   C16 7311   2.062   5.236   9.967 -0.0381  0.2407 -0.0591
   66CHL1  H16A 7312   2.039   5.138   9.919 -0.5969 -2.3928  4.9464
   66CHL1  H16B 7313   1.999   5.318   9.926 -0.1046 -0.6922 -1.9214
   66CHL1   C17 7314   2.216   5.265   9.956 -0.6655 -0.0093  1.1886
   66CHL1   H17 7315   2.227   5.376   9.952  0.6587 -0.1062  1.7056
   66CHL1   C13 7316   2.277   5.226  10.088  0.0067 -0.1745 -0.5979
   66CHL1   C18 7317   2.298   5.074  10.078  0.2829 -0.2561 -0.3476
   66CHL1  H18A 7318   2.385   5.044  10.016 -2.1892 -0.4684 -3.9781
   66CHL1  H18B 7319   2.320   5.042  10.183  1.4611  1.9786  0.1434
   66CHL1  H18C 7320   2.222   5.010  10.029 -1.2374  2.5600 -1.8464
   66CHL1   C12 7321   2.404   5.294  10.121 -0.7851 -1.3009 -0.2285
   66CHL1  H12A 7322   2.486   5.281  10.046  0.4302  0.9144  0.6280
   66CHL1  H12B 7323   2.382   5.403  10.129  0.5049 -1.1028  0.9382
   66CHL1   C11 7324   2.446   5.275  10.269  0.3566 -0.2651  0.4311
   66CHL1  H11A 7325   2.463   5.165  10.270 -1.2510 -0.5421  2.2788
   66CHL1  H11B 7326   2.535   5.334  10.299  0.2845  1.0514 -1.6747
   66CHL1    C9 7327   2.332   5.313  10.365 -0.7632 -0.2429 -0.3225
   66CHL1    H9 7328   2.296   5.416  10.347  1.1789  0.5325 -0.0629
   66CHL1   C10 7329   2.377   5.315  10.519 -0.2068 -0.3919 -0.1830
   66CHL1   C19 7330   2.468   5.202  10.548  0.1928 -0.4140 -0.1764
   66CHL1  H19A 7331   2.499   5.192  10.655  2.6479  0.1074 -0.7981
   66CHL1  H19B 7332   2.415   5.107  10.524 -3.3326  1.0375  1.1128
   66CHL1  H19C 7333   2.561   5.213  10.490 -0.1639 -0.6762 -0.8036
   66CHL1    C1 7334   2.458   5.453  10.534 -0.1897  0.2964 -0.1460
   66CHL1   H1A 7335   2.557   5.461  10.484 -0.2058  3.6926  0.1331
   66CHL1   H1B 7336   2.398   5.539  10.495  0.3951 -0.1532 -2.1488
   66CHL1    C2 7337   2.490   5.478  10.688 -0.2051 -0.1582 -0.3207
   66CHL1   H2A 7338   2.529   5.581  10.705  1.1627 -0.8242  0.7014
   66CHL1   H2B 7339   2.575   5.415  10.722 -0.6571  0.0582  1.2918
   66CHL1   C20 7340   2.258   5.225   9.813  0.1645 -0.4672  0.6166
   66CHL1   H20 7341   2.249   5.114   9.813  2.0176 -0.6494  1.2780
   66CHL1   C21 7342   2.414   5.242   9.791  0.1948  0.3846 -0.6881
   66CHL1  H21A 7343   2.461   5.150   9.832 -1.1547 -0.3101 -0.6055
   66CHL1  H21B 7344   2.454   5.335   9.835 -2.2824  0.7561  1.0507
   66CHL1  H21C 7345   2.440   5.246   9.683  1.6445  1.2590 -0.3290
   66CHL1   C22 7346   2.180   5.297   9.695  0.2339 -0.9323 -0.0443
   66CHL1  H22A 7347   2.073   5.270   9.709  0.5282 -1.6891  0.7794
   66CHL1  H22B 7348   2.201   5.406   9.703  1.1457 -1.1015 -0.0958
   66CHL1   C23 7349   2.218   5.258   9.550  0.3522 -0.0966 -0.3027
   66CHL1  H23A 7350   2.324   5.279   9.523 -0.3883  3.0454 -1.2252
   66CHL1  H23B 7351   2.194   5.151   9.533  2.4393 -0.6238 -0.1690
   66CHL1   C24 7352   2.131   5.329   9.448  0.7496  0.1959 -0.0927
   66CHL1  H24A 7353   2.026   5.297   9.467 -0.1171  3.5790  1.5422
   66CHL1  H24B 7354   2.131   5.435   9.481 -1.5104 -0.5385  2.6410
   66CHL1   C25 7355   2.162   5.314   9.297  0.9034 -0.6553  0.5553
   66CHL1   H25 7356   2.178   5.204   9.285 -0.2450 -0.8411  0.6496
   66CHL1   C26 7357   2.046   5.370   9.214 -0.0361 -0.5267 -0.0617
   66CHL1  H26A 7358   1.954   5.315   9.241 -1.0709 -0.6622 -3.4188
   66CHL1  H26B 7359   2.039   5.480   9.229  1.1967 -0.5076  0.5062
   66CHL1  H26C 7360   2.055   5.341   9.107 -0.8463 -1.3869  0.0898
   66CHL1   C27 7361   2.298   5.391   9.262 -0.3226 -0.1069  0.1664
   66CHL1  H27A 7362   2.383   5.349   9.320 -1.3949 -0.6735  1.3807
   66CHL1  H27B 7363   2.322   5.382   9.154 -0.5843 -0.0315  0.1000
   66CHL1  H27C 7364   2.286   5.500   9.281 -0.1258 -0.2229  1.0041
   67CHL1    C3 7365   6.521   5.200  10.450 -0.5852  0.0393  0.1897
   67CHL1    H3 7366   6.452   5.113  10.450  0.1649 -0.5883 -1.0653
   67CHL1    O3 7367   6.498   5.298  10.558  0.0458  0.2991  1.0791
   67CHL1   H3' 7368   6.468   5.246  10.634 -2.3944  2.1022  1.4901
   67CHL1    C4 7369   6.661   5.142  10.475  1.0983  0.4869  0.4089
   67CHL1   H4A 7370   6.734   5.226  10.473  0.3233  1.1531 -1.3730
   67CHL1   H4B 7371   6.656   5.086  10.570 -0.0738 -2.7024 -1.3866
   67CHL1    C5 7372   6.696   5.051  10.360  0.0828 -0.0605 -0.4330
   67CHL1    C6 7373   6.726   4.921  10.371 -0.0320 -0.2177  0.1489
   67CHL1    H6 7374   6.726   4.875  10.471 -0.3252 -1.4740 -0.4002
   67CHL1    C7 7375   6.784   4.834  10.265 -0.6659  0.3734  0.1162
   67CHL1   H7A 7376   6.879   4.793  10.305 -0.4555  0.4965 -0.2517
   67CHL1   H7B 7377   6.711   4.751  10.254 -0.2373  0.2314 -1.9307
   67CHL1    C8 7378   6.812   4.904  10.133 -0.4795  0.2735 -0.0877
   67CHL1    H8 7379   6.913   4.949  10.145 -0.2204 -0.5354  0.9700
   67CHL1   C14 7380   6.810   4.799  10.017  0.4355 -0.0644 -0.4162
   67CHL1   H14 7381   6.709   4.754  10.009  0.7894 -1.0900  0.6237
   67CHL1   C15 7382   6.891   4.670  10.038  0.1325 -0.3555 -0.2153
   67CHL1  H15A 7383   6.997   4.684  10.066 -0.2362 -0.9296  1.5401
   67CHL1  H15B 7384   6.844   4.609  10.118 -1.4016  0.6867 -0.2805
   67CHL1   C16 7385   6.883   4.621   9.898 -0.4005  0.1121  0.2451
   67CHL1  H16A 7386   6.987   4.594   9.869 -0.1296  0.2755  1.0556
   67CHL1  H16B 7387   6.823   4.529   9.887  0.3177 -0.4632  1.0235
   67CHL1   C17 7388   6.835   4.730   9.805 -0.1844  0.0817  0.1673
   67CHL1   H17 7389   6.724   4.728   9.795 -0.2802 -0.9854  1.2511
   67CHL1   C13 7390   6.842   4.862   9.884  0.3709 -0.3496 -0.3003
   67CHL1   C18 7391   6.989   4.905   9.890  0.1927 -0.4470  0.4410
   67CHL1  H18A 7392   7.055   4.819   9.912 -0.2342 -0.9980 -0.3671
   67CHL1  H18B 7393   7.006   4.938   9.785  0.0116 -1.2703  0.1379
   67CHL1  H18C 7394   7.005   4.990   9.960  0.7721 -1.2900  1.3654
   67CHL1   C12 7395   6.736   4.966   9.849  0.2060 -0.4714 -0.7780
   67CHL1  H12A 7396   6.753   5.013   9.749  1.5974 -2.5096 -1.5686
   67CHL1  H12B 7397   6.634   4.923   9.842  0.1476 -0.2724 -1.1884
   67CHL1   C11 7398   6.724   5.070   9.959  0.0175 -0.8921  0.0563
   67CHL1  H11A 7399   6.815   5.134   9.957  0.1652 -1.1203 -0.8973
   67CHL1  H11B 7400   6.634   5.125   9.925  0.1644 -1.1474 -0.7669
   67CHL1    C9 7401   6.710   5.013  10.105  0.3679 -0.4531 -0.0881
   67CHL1    H9 7402   6.609   4.968  10.092 -1.1403  2.8121 -0.8101
   67CHL1   C10 7403   6.693   5.124  10.222 -0.2013  0.3068 -1.0512
   67CHL1   C19 7404   6.799   5.239  10.207  0.1989  0.8921  0.5540
   67CHL1  H19A 7405   6.899   5.192  10.212 -0.7508 -1.2921  0.2320
   67CHL1  H19B 7406   6.778   5.293  10.112 -1.8652  0.4253  0.7004
   67CHL1  H19C 7407   6.797   5.317  10.286  1.0024  0.8649  0.6062
   67CHL1    C1 7408   6.549   5.174  10.204  0.2494  0.7017 -0.6422
   67CHL1   H1A 7409   6.539   5.235  10.111 -1.1087  0.5161 -0.6331
   67CHL1   H1B 7410   6.481   5.086  10.207 -0.3153  1.1496  0.0023
   67CHL1    C2 7411   6.512   5.270  10.318  0.2100 -0.1360 -0.4867
   67CHL1   H2A 7412   6.405   5.301  10.317  0.5468  1.0704 -0.4832
   67CHL1   H2B 7413   6.574   5.362  10.325 -2.3858  1.7226 -0.3292
   67CHL1   C20 7414   6.886   4.727   9.654  0.1945 -0.4447  0.1902
   67CHL1   H20 7415   6.990   4.767   9.648 -0.4594  1.2782 -0.4948
   67CHL1   C21 7416   6.806   4.816   9.559 -0.3253 -0.0441 -0.2079
   67CHL1  H21A 7417   6.815   4.923   9.584 -1.2124  0.7976 -3.0092
   67CHL1  H21B 7418   6.696   4.803   9.547 -0.1150 -0.4745 -2.1103
   67CHL1  H21C 7419   6.841   4.811   9.453 -1.8273 -3.0343 -0.6896
   67CHL1   C22 7420   6.890   4.584   9.607  0.2220  0.5122 -1.0570
   67CHL1  H22A 7421   6.926   4.513   9.685 -0.4522  1.2993 -0.0101
   67CHL1  H22B 7422   6.790   4.551   9.573 -0.6258  1.0579  0.7976
   67CHL1   C23 7423   6.974   4.546   9.485 -0.2563 -0.6614  0.1241
   67CHL1  H23A 7424   6.951   4.441   9.458 -2.1579 -0.1146 -0.4982
   67CHL1  H23B 7425   6.947   4.605   9.395 -0.8881 -3.7650 -1.8526
   67CHL1   C24 7426   7.129   4.575   9.502  0.2641  0.2103  0.0663
   67CHL1  H24A 7427   7.133   4.685   9.512 -2.4700  0.3370  0.4709
   67CHL1  H24B 7428   7.168   4.517   9.589  1.1290 -1.5589 -1.4271
   67CHL1   C25 7429   7.232   4.522   9.397 -0.0442 -0.8263  0.0108
   67CHL1   H25 7430   7.214   4.412   9.398 -2.3471 -0.4982  1.1747
   67CHL1   C26 7431   7.195   4.573   9.246  0.0558 -0.4942 -0.4890
   67CHL1  H26A 7432   7.249   4.510   9.172  0.1557 -0.9437 -0.0396
   67CHL1  H26B 7433   7.085   4.563   9.239 -0.1605  1.1793  0.0671
   67CHL1  H26C 7434   7.216   4.682   9.246 -3.6169  0.3747 -2.7136
   67CHL1   C27 7435   7.373   4.567   9.435  0.1097 -0.3702 -1.1146
   67CHL1  H27A 7436   7.399   4.522   9.534  1.6252  1.2145 -0.7281
   67CHL1  H27B 7437   7.451   4.524   9.368 -1.1191 -3.7131 -0.6125
   67CHL1  H27C 7438   7.370   4.677   9.443 -2.6711 -0.4465 -0.2093
   68CHL1    C3 7439   3.437   5.382  10.446  0.1048 -0.0629 -0.0293
   68CHL1    H3 7440   3.541   5.420  10.451 -0.3903  1.3217  0.2828
   68CHL1    O3 7441   3.386   5.340  10.570 -0.1639 -0.5690 -0.2070
   68CHL1   H3' 7442   3.377   5.420  10.622 -1.1682 -2.3115  2.5263
   68CHL1    C4 7443   3.349   5.498  10.397 -0.0638  0.1314  0.1095
   68CHL1   H4A 7444   3.244   5.462  10.394  0.6858 -2.3054  1.0260
   68CHL1   H4B 7445   3.352   5.577  10.476 -2.5862  0.8901 -0.4432
   68CHL1    C5 7446   3.384   5.559  10.266 -0.1696  0.5531  0.6798
   68CHL1    C6 7447   3.412   5.690  10.243  0.1933  0.1212 -0.6646
   68CHL1    H6 7448   3.410   5.757  10.331  1.5528 -1.0281  0.2812
   68CHL1    C7 7449   3.445   5.751  10.107  0.6742 -0.2972 -0.9365
   68CHL1   H7A 7450   3.375   5.833  10.080 -0.8532 -1.3027 -0.1405
   68CHL1   H7B 7451   3.554   5.768  10.095  0.6595  1.2053  0.6277
   68CHL1    C8 7452   3.411   5.652   9.998  0.0441 -0.6699 -0.7912
   68CHL1    H8 7453   3.300   5.654   9.996  0.0552  0.1555 -1.2919
   68CHL1   C14 7454   3.461   5.704   9.865  0.9124 -0.0758  0.0658
   68CHL1   H14 7455   3.570   5.718   9.881  0.5718  1.1992  1.4867
   68CHL1   C15 7456   3.418   5.838   9.808  0.2624  0.5628  0.4839
   68CHL1  H15A 7457   3.310   5.852   9.788  0.6459  1.9807 -0.7256
   68CHL1  H15B 7458   3.454   5.927   9.864 -1.9934  1.3952  0.6888
   68CHL1   C16 7459   3.488   5.837   9.670  0.1485 -0.2301 -0.7769
   68CHL1  H16A 7460   3.428   5.899   9.600  0.6196  0.4544 -0.5860
   68CHL1  H16B 7461   3.586   5.889   9.677 -2.2486  4.7104  1.4581
   68CHL1   C17 7462   3.513   5.693   9.633 -0.4771 -0.1252 -0.2848
   68CHL1   H17 7463   3.622   5.670   9.633 -0.0088  1.7875 -1.9703
   68CHL1   C13 7464   3.463   5.599   9.751  0.0034  0.2702 -0.3763
   68CHL1   C18 7465   3.312   5.563   9.726  0.3347  0.2481  0.9151
   68CHL1  H18A 7466   3.306   5.470   9.665  2.1592  0.8913 -0.3095
   68CHL1  H18B 7467   3.250   5.545   9.817 -2.6176  0.5394 -0.9271
   68CHL1  H18C 7468   3.260   5.649   9.678 -0.0909 -0.1525  0.6541
   68CHL1   C12 7469   3.557   5.481   9.797  0.3649  0.1217  0.0675
   68CHL1  H12A 7470   3.577   5.407   9.716  2.5228  0.1676  0.4973
   68CHL1  H12B 7471   3.656   5.529   9.816  2.0887 -1.7218 -3.2852
   68CHL1   C11 7472   3.498   5.414   9.919  0.3841 -0.5343 -0.1848
   68CHL1  H11A 7473   3.407   5.354   9.897  0.8011 -1.6946  1.1188
   68CHL1  H11B 7474   3.576   5.344   9.955  0.1954  0.2526  1.9305
   68CHL1    C9 7475   3.474   5.512  10.037  0.6853 -1.0079  0.1855
   68CHL1    H9 7476   3.579   5.538  10.064 -0.2046  3.0486  0.4142
   68CHL1   C10 7477   3.404   5.452  10.156  0.1127  0.9460 -0.6347
   68CHL1   C19 7478   3.262   5.410  10.118  0.6884  0.1381 -0.4256
   68CHL1  H19A 7479   3.196   5.493  10.085  0.7985  0.3531 -0.1097
   68CHL1  H19B 7480   3.267   5.331  10.040  0.6556  0.8321 -1.1516
   68CHL1  H19C 7481   3.211   5.373  10.209  2.8287  0.9138  1.1713
   68CHL1    C1 7482   3.480   5.329  10.203  0.3854  0.3222  0.1282
   68CHL1   H1A 7483   3.487   5.248  10.128  1.2564  1.4264 -1.0277
   68CHL1   H1B 7484   3.590   5.348  10.211  0.2706  0.5587  1.3796
   68CHL1    C2 7485   3.433   5.274  10.340 -0.2116  0.5628  0.4777
   68CHL1   H2A 7486   3.480   5.176  10.361  0.6202  0.8488 -0.0165
   68CHL1   H2B 7487   3.328   5.241  10.322 -0.2482  0.0618  1.5665
   68CHL1   C20 7488   3.476   5.662   9.488  0.5624 -0.2965  0.6226
   68CHL1   H20 7489   3.365   5.663   9.479  0.6253  2.1210 -0.8495
   68CHL1   C21 7490   3.512   5.521   9.456  0.4052 -0.4672  0.5804
   68CHL1  H21A 7491   3.473   5.445   9.528  0.3940 -2.6273 -1.5943
   68CHL1  H21B 7492   3.622   5.505   9.463  0.3789 -2.3522 -1.9690
   68CHL1  H21C 7493   3.481   5.490   9.354 -1.6865 -1.9656  1.5883
   68CHL1   C22 7494   3.534   5.758   9.376 -0.3506 -0.1209 -0.3292
   68CHL1  H22A 7495   3.493   5.726   9.278 -0.6847  0.4528 -0.3803
   68CHL1  H22B 7496   3.498   5.861   9.395  3.3949  1.0390  1.4092
   68CHL1   C23 7497   3.686   5.775   9.372 -0.1207  0.1406  0.0526
   68CHL1  H23A 7498   3.711   5.845   9.455 -0.9082 -0.0758  0.4797
   68CHL1  H23B 7499   3.756   5.690   9.388  0.4775  0.8121  1.1667
   68CHL1   C24 7500   3.734   5.833   9.233  0.5273 -0.6961 -0.2534
   68CHL1  H24A 7501   3.845   5.824   9.228  0.3354 -2.8452 -2.4115
   68CHL1  H24B 7502   3.686   5.767   9.158 -1.6369 -1.1314  1.3966
   68CHL1   C25 7503   3.698   5.980   9.201  0.0901  0.7994 -0.9006
   68CHL1   H25 7504   3.594   5.993   9.237  0.4818 -2.1114  1.7046
   68CHL1   C26 7505   3.784   6.091   9.265  0.3618  0.5813  0.6329
   68CHL1  H26A 7506   3.798   6.081   9.375 -0.2908 -0.8450  0.6119
   68CHL1  H26B 7507   3.883   6.079   9.218  0.4187  1.4777  0.5218
   68CHL1  H26C 7508   3.748   6.191   9.234  1.9774  1.0008  0.0634
   68CHL1   C27 7509   3.718   5.996   9.059 -0.5886  0.7064 -0.2110
   68CHL1  H27A 7510   3.712   6.101   9.024  2.2159  0.3333 -2.1367
   68CHL1  H27B 7511   3.818   5.963   9.025 -0.2434  0.8524  0.6496
   68CHL1  H27C 7512   3.637   5.947   9.001 -1.4392  0.7801  0.8816
   69CHL1    C3 7513   3.620   3.074   6.869  0.4520 -0.2859 -0.2098
   69CHL1    H3 7514   3.534   3.015   6.830  2.7228 -2.9102 -1.6144
   69CHL1    O3 7515   3.711   3.110   6.764 -0.5711 -0.7463 -0.0284
   69CHL1   H3' 7516   3.772   3.038   6.782 -0.1853 -0.2524  0.6824
   69CHL1    C4 7517   3.564   3.208   6.918  0.1714 -0.1103 -0.0952
   69CHL1   H4A 7518   3.651   3.277   6.927  1.9088 -2.3874  1.5317
   69CHL1   H4B 7519   3.510   3.256   6.833  0.9326  0.2386 -0.3900
   69CHL1    C5 7520   3.482   3.210   7.045  0.2252  0.1984  0.1191
   69CHL1    C6 7521   3.365   3.274   7.049 -0.3509 -0.1675 -0.0851
   69CHL1    H6 7522   3.328   3.333   6.964 -0.0750  0.2008  0.0471
   69CHL1    C7 7523   3.275   3.275   7.164 -0.3324  0.1833  0.3821
   69CHL1   H7A 7524   3.248   3.380   7.186 -0.2034  0.1767  0.5745
   69CHL1   H7B 7525   3.184   3.219   7.134  1.3812 -2.1851 -0.7203
   69CHL1    C8 7526   3.332   3.208   7.292 -1.0627 -0.4725  0.0534
   69CHL1    H8 7527   3.391   3.294   7.330  0.4481  0.2986 -3.5905
   69CHL1   C14 7528   3.218   3.162   7.381 -0.6905  0.2275 -0.3171
   69CHL1   H14 7529   3.178   3.072   7.330  0.0906  0.1263 -0.7613
   69CHL1   C15 7530   3.101   3.256   7.403  0.1560  0.5216  0.1350
   69CHL1  H15A 7531   3.126   3.364   7.397 -0.0558  0.6197  0.8481
   69CHL1  H15B 7532   3.023   3.243   7.325  1.0982  1.9541 -1.0918
   69CHL1   C16 7533   3.040   3.211   7.546 -0.2670  0.2340 -0.7313
   69CHL1  H16A 7534   3.057   3.299   7.612  1.0612 -0.0654 -0.6432
   69CHL1  H16B 7535   2.930   3.199   7.533 -0.3309 -2.0523  1.2449
   69CHL1   C17 7536   3.126   3.087   7.588  0.4017 -0.5213  0.2310
   69CHL1   H17 7537   3.081   3.001   7.535 -1.2280 -0.3301  1.2525
   69CHL1   C13 7538   3.264   3.110   7.517 -0.3660  0.4806 -0.3619
   69CHL1   C18 7539   3.327   3.229   7.594  0.4896 -0.4848  0.1317
   69CHL1  H18A 7540   3.422   3.256   7.543  0.5000  0.2744  0.5346
   69CHL1  H18B 7541   3.263   3.320   7.602  0.5686 -0.4463  0.3347
   69CHL1  H18C 7542   3.364   3.194   7.692  0.6683 -2.8181 -0.6962
   69CHL1   C12 7543   3.358   2.992   7.498  0.5745 -0.0105 -0.5334
   69CHL1  H12A 7544   3.408   2.945   7.586  1.8069  0.8375 -0.7463
   69CHL1  H12B 7545   3.293   2.911   7.459 -0.4790  0.8127 -0.5359
   69CHL1   C11 7546   3.473   3.008   7.398  1.0880 -0.5016 -0.6229
   69CHL1  H11A 7547   3.539   3.082   7.447  2.1673 -1.3055 -0.8245
   69CHL1  H11B 7548   3.528   2.916   7.369  0.7228 -0.6779 -0.7530
   69CHL1    C9 7549   3.423   3.080   7.263  0.3843 -0.0921  0.5947
   69CHL1    H9 7550   3.348   3.012   7.216 -1.2783  1.4182  0.9549
   69CHL1   C10 7551   3.538   3.115   7.155  0.8287 -0.2360 -0.2826
   69CHL1   C19 7552   3.653   3.194   7.227 -0.8280  0.9413 -0.1069
   69CHL1  H19A 7553   3.700   3.262   7.152  0.5123  2.4501  2.0141
   69CHL1  H19B 7554   3.596   3.257   7.298 -3.9192 -2.9056  1.2416
   69CHL1  H19C 7555   3.731   3.133   7.278 -1.2726 -1.1626 -1.7685
   69CHL1    C1 7556   3.595   2.982   7.099  0.1983  0.3082 -0.3839
   69CHL1   H1A 7557   3.676   2.955   7.170  1.0609  1.5124 -0.8787
   69CHL1   H1B 7558   3.519   2.900   7.093  0.2062  0.2306  0.4606
   69CHL1    C2 7559   3.690   2.992   6.974 -0.1071  0.3648 -0.0514
   69CHL1   H2A 7560   3.725   2.888   6.954 -1.0149  0.0587 -0.1400
   69CHL1   H2B 7561   3.779   3.049   7.008  1.4315 -2.1218  0.3542
   69CHL1   C20 7562   3.129   3.059   7.740  0.4857 -0.7202 -0.5019
   69CHL1   H20 7563   3.216   3.109   7.787  0.3009 -1.0522  0.2049
   69CHL1   C21 7564   3.157   2.915   7.752 -0.7477 -0.1257 -0.1742
   69CHL1  H21A 7565   3.076   2.862   7.697 -0.3223  0.3811 -1.3386
   69CHL1  H21B 7566   3.157   2.866   7.851  1.8017  0.7460  0.3480
   69CHL1  H21C 7567   3.253   2.881   7.707 -0.3714  0.0915  0.4608
   69CHL1   C22 7568   3.001   3.102   7.814  0.5805  0.5837 -0.1376
   69CHL1  H22A 7569   2.970   3.208   7.805  0.5769  0.3881 -3.3434
   69CHL1  H22B 7570   2.926   3.041   7.759  0.1495  0.8638  0.1275
   69CHL1   C23 7571   2.999   3.070   7.964 -0.3712 -0.6410 -0.6524
   69CHL1  H23A 7572   3.022   2.963   7.983 -1.0741 -0.4628  1.3827
   69CHL1  H23B 7573   3.072   3.132   8.020 -2.2747 -0.1623  1.4551
   69CHL1   C24 7574   2.864   3.114   8.033 -0.5185  0.1875  0.1289
   69CHL1  H24A 7575   2.855   3.224   8.015  2.0454  0.1774 -1.9492
   69CHL1  H24B 7576   2.783   3.057   7.983 -0.3764 -0.2547  0.3986
   69CHL1   C25 7577   2.856   3.102   8.187  0.5078  0.4905 -0.5151
   69CHL1   H25 7578   2.955   3.137   8.223  0.2644  0.2678  0.3827
   69CHL1   C26 7579   2.753   3.195   8.254 -0.6392 -0.0620 -0.0834
   69CHL1  H26A 7580   2.651   3.167   8.220 -0.4640  0.0008 -0.6656
   69CHL1  H26B 7581   2.742   3.181   8.364 -3.3359  1.7693 -0.0331
   69CHL1  H26C 7582   2.780   3.298   8.222  0.3966 -0.3277 -0.0940
   69CHL1   C27 7583   2.833   2.958   8.237  0.0347  0.4614 -0.3025
   69CHL1  H27A 7584   2.875   2.946   8.339 -3.7116  1.5569  1.5788
   69CHL1  H27B 7585   2.726   2.934   8.254  0.2658 -0.3940 -0.0116
   69CHL1  H27C 7586   2.879   2.878   8.176  0.1736  1.2054 -1.2083
   70CHL1    C3 7587   2.545   0.576   7.210 -0.1065  1.0712 -0.4371
   70CHL1    H3 7588   2.651   0.597   7.232  0.4602 -3.0075  1.6594
   70CHL1    O3 7589   2.515   0.590   7.073  0.5528  0.2323 -0.1092
   70CHL1   H3' 7590   2.574   0.530   7.027  0.4814  1.4755 -1.9288
   70CHL1    C4 7591   2.530   0.430   7.258  0.0565 -0.1467 -0.6435
   70CHL1   H4A 7592   2.422   0.408   7.249  0.1661 -0.7080 -0.6123
   70CHL1   H4B 7593   2.586   0.362   7.190  0.4097 -1.4913  0.9136
   70CHL1    C5 7594   2.572   0.411   7.405  0.2572 -0.9294 -0.0061
   70CHL1    C6 7595   2.671   0.327   7.446  0.8382  0.7707 -0.4131
   70CHL1    H6 7596   2.716   0.256   7.376 -0.4380 -1.5033  0.9551
   70CHL1    C7 7597   2.723   0.316   7.589  0.2427 -0.2186 -0.3781
   70CHL1   H7A 7598   2.730   0.209   7.617  2.6380  0.3239  1.3800
   70CHL1   H7B 7599   2.824   0.360   7.587  0.0301  0.2732 -2.6474
   70CHL1    C8 7600   2.634   0.392   7.689  0.0706 -0.7232 -0.2354
   70CHL1    H8 7601   2.550   0.320   7.705  1.1281 -1.8948  0.2666
   70CHL1   C14 7602   2.689   0.421   7.833 -0.6501 -0.2085  0.3344
   70CHL1   H14 7603   2.778   0.486   7.818 -0.5671 -0.3171  0.3514
   70CHL1   C15 7604   2.751   0.302   7.906  0.4249 -0.1407 -0.2752
   70CHL1  H15A 7605   2.697   0.206   7.892  0.3580 -0.0113 -0.9113
   70CHL1  H15B 7606   2.849   0.295   7.854 -0.5256 -0.2999 -2.1089
   70CHL1   C16 7607   2.766   0.352   8.050  0.3289 -0.0555  0.7284
   70CHL1  H16A 7608   2.716   0.272   8.107 -0.2769  0.0659  0.3749
   70CHL1  H16B 7609   2.865   0.369   8.098 -0.4375 -0.2857  2.4335
   70CHL1   C17 7610   2.685   0.485   8.067  0.1112  0.8222 -0.0790
   70CHL1   H17 7611   2.749   0.575   8.064 -1.4075  1.9768  0.8246
   70CHL1   C13 7612   2.596   0.482   7.944  0.7082 -0.1733 -0.2795
   70CHL1   C18 7613   2.481   0.388   7.978  0.2130  0.7947 -0.3429
   70CHL1  H18A 7614   2.395   0.447   8.015 -0.5296 -0.2678 -0.3261
   70CHL1  H18B 7615   2.447   0.334   7.887  1.5931  0.6330 -0.7888
   70CHL1  H18C 7616   2.510   0.301   8.041  1.6017 -1.1139 -3.3698
   70CHL1   C12 7617   2.553   0.621   7.884 -0.1076 -0.2792 -0.1240
   70CHL1  H12A 7618   2.476   0.672   7.945 -3.8584  1.0176 -5.2083
   70CHL1  H12B 7619   2.643   0.684   7.867  0.2027 -0.3829  1.0473
   70CHL1   C11 7620   2.494   0.598   7.750  0.0441 -0.3176 -0.0759
   70CHL1  H11A 7621   2.397   0.548   7.773 -0.3590  0.2452 -0.5147
   70CHL1  H11B 7622   2.456   0.697   7.715  1.4415  0.2724  0.0085
   70CHL1    C9 7623   2.581   0.527   7.639  0.2481 -0.1417 -1.1505
   70CHL1    H9 7624   2.668   0.593   7.623  0.5694 -0.3188 -0.1968
   70CHL1   C10 7625   2.509   0.517   7.500  0.8424 -0.3196 -0.4022
   70CHL1   C19 7626   2.367   0.463   7.520  0.4484  0.5984  0.2429
   70CHL1  H19A 7627   2.313   0.448   7.424 -0.1351 -0.5421  0.7469
   70CHL1  H19B 7628   2.359   0.373   7.584 -0.2873 -3.0740 -4.4642
   70CHL1  H19C 7629   2.311   0.537   7.581  0.4508 -0.2062  1.2267
   70CHL1    C1 7630   2.498   0.661   7.442  0.6336 -0.7818  0.2659
   70CHL1   H1A 7631   2.425   0.724   7.496  0.0461  0.7445 -2.1654
   70CHL1   H1B 7632   2.597   0.709   7.425  0.1799 -1.0548 -4.7933
   70CHL1    C2 7633   2.450   0.668   7.304  0.3505  0.5251 -0.1641
   70CHL1   H2A 7634   2.457   0.770   7.261 -0.4844  0.7818  0.2947
   70CHL1   H2B 7635   2.348   0.625   7.308  1.1380 -1.4576 -0.2799
   70CHL1   C20 7636   2.629   0.505   8.210  0.3960  0.6083  0.0031
   70CHL1   H20 7637   2.559   0.422   8.233  0.4906  0.1338 -1.3412
   70CHL1   C21 7638   2.543   0.635   8.224  0.7046  0.1554  0.0328
   70CHL1  H21A 7639   2.454   0.637   8.157 -0.2840  1.4632  1.3212
   70CHL1  H21B 7640   2.600   0.729   8.208  1.8825 -0.3384  1.1008
   70CHL1  H21C 7641   2.512   0.649   8.330 -0.5875  2.5192 -0.5933
   70CHL1   C22 7642   2.746   0.496   8.320 -0.1527 -0.0077 -0.2329
   70CHL1  H22A 7643   2.806   0.406   8.296  3.0736  1.9463 -0.0871
   70CHL1  H22B 7644   2.806   0.590   8.317 -0.3258  0.1616  1.0587
   70CHL1   C23 7645   2.697   0.473   8.462  0.6765  0.2525  0.8866
   70CHL1  H23A 7646   2.629   0.553   8.497 -0.3023 -0.4361  0.6075
   70CHL1  H23B 7647   2.642   0.377   8.451 -1.5990  1.4522  1.3787
   70CHL1   C24 7648   2.812   0.444   8.557 -0.3788  0.5063  0.4994
   70CHL1  H24A 7649   2.867   0.360   8.510 -1.9265 -1.4476  2.0186
   70CHL1  H24B 7650   2.880   0.532   8.560  0.1935  0.2942 -2.9014
   70CHL1   C25 7651   2.762   0.408   8.699  0.4229  0.3521  0.3049
   70CHL1   H25 7652   2.699   0.317   8.699  0.6950  0.1191 -1.5273
   70CHL1   C26 7653   2.881   0.379   8.783 -0.0016  0.0968  0.1509
   70CHL1  H26A 7654   2.945   0.298   8.741 -0.8614 -0.5793  0.1167
   70CHL1  H26B 7655   2.948   0.466   8.795  1.9275 -1.2743 -0.2259
   70CHL1  H26C 7656   2.849   0.363   8.889  0.9832  1.5023  0.6923
   70CHL1   C27 7657   2.692   0.525   8.775 -0.2768 -0.6291  0.3438
   70CHL1  H27A 7658   2.647   0.486   8.869  0.4834  0.6180  1.2508
   70CHL1  H27B 7659   2.762   0.609   8.792 -0.7051 -0.4000  1.0167
   70CHL1  H27C 7660   2.610   0.569   8.715 -0.6158 -0.5011  0.8876
   71CHL1    C3 7661   3.425   3.897   7.039  0.5657 -0.0250 -0.0524
   71CHL1    H3 7662   3.415   3.988   7.102 -0.1452 -1.3377  1.8352
   71CHL1    O3 7663   3.413   3.924   6.896  0.8928 -0.0671 -0.3916
   71CHL1   H3' 7664   3.429   3.842   6.849  0.7832  1.4897 -3.3819
   71CHL1    C4 7665   3.568   3.845   7.083 -0.4489 -0.3753  0.3498
   71CHL1   H4A 7666   3.595   3.752   7.029 -2.3049 -0.8689  0.2290
   71CHL1   H4B 7667   3.637   3.921   7.039  0.8390 -1.5529  0.2916
   71CHL1    C5 7668   3.579   3.846   7.232  0.1947 -0.0758 -0.0673
   71CHL1    C6 7669   3.675   3.914   7.306  0.4332 -0.5467 -0.9713
   71CHL1    H6 7670   3.756   3.971   7.258  0.7424 -1.7523 -1.9179
   71CHL1    C7 7671   3.696   3.902   7.455  0.8611  0.2134 -0.2344
   71CHL1   H7A 7672   3.801   3.872   7.471  0.7465  0.7199  1.6749
   71CHL1   H7B 7673   3.674   3.997   7.507 -0.9182  0.6529 -1.6652
   71CHL1    C8 7674   3.604   3.793   7.523 -0.0068  0.0844  0.1426
   71CHL1    H8 7675   3.660   3.697   7.516  0.6376  0.4918 -0.4059
   71CHL1   C14 7676   3.588   3.831   7.671 -0.0932  0.6918 -0.2569
   71CHL1   H14 7677   3.524   3.921   7.674 -2.5912 -0.8093 -3.1661
   71CHL1   C15 7678   3.717   3.852   7.749  0.3270 -0.4309 -0.3491
   71CHL1  H15A 7679   3.798   3.780   7.724  2.5974  0.6040  3.1243
   71CHL1  H15B 7680   3.755   3.956   7.738 -1.5688  0.2045 -1.3698
   71CHL1   C16 7681   3.677   3.836   7.899  0.6883 -0.8809 -0.4129
   71CHL1  H16A 7682   3.754   3.771   7.946  0.5586 -1.2171 -0.6601
   71CHL1  H16B 7683   3.663   3.932   7.952 -2.2698 -1.7872  0.6620
   71CHL1   C17 7684   3.530   3.771   7.890 -0.1221  1.1413 -0.5756
   71CHL1   H17 7685   3.458   3.855   7.901 -1.5775 -0.0777 -0.5583
   71CHL1   C13 7686   3.515   3.721   7.747  0.4224  0.2292 -0.6469
   71CHL1   C18 7687   3.588   3.584   7.737  0.3320 -0.9749  0.4859
   71CHL1  H18A 7688   3.533   3.510   7.801 -1.1958 -1.2296 -1.0508
   71CHL1  H18B 7689   3.581   3.540   7.636  1.7526 -2.0955  0.8479
   71CHL1  H18C 7690   3.693   3.588   7.773 -0.2242 -0.4207  2.1547
   71CHL1   C12 7691   3.378   3.704   7.684  0.5129 -0.0119 -0.1183
   71CHL1  H12A 7692   3.338   3.614   7.735  2.1099 -0.6079  0.1505
   71CHL1  H12B 7693   3.306   3.789   7.681  0.1799 -0.3120 -1.8568
   71CHL1   C11 7694   3.383   3.676   7.533  0.0465  0.3963  0.2669
   71CHL1  H11A 7695   3.424   3.575   7.514 -0.8101  0.5261 -2.9005
   71CHL1  H11B 7696   3.280   3.682   7.490 -0.3952  0.5181  1.3124
   71CHL1    C9 7697   3.470   3.778   7.458  0.3662  0.0561 -0.0029
   71CHL1    H9 7698   3.424   3.878   7.474  0.2837 -0.1446  1.0817
   71CHL1   C10 7699   3.470   3.758   7.302 -0.0349  0.3402 -0.6944
   71CHL1   C19 7700   3.505   3.616   7.258  0.0225  0.6237 -0.0005
   71CHL1  H19A 7701   3.415   3.551   7.269  0.7736 -0.6850 -1.2633
   71CHL1  H19B 7702   3.526   3.604   7.150 -4.2738 -1.4217 -0.8120
   71CHL1  H19C 7703   3.581   3.568   7.323  0.0215 -0.5053 -0.8104
   71CHL1    C1 7704   3.330   3.794   7.244  0.1623  0.1988  0.3338
   71CHL1   H1A 7705   3.256   3.724   7.289  0.8827  1.8796  4.5779
   71CHL1   H1B 7706   3.303   3.892   7.287  2.9261  0.2288  2.2701
   71CHL1    C2 7707   3.319   3.799   7.089 -0.3019  0.1724 -0.1017
   71CHL1   H2A 7708   3.218   3.833   7.058  0.9472  3.3329 -0.9896
   71CHL1   H2B 7709   3.326   3.693   7.054 -1.1785  0.0715 -0.0104
   71CHL1   C20 7710   3.513   3.671   8.007 -0.3803 -0.5252  0.6038
   71CHL1   H20 7711   3.579   3.584   7.988  2.2152  1.6842 -1.1543
   71CHL1   C21 7712   3.368   3.631   8.009  1.0530  0.0445 -0.0253
   71CHL1  H21A 7713   3.306   3.723   8.007  1.6851  0.4560 -0.6117
   71CHL1  H21B 7714   3.349   3.573   8.102 -0.9324 -0.9875 -0.9961
   71CHL1  H21C 7715   3.339   3.558   7.931 -1.3216 -0.4622  1.2220
   71CHL1   C22 7716   3.535   3.727   8.149 -0.8567 -0.0496 -0.0048
   71CHL1  H22A 7717   3.507   3.649   8.223 -0.1273 -0.1386  0.1879
   71CHL1  H22B 7718   3.638   3.744   8.187 -0.6948 -2.1295  0.5872
   71CHL1   C23 7719   3.470   3.863   8.176  0.2630 -0.6151  0.1064
   71CHL1  H23A 7720   3.482   3.946   8.103 -0.4208  0.4128  1.1388
   71CHL1  H23B 7721   3.362   3.840   8.178  0.3867 -1.1941  2.0710
   71CHL1   C24 7722   3.504   3.933   8.314 -0.1745  0.3084  0.1739
   71CHL1  H24A 7723   3.612   3.960   8.319  0.0225 -0.0452 -1.4289
   71CHL1  H24B 7724   3.442   4.025   8.306 -1.0478 -0.3907 -1.7790
   71CHL1   C25 7725   3.468   3.854   8.443 -0.5055 -0.4153  0.3771
   71CHL1   H25 7726   3.515   3.753   8.435 -0.4069 -0.6036  2.6224
   71CHL1   C26 7727   3.529   3.930   8.560  0.4514  0.4317 -0.0771
   71CHL1  H26A 7728   3.454   4.004   8.595  0.5065  1.0653 -1.2518
   71CHL1  H26B 7729   3.537   3.861   8.647 -1.1238 -1.2885 -1.2408
   71CHL1  H26C 7730   3.623   3.984   8.534  0.4472 -0.7029 -2.7884
   71CHL1   C27 7731   3.317   3.841   8.466  0.7210 -0.5351 -0.4895
   71CHL1  H27A 7732   3.294   3.813   8.570  0.7136 -1.8228 -0.8240
   71CHL1  H27B 7733   3.278   3.945   8.461 -1.5349 -1.3681 -2.5889
   71CHL1  H27C 7734   3.261   3.776   8.395 -1.5211  1.3771 -0.6227
   72CHL1    C3 7735   3.678   1.919   7.182  0.4448 -0.9353 -0.2490
   72CHL1    H3 7736   3.579   1.874   7.166 -0.7947  0.3007  3.0043
   72CHL1    O3 7737   3.740   1.962   7.057  1.0314  0.0898 -0.5880
   72CHL1   H3' 7738   3.755   2.055   7.074 -1.0727  0.1659  1.4559
   72CHL1    C4 7739   3.663   2.041   7.282 -0.2506 -0.4617  0.0763
   72CHL1   H4A 7740   3.759   2.097   7.291 -0.5852  0.3513 -1.1655
   72CHL1   H4B 7741   3.585   2.101   7.230 -0.2593 -0.2628  0.3163
   72CHL1    C5 7742   3.615   2.024   7.421  0.2394 -0.0843 -0.3000
   72CHL1    C6 7743   3.518   2.082   7.480 -0.6466  0.2588 -0.1036
   72CHL1    H6 7744   3.471   2.162   7.420  1.9632 -0.0395 -2.7481
   72CHL1    C7 7745   3.474   2.069   7.623  0.3630 -0.2485 -0.2689
   72CHL1   H7A 7746   3.450   2.170   7.663 -0.4749  0.3099 -2.0777
   72CHL1   H7B 7747   3.375   2.020   7.623  1.5715 -2.9176 -0.0945
   72CHL1    C8 7748   3.577   1.989   7.705 -0.4992  0.1441 -0.3332
   72CHL1    H8 7749   3.668   2.048   7.724 -1.9880  2.0808  1.1919
   72CHL1   C14 7750   3.509   1.946   7.833 -0.5461  0.4106  0.2148
   72CHL1   H14 7751   3.424   1.882   7.802 -0.6641 -0.0767  1.5201
   72CHL1   C15 7752   3.454   2.052   7.932  0.5446  0.1720  0.0961
   72CHL1  H15A 7753   3.530   2.132   7.946  0.0105  0.4379  1.6967
   72CHL1  H15B 7754   3.355   2.087   7.895 -0.8294  0.5498  3.7641
   72CHL1   C16 7755   3.433   1.984   8.063 -0.0467 -0.4592 -0.2719
   72CHL1  H16A 7756   3.482   2.046   8.141  0.9144 -0.8964 -0.5114
   72CHL1  H16B 7757   3.330   1.959   8.097 -0.0009 -2.7364 -1.6431
   72CHL1   C17 7758   3.517   1.855   8.048  0.1004  0.0251  0.4207
   72CHL1   H17 7759   3.442   1.778   8.021  0.6074 -0.0131 -0.9313
   72CHL1   C13 7760   3.607   1.868   7.925  0.4026  0.5265 -0.1610
   72CHL1   C18 7761   3.730   1.950   7.977  0.6464  0.1050  0.3682
   72CHL1  H18A 7762   3.787   1.983   7.888 -1.6956  1.1800 -0.8273
   72CHL1  H18B 7763   3.692   2.042   8.027 -0.3385  0.3917 -0.8323
   72CHL1  H18C 7764   3.795   1.886   8.040 -0.3414 -1.5576 -0.2415
   72CHL1   C12 7765   3.651   1.736   7.855 -0.2849 -0.5191  0.2059
   72CHL1  H12A 7766   3.715   1.671   7.918  0.2715 -0.3508 -0.1782
   72CHL1  H12B 7767   3.550   1.692   7.843 -1.6477  2.5563 -0.7310
   72CHL1   C11 7768   3.710   1.763   7.717  0.1137  0.0102  0.3176
   72CHL1  H11A 7769   3.812   1.803   7.737  0.6303 -2.0098  2.1384
   72CHL1  H11B 7770   3.723   1.663   7.670  2.9466  0.2505  0.4251
   72CHL1    C9 7771   3.624   1.865   7.626  0.0964  0.0033 -0.2408
   72CHL1    H9 7772   3.530   1.811   7.600 -0.0545  0.2704 -0.2539
   72CHL1   C10 7773   3.695   1.909   7.493 -0.0565 -0.1483 -0.2112
   72CHL1   C19 7774   3.842   1.956   7.525 -0.5408 -0.1388  0.1615
   72CHL1  H19A 7775   3.848   2.050   7.583  2.9288 -1.0029  1.4583
   72CHL1  H19B 7776   3.900   1.876   7.576 -0.3666 -1.5175 -2.0436
   72CHL1  H19C 7777   3.902   1.974   7.433  0.0332  1.8085  0.8865
   72CHL1    C1 7778   3.709   1.782   7.396  0.1693 -0.4639  0.6434
   72CHL1   H1A 7779   3.778   1.703   7.432 -0.5661 -0.9484  1.0165
   72CHL1   H1B 7780   3.609   1.735   7.380  0.7884 -1.1838 -1.3875
   72CHL1    C2 7781   3.763   1.818   7.255 -0.0181  0.7543  0.4016
   72CHL1   H2A 7782   3.763   1.724   7.196 -0.5590  0.2688  1.1564
   72CHL1   H2B 7783   3.866   1.859   7.261 -0.1013  1.0166  0.0509
   72CHL1   C20 7784   3.578   1.809   8.182 -0.4658  0.1812  0.0234
   72CHL1   H20 7785   3.658   1.879   8.215  0.7024 -1.1118  0.0054
   72CHL1   C21 7786   3.631   1.664   8.175 -0.4365  0.4047 -0.4485
   72CHL1  H21A 7787   3.728   1.657   8.122 -0.1194 -2.1286  0.3700
   72CHL1  H21B 7788   3.553   1.604   8.124 -1.0749  1.4473 -0.7236
   72CHL1  H21C 7789   3.646   1.639   8.282  1.0063  1.3019 -0.4173
   72CHL1   C22 7790   3.475   1.809   8.296 -0.3644 -0.2744  0.4244
   72CHL1  H22A 7791   3.545   1.798   8.381  0.7024 -1.3066 -0.5469
   72CHL1  H22B 7792   3.435   1.912   8.307 -1.3675 -0.4394 -1.2893
   72CHL1   C23 7793   3.366   1.705   8.291  0.2427 -0.0137 -0.2039
   72CHL1  H23A 7794   3.326   1.704   8.187 -1.9198 -1.7105  0.5557
   72CHL1  H23B 7795   3.396   1.600   8.313 -1.5116 -0.5644 -0.2642
   72CHL1   C24 7796   3.257   1.740   8.395 -0.1789  0.6069  0.5126
   72CHL1  H24A 7797   3.225   1.844   8.372  1.1125  0.6194 -1.5513
   72CHL1  H24B 7798   3.166   1.677   8.381 -1.0196  2.1141 -1.3944
   72CHL1   C25 7799   3.295   1.724   8.548 -0.0243 -0.4869 -0.1573
   72CHL1   H25 7800   3.366   1.805   8.575 -0.4953 -0.3540  0.7275
   72CHL1   C26 7801   3.175   1.734   8.649  0.1608  0.2702  0.3263
   72CHL1  H26A 7802   3.203   1.707   8.752 -0.3747 -2.0523 -0.0746
   72CHL1  H26B 7803   3.140   1.840   8.645  1.4650  0.7082 -0.2192
   72CHL1  H26C 7804   3.092   1.670   8.611  1.5542 -0.6440 -1.2892
   72CHL1   C27 7805   3.360   1.584   8.566 -0.4440  0.4801 -0.6359
   72CHL1  H27A 7806   3.287   1.509   8.527  0.2987  0.1301 -1.3942
   72CHL1  H27B 7807   3.459   1.587   8.515  0.9966  2.1233  2.0625
   72CHL1  H27C 7808   3.382   1.559   8.672 -1.3039  0.1158 -0.5351
   73CHL1    C3 7809   4.626   3.733   6.996  0.3386  0.1558 -0.0946
   73CHL1    H3 7810   4.698   3.811   7.030  0.6751  0.3322 -1.1850
   73CHL1    O3 7811   4.589   3.748   6.859  1.1276 -0.0578  0.5486
   73CHL1   H3' 7812   4.516   3.686   6.848 -0.1663  1.0072  2.5988
   73CHL1    C4 7813   4.678   3.595   7.025  0.3818 -0.0550  0.1633
   73CHL1   H4A 7814   4.602   3.524   6.987  0.0920  0.0649  0.5233
   73CHL1   H4B 7815   4.776   3.575   6.975 -0.8980 -2.0929 -1.7295
   73CHL1    C5 7816   4.687   3.565   7.168  0.3026 -0.1386 -0.5185
   73CHL1    C6 7817   4.805   3.543   7.231  0.2519  0.3494 -0.3891
   73CHL1    H6 7818   4.897   3.529   7.172 -1.5692 -0.4524 -3.2160
   73CHL1    C7 7819   4.826   3.516   7.375 -0.0716  0.3983  0.2612
   73CHL1   H7A 7820   4.889   3.425   7.380 -2.6268 -1.6388 -1.9823
   73CHL1   H7B 7821   4.891   3.588   7.430  2.6501  0.0888 -2.3107
   73CHL1    C8 7822   4.690   3.491   7.453 -0.2682 -0.4393  0.0458
   73CHL1    H8 7823   4.662   3.385   7.436 -0.3700 -0.3900 -0.0895
   73CHL1   C14 7824   4.700   3.499   7.606 -0.7429  0.2144 -0.6284
   73CHL1   H14 7825   4.720   3.605   7.634  0.2866 -0.5282  1.6407
   73CHL1   C15 7826   4.806   3.411   7.680  0.0096  0.3877 -0.6112
   73CHL1  H15A 7827   4.818   3.312   7.631  0.2613 -0.4730  1.1281
   73CHL1  H15B 7828   4.900   3.469   7.678 -0.8778  1.9110 -0.0338
   73CHL1   C16 7829   4.745   3.389   7.818  0.0670  0.0791 -0.0572
   73CHL1  H16A 7830   4.729   3.280   7.827  2.6858 -0.3976 -0.2515
   73CHL1  H16B 7831   4.824   3.410   7.894 -0.6875  0.0778  0.7500
   73CHL1   C17 7832   4.618   3.472   7.829 -0.4794 -0.0060  0.4365
   73CHL1   H17 7833   4.652   3.572   7.863  2.9546 -0.5306 -1.0678
   73CHL1   C13 7834   4.564   3.473   7.687  0.4151  0.3765  1.0145
   73CHL1   C18 7835   4.507   3.341   7.660  0.6681 -0.3054  0.5852
   73CHL1  H18A 7836   4.571   3.260   7.699 -1.0902 -0.8444  2.5735
   73CHL1  H18B 7837   4.407   3.336   7.709  0.3822  1.1223  0.1929
   73CHL1  H18C 7838   4.501   3.325   7.550 -4.6011  0.5231  0.4752
   73CHL1   C12 7839   4.468   3.578   7.635 -0.5604 -0.6015 -0.8657
   73CHL1  H12A 7840   4.365   3.586   7.677 -0.0384  0.6018  0.2878
   73CHL1  H12B 7841   4.518   3.674   7.662  0.5011 -0.9128 -1.6757
   73CHL1   C11 7842   4.443   3.580   7.487 -0.1611  0.6682 -0.4807
   73CHL1  H11A 7843   4.391   3.488   7.455  0.0465  0.8534 -1.3765
   73CHL1  H11B 7844   4.379   3.669   7.467 -0.0156  0.9888  0.4000
   73CHL1    C9 7845   4.575   3.587   7.406 -0.2869 -0.2446  0.5860
   73CHL1    H9 7846   4.617   3.687   7.432 -1.2502  0.6804 -1.2607
   73CHL1   C10 7847   4.557   3.586   7.254  0.2017 -0.4539  0.1609
   73CHL1   C19 7848   4.461   3.462   7.224  0.1588 -0.9214 -0.0246
   73CHL1  H19A 7849   4.494   3.373   7.281 -1.0519 -1.0077  0.5908
   73CHL1  H19B 7850   4.361   3.496   7.259  0.5574  0.8465 -0.5101
   73CHL1  H19C 7851   4.451   3.453   7.114 -1.0430 -0.5152  0.0339
   73CHL1    C1 7852   4.491   3.725   7.209 -0.1557  0.1611  0.3252
   73CHL1   H1A 7853   4.384   3.721   7.239 -0.7398 -3.6075 -1.6303
   73CHL1   H1B 7854   4.543   3.807   7.264  0.8670  0.2849 -0.7808
   73CHL1    C2 7855   4.489   3.756   7.062 -0.5751  0.4779  0.0217
   73CHL1   H2A 7856   4.453   3.861   7.053 -2.1770 -0.1070 -0.7696
   73CHL1   H2B 7857   4.419   3.684   7.015  1.0496  0.4005 -2.4626
   73CHL1   C20 7858   4.527   3.424   7.943 -1.2873 -0.1100 -0.0632
   73CHL1   H20 7859   4.482   3.325   7.925  1.3437 -1.1463 -1.4869
   73CHL1   C21 7860   4.399   3.517   7.941  0.3235  0.0632 -0.1672
   73CHL1  H21A 7861   4.348   3.495   7.844  2.3424  1.0347 -1.5119
   73CHL1  H21B 7862   4.442   3.619   7.936  0.7949 -0.1259  0.0243
   73CHL1  H21C 7863   4.338   3.497   8.032  2.9491  0.8954  1.8857
   73CHL1   C22 7864   4.602   3.427   8.080  0.1786 -0.5192  0.3672
   73CHL1  H22A 7865   4.693   3.363   8.084  0.8360  0.3989  0.3114
   73CHL1  H22B 7866   4.622   3.535   8.095 -1.5225 -0.0740 -0.3844
   73CHL1   C23 7867   4.518   3.371   8.205 -0.7911  0.4704 -0.2564
   73CHL1  H23A 7868   4.421   3.425   8.211 -0.5718  0.7121  3.9316
   73CHL1  H23B 7869   4.496   3.263   8.187  0.2121  0.1931  0.0989
   73CHL1   C24 7870   4.597   3.398   8.336 -0.1014 -0.1865 -0.0993
   73CHL1  H24A 7871   4.689   3.336   8.326 -0.0760  0.0149 -1.2404
   73CHL1  H24B 7872   4.628   3.503   8.351  1.0892 -0.5232 -0.0898
   73CHL1   C25 7873   4.543   3.360   8.471 -0.1809  1.0126  1.0541
   73CHL1   H25 7874   4.530   3.250   8.474 -0.7685  1.1067  3.1314
   73CHL1   C26 7875   4.656   3.409   8.566  0.2932  0.4764  0.1276
   73CHL1  H26A 7876   4.616   3.376   8.664 -1.0103  0.8195 -0.2703
   73CHL1  H26B 7877   4.747   3.346   8.559 -0.7772 -1.1535  0.3538
   73CHL1  H26C 7878   4.674   3.519   8.562  0.3867  0.5220  1.4905
   73CHL1   C27 7879   4.405   3.420   8.499  0.4116  0.9206 -0.4610
   73CHL1  H27A 7880   4.322   3.395   8.429  0.5365 -0.5436 -0.1064
   73CHL1  H27B 7881   4.377   3.377   8.598  2.4944 -1.0459 -0.6562
   73CHL1  H27C 7882   4.417   3.528   8.522 -1.8534  0.9097  1.2075
   74CHL1    C3 7883   1.525   3.503   7.015 -0.5180 -0.0809 -0.4765
   74CHL1    H3 7884   1.517   3.393   7.029  2.4304 -0.4359 -0.7917
   74CHL1    O3 7885   1.501   3.537   6.875 -0.3834  0.4224  0.2331
   74CHL1   H3' 7886   1.516   3.632   6.876 -1.3240  0.5882  2.2387
   74CHL1    C4 7887   1.420   3.572   7.095 -0.7406  0.1832  0.4024
   74CHL1   H4A 7888   1.422   3.680   7.066 -0.7920 -0.2699 -1.4507
   74CHL1   H4B 7889   1.319   3.532   7.070 -2.2391  1.7903  3.2556
   74CHL1    C5 7890   1.444   3.567   7.249  0.3676 -0.8902  0.0212
   74CHL1    C6 7891   1.354   3.507   7.327 -0.4548 -0.0039 -0.1455
   74CHL1    H6 7892   1.261   3.467   7.282  0.1841 -1.7023 -0.0331
   74CHL1    C7 7893   1.373   3.509   7.475  0.1133 -0.1103  0.0819
   74CHL1   H7A 7894   1.278   3.550   7.516 -0.3397  0.4110 -1.4298
   74CHL1   H7B 7895   1.384   3.405   7.513  0.1035  0.6576  2.3553
   74CHL1    C8 7896   1.482   3.602   7.530 -0.5503  0.5296  0.7304
   74CHL1    H8 7897   1.443   3.705   7.526 -0.2860  0.6057  0.0551
   74CHL1   C14 7898   1.523   3.570   7.671 -0.0046  0.8308 -0.1634
   74CHL1   H14 7899   1.567   3.469   7.658  0.6646  1.1559 -0.4142
   74CHL1   C15 7900   1.415   3.529   7.771 -0.0183 -0.4566 -0.3945
   74CHL1  H15A 7901   1.332   3.602   7.761  1.4487  1.4860  0.7088
   74CHL1  H15B 7902   1.364   3.431   7.766 -2.5026  0.7018  0.6459
   74CHL1   C16 7903   1.496   3.530   7.904  0.1028  0.4794 -0.4090
   74CHL1  H16A 7904   1.448   3.592   7.982 -0.6243 -1.7618  0.9823
   74CHL1  H16B 7905   1.485   3.433   7.956 -0.0475  0.8337  0.2261
   74CHL1   C17 7906   1.642   3.579   7.874 -0.4063  0.5902  0.0566
   74CHL1   H17 7907   1.702   3.487   7.855 -0.7017  0.4740 -0.3282
   74CHL1   C13 7908   1.624   3.653   7.737 -0.0303  0.0829  0.0093
   74CHL1   C18 7909   1.580   3.798   7.760  0.3045 -0.5143 -0.5924
   74CHL1  H18A 7910   1.668   3.846   7.809 -1.2875  2.5574 -0.4612
   74CHL1  H18B 7911   1.538   3.851   7.673 -1.8047  1.1789  1.3294
   74CHL1  H18C 7912   1.502   3.809   7.839  1.0974  1.5629 -0.0248
   74CHL1   C12 7913   1.755   3.646   7.654  0.1294 -0.4680 -0.1870
   74CHL1  H12A 7914   1.831   3.718   7.689  0.1933 -0.1614 -0.9335
   74CHL1  H12B 7915   1.792   3.541   7.653 -0.7675 -0.8432 -2.5660
   74CHL1   C11 7916   1.727   3.674   7.503  0.8833  1.0475 -0.1241
   74CHL1  H11A 7917   1.714   3.784   7.502 -0.4438  0.9115 -1.3873
   74CHL1  H11B 7918   1.816   3.653   7.440  0.2346  2.4024 -1.5767
   74CHL1    C9 7919   1.600   3.593   7.445 -0.5097  0.1646 -0.1401
   74CHL1    H9 7920   1.631   3.486   7.443  0.0858  0.2724  1.7281
   74CHL1   C10 7921   1.580   3.621   7.292 -0.1304  0.6645 -0.5509
   74CHL1   C19 7922   1.587   3.770   7.262  0.3237  0.6513 -0.7419
   74CHL1  H19A 7923   1.671   3.820   7.315  0.8615  0.0744 -1.0354
   74CHL1  H19B 7924   1.584   3.796   7.154 -3.2330  0.4981 -0.8183
   74CHL1  H19C 7925   1.495   3.822   7.296 -0.1444 -0.5340 -0.1273
   74CHL1    C1 7926   1.682   3.542   7.205  0.1226 -0.2485  0.4342
   74CHL1   H1A 7927   1.784   3.579   7.229 -0.0088  0.4804 -0.1121
   74CHL1   H1B 7928   1.677   3.436   7.239 -0.2053 -0.1176  0.8039
   74CHL1    C2 7929   1.665   3.548   7.055  0.2638 -0.0396 -0.6579
   74CHL1   H2A 7930   1.741   3.485   7.003  1.0595 -0.9722  1.4815
   74CHL1   H2B 7931   1.669   3.653   7.019 -0.7438  0.0809 -0.4365
   74CHL1   C20 7932   1.722   3.652   7.986 -0.3659 -0.5331 -0.5788
   74CHL1   H20 7933   1.681   3.755   7.994  2.1589  0.4421  1.0900
   74CHL1   C21 7934   1.874   3.665   7.953  0.3595 -0.0971 -0.1315
   74CHL1  H21A 7935   1.926   3.569   7.936 -0.1181 -0.4994  0.6288
   74CHL1  H21B 7936   1.931   3.721   8.030  2.4115 -0.5620 -1.2506
   74CHL1  H21C 7937   1.901   3.732   7.869 -1.0351  3.2928  1.9271
   74CHL1   C22 7938   1.705   3.582   8.121  0.7495 -0.2133 -0.0923
   74CHL1  H22A 7939   1.603   3.543   8.137  0.9597 -0.6235  0.2904
   74CHL1  H22B 7940   1.768   3.492   8.135  0.1404 -0.2732  3.0389
   74CHL1   C23 7941   1.736   3.678   8.239  0.7777 -0.3466  0.0752
   74CHL1  H23A 7942   1.840   3.716   8.237  0.2452  1.1645  0.4407
   74CHL1  H23B 7943   1.673   3.768   8.223  1.1553  0.2486  1.7084
   74CHL1   C24 7944   1.728   3.611   8.377  0.6442 -0.1428 -0.0785
   74CHL1  H24A 7945   1.664   3.521   8.365  2.2205 -1.3705  0.4112
   74CHL1  H24B 7946   1.824   3.567   8.409  1.1488  1.9712  1.5759
   74CHL1   C25 7947   1.672   3.701   8.489 -0.2597  0.0998  0.2818
   74CHL1   H25 7948   1.594   3.774   8.458 -0.4235  1.4354  3.4290
   74CHL1   C26 7949   1.609   3.615   8.602  0.4103  0.1733  0.5413
   74CHL1  H26A 7950   1.696   3.557   8.640 -0.4112 -1.4867 -0.0046
   74CHL1  H26B 7951   1.573   3.682   8.683 -0.3731  2.0222 -1.2372
   74CHL1  H26C 7952   1.526   3.546   8.578  1.7402 -0.0892 -4.4707
   74CHL1   C27 7953   1.779   3.784   8.556 -0.0519  0.4412  0.3515
   74CHL1  H27A 7954   1.728   3.819   8.648 -2.1641 -0.1456 -0.5416
   74CHL1  H27B 7955   1.860   3.712   8.581 -0.7921 -0.3878  0.3781
   74CHL1  H27C 7956   1.817   3.870   8.497 -1.7504  1.9883  1.3923
   75CHL1    C3 7957   5.957   4.121   6.925 -0.2118  0.6454 -0.1165
   75CHL1    H3 7958   6.013   4.026   6.908  1.8373  2.0343 -1.4716
   75CHL1    O3 7959   5.919   4.186   6.802  0.1150 -0.4218 -0.3288
   75CHL1   H3' 7960   6.000   4.222   6.766 -1.1408 -0.4172 -3.4156
   75CHL1    C4 7961   5.831   4.082   6.992 -0.0640 -0.4697 -0.0275
   75CHL1   H4A 7962   5.764   4.167   7.018  1.1824  0.8103 -0.8878
   75CHL1   H4B 7963   5.772   4.024   6.918 -0.1276  0.3274 -0.6222
   75CHL1    C5 7964   5.859   4.015   7.127 -0.0721  0.7711 -0.2077
   75CHL1    C6 7965   5.812   3.892   7.157  0.2262 -0.4783  0.4402
   75CHL1    H6 7966   5.743   3.844   7.085  0.2882 -1.2819  0.9160
   75CHL1    C7 7967   5.822   3.826   7.292 -0.1743 -0.0403  0.6145
   75CHL1   H7A 7968   5.725   3.796   7.338  0.6281 -0.6004  2.0183
   75CHL1   H7B 7969   5.875   3.728   7.286 -1.8858 -1.0303  0.6761
   75CHL1    C8 7970   5.874   3.921   7.393  0.1538  0.5346  0.0026
   75CHL1    H8 7971   5.788   3.985   7.423 -0.6825  0.3190 -1.8103
   75CHL1   C14 7972   5.927   3.848   7.511 -0.2562  0.4552  0.0345
   75CHL1   H14 7973   6.018   3.795   7.476 -0.4094  0.5406 -0.5017
   75CHL1   C15 7974   5.841   3.732   7.575  0.5012  0.4002 -0.0210
   75CHL1  H15A 7975   5.740   3.778   7.580  1.2671  2.4137 -1.3985
   75CHL1  H15B 7976   5.846   3.652   7.499 -1.1243  0.4416 -0.2069
   75CHL1   C16 7977   5.909   3.700   7.706  0.6532 -0.3833  0.7775
   75CHL1  H16A 7978   5.841   3.703   7.794  1.5000  1.3163  1.4216
   75CHL1  H16B 7979   5.966   3.605   7.701  1.2773 -0.0342  1.1309
   75CHL1   C17 7980   6.017   3.818   7.721 -0.0087 -0.1020 -1.4663
   75CHL1   H17 7981   6.105   3.774   7.670 -0.3410  0.9071 -2.9823
   75CHL1   C13 7982   5.987   3.932   7.620 -1.2721  0.9350 -0.4604
   75CHL1   C18 7983   5.886   4.017   7.689  0.2081 -0.6646 -0.5941
   75CHL1  H18A 7984   5.853   4.091   7.612 -0.4922 -0.3041  0.0383
   75CHL1  H18B 7985   5.792   3.971   7.727  1.1199 -1.8298  0.2751
   75CHL1  H18C 7986   5.934   4.066   7.776  1.0909 -1.7957 -0.4228
   75CHL1   C12 7987   6.108   4.008   7.563 -0.1246 -0.5944 -0.4003
   75CHL1  H12A 7988   6.144   4.070   7.649 -0.1323  0.9719 -1.4788
   75CHL1  H12B 7989   6.184   3.931   7.538  1.3085  0.2777  1.0438
   75CHL1   C11 7990   6.065   4.086   7.439 -0.3529 -0.0067 -0.8437
   75CHL1  H11A 7991   6.006   4.171   7.480 -2.4578 -2.1247  0.8272
   75CHL1  H11B 7992   6.159   4.116   7.389 -0.8982  0.6562 -1.4891
   75CHL1    C9 7993   5.986   4.009   7.333 -0.5505 -0.0045  0.2724
   75CHL1    H9 7994   6.058   3.929   7.308  0.9999  1.4274  0.0130
   75CHL1   C10 7995   5.948   4.102   7.218  0.5357  0.0343  0.1452
   75CHL1   C19 7996   5.865   4.225   7.269 -0.1082  0.3832 -0.0381
   75CHL1  H19A 7997   5.814   4.280   7.187 -1.0903  1.1882  1.0732
   75CHL1  H19B 7998   5.777   4.191   7.327  0.6291  0.4403  1.1404
   75CHL1  H19C 7999   5.931   4.295   7.325  0.4684 -1.1532  1.2890
   75CHL1    C1 8000   6.080   4.150   7.144 -0.5523 -0.4134 -0.2969
   75CHL1   H1A 8001   6.134   4.215   7.216 -1.5388 -1.7776  1.7852
   75CHL1   H1B 8002   6.136   4.058   7.117 -1.1700 -0.6480 -0.8123
   75CHL1    C2 8003   6.047   4.223   7.012 -0.1054  1.3805 -0.3708
   75CHL1   H2A 8004   6.140   4.240   6.954  1.0114 -0.6279  0.7024
   75CHL1   H2B 8005   5.997   4.318   7.039  1.8553  1.6760  2.8040
   75CHL1   C20 8006   6.049   3.852   7.865 -0.3554  0.2445 -0.3388
   75CHL1   H20 8007   6.086   3.957   7.862  0.7624 -0.1567 -2.5940
   75CHL1   C21 8008   6.161   3.759   7.901  0.2993  0.4584  0.8147
   75CHL1  H21A 8009   6.197   3.766   8.006  0.9443 -2.5062  0.8595
   75CHL1  H21B 8010   6.240   3.774   7.824  0.4525 -1.3165  0.5848
   75CHL1  H21C 8011   6.116   3.659   7.889 -1.3538  0.8627  2.9724
   75CHL1   C22 8012   5.934   3.846   7.971  0.2330  0.1382 -0.0274
   75CHL1  H22A 8013   5.837   3.883   7.932 -0.2398 -0.0933  0.9207
   75CHL1  H22B 8014   5.920   3.744   8.011 -0.6926 -0.4081 -1.6505
   75CHL1   C23 8015   5.975   3.935   8.087 -1.0011 -0.2292  0.4383
   75CHL1  H23A 8016   5.916   3.903   8.176 -0.5301 -0.3110  0.7277
   75CHL1  H23B 8017   6.081   3.917   8.116 -1.7506 -3.1629  1.7595
   75CHL1   C24 8018   5.951   4.082   8.058  0.5275 -1.0615  1.0801
   75CHL1  H24A 8019   6.033   4.111   7.989 -1.3784  0.1331 -0.8014
   75CHL1  H24B 8020   5.859   4.096   7.999  1.0278 -1.6673  0.1380
   75CHL1   C25 8021   5.950   4.165   8.188  0.4232 -0.1090  0.5984
   75CHL1   H25 8022   5.881   4.122   8.264 -0.3595  1.6123  0.9176
   75CHL1   C26 8023   6.087   4.161   8.254  0.3247  0.2392 -0.1670
   75CHL1  H26A 8024   6.118   4.059   8.287 -0.8361  0.2356  0.9860
   75CHL1  H26B 8025   6.164   4.181   8.177 -0.1833 -0.5400 -0.8948
   75CHL1  H26C 8026   6.080   4.234   8.337 -2.3225  2.3607 -2.0586
   75CHL1   C27 8027   5.903   4.310   8.169 -0.1218 -0.1143  0.2520
   75CHL1  H27A 8028   5.927   4.368   8.261 -1.8164  1.6541 -0.3452
   75CHL1  H27B 8029   5.955   4.354   8.081 -0.3328 -1.9653 -0.8561
   75CHL1  H27C 8030   5.795   4.311   8.142  0.2426  1.0697 -1.3019
   76CHL1    C3 8031   1.937   6.546   7.373 -0.1605 -0.5021  0.4841
   76CHL1    H3 8032   1.954   6.437   7.362 -1.9472 -0.9509  1.6303
   76CHL1    O3 8033   1.979   6.611   7.251  0.2640  0.3760 -0.0504
   76CHL1   H3' 8034   1.905   6.606   7.189 -1.0400 -1.0333  1.5249
   76CHL1    C4 8035   1.791   6.567   7.391  0.1299 -1.0697 -0.4566
   76CHL1   H4A 8036   1.773   6.676   7.380  1.8802 -0.7736 -0.6391
   76CHL1   H4B 8037   1.734   6.525   7.305 -0.1372  3.3030 -2.7272
   76CHL1    C5 8038   1.738   6.517   7.527 -0.7891 -0.2779 -0.0842
   76CHL1    C6 8039   1.630   6.440   7.534  0.0322 -0.3810 -0.5888
   76CHL1    H6 8040   1.569   6.411   7.448 -0.7324 -0.5520 -0.0048
   76CHL1    C7 8041   1.574   6.397   7.665  0.1631 -0.2027  0.0932
   76CHL1   H7A 8042   1.471   6.437   7.664 -0.1146 -0.8233  1.4116
   76CHL1   H7B 8043   1.570   6.286   7.668 -0.6388 -0.2571 -1.9349
   76CHL1    C8 8044   1.642   6.461   7.792 -0.0395  0.4720  0.4354
   76CHL1    H8 8045   1.599   6.563   7.793 -1.1124  0.0365  0.2296
   76CHL1   C14 8046   1.622   6.380   7.914  0.2544 -0.0686 -0.7910
   76CHL1   H14 8047   1.674   6.282   7.909 -0.3260 -0.3726 -0.8915
   76CHL1   C15 8048   1.482   6.332   7.952  0.3836 -0.6320  0.3196
   76CHL1  H15A 8049   1.412   6.416   7.932  0.0051 -0.8710  0.6319
   76CHL1  H15B 8050   1.447   6.242   7.897  1.6460 -1.5376  0.9442
   76CHL1   C16 8051   1.483   6.308   8.106  0.2836 -0.4636  0.6572
   76CHL1  H16A 8052   1.405   6.370   8.154  0.6061 -0.2521  0.9136
   76CHL1  H16B 8053   1.466   6.202   8.135 -0.1963 -0.8178 -0.8102
   76CHL1   C17 8054   1.622   6.344   8.156  0.4156 -0.2180 -0.0630
   76CHL1   H17 8055   1.675   6.250   8.132  0.8629  0.6376 -2.8914
   76CHL1   C13 8056   1.669   6.442   8.049  0.3455  0.1091 -0.1572
   76CHL1   C18 8057   1.608   6.583   8.072  0.0046 -0.4324 -0.3622
   76CHL1  H18A 8058   1.497   6.578   8.070  0.0618 -3.2403 -0.7187
   76CHL1  H18B 8059   1.645   6.609   8.173  0.1468  0.8222 -0.7140
   76CHL1  H18C 8060   1.637   6.662   7.999  0.5329  0.9412  1.2672
   76CHL1   C12 8061   1.825   6.444   8.028  0.4895 -0.2784 -0.4350
   76CHL1  H12A 8062   1.860   6.496   8.119 -1.3224 -2.0965  1.4142
   76CHL1  H12B 8063   1.860   6.338   8.022 -2.2542 -1.3502  0.7825
   76CHL1   C11 8064   1.860   6.521   7.901  0.2895 -0.4506 -0.0738
   76CHL1  H11A 8065   1.838   6.629   7.918 -0.2308 -0.4055 -0.9492
   76CHL1  H11B 8066   1.970   6.508   7.902  0.8933  3.1822 -1.5318
   76CHL1    C9 8067   1.790   6.480   7.770 -0.2324 -0.2001 -0.2825
   76CHL1    H9 8068   1.825   6.377   7.752 -2.4525 -0.7212 -2.1064
   76CHL1   C10 8069   1.824   6.565   7.647  0.2577 -0.0593 -0.8235
   76CHL1   C19 8070   1.805   6.712   7.679 -0.0806 -0.0204  0.0124
   76CHL1  H19A 8071   1.865   6.743   7.767  0.5080 -0.3281 -0.2755
   76CHL1  H19B 8072   1.847   6.780   7.602  0.8318  2.0960  2.2484
   76CHL1  H19C 8073   1.696   6.734   7.689 -0.4538 -2.1485  1.1708
   76CHL1    C1 8074   1.981   6.550   7.618  0.3639 -0.3519  0.1838
   76CHL1   H1A 8075   2.035   6.609   7.695 -4.5349  2.5369  1.8380
   76CHL1   H1B 8076   2.002   6.442   7.638 -0.1844 -0.4060  0.4876
   76CHL1    C2 8077   2.029   6.604   7.487  0.3856  0.2361  0.5026
   76CHL1   H2A 8078   2.137   6.578   7.477  0.5527  0.6206  1.2318
   76CHL1   H2B 8079   2.038   6.715   7.491  2.1695  0.2041 -0.9157
   76CHL1   C20 8080   1.634   6.373   8.306 -0.7463  0.0883 -0.1017
   76CHL1   H20 8081   1.598   6.476   8.328 -1.3549 -0.6119  2.5749
   76CHL1   C21 8082   1.786   6.367   8.349  0.1528  0.0619  0.3440
   76CHL1  H21A 8083   1.837   6.456   8.305  3.0802 -0.8730  1.5886
   76CHL1  H21B 8084   1.826   6.267   8.322 -1.0383 -0.1203 -0.8666
   76CHL1  H21C 8085   1.801   6.378   8.458 -0.1263  0.5755  0.3351
   76CHL1   C22 8086   1.539   6.284   8.396 -0.8274 -0.1309 -0.7064
   76CHL1  H22A 8087   1.437   6.281   8.353 -0.6171  1.5017 -1.3772
   76CHL1  H22B 8088   1.575   6.179   8.390 -0.2021  0.0520 -0.2337
   76CHL1   C23 8089   1.525   6.325   8.540  0.4750 -0.4418  0.5570
   76CHL1  H23A 8090   1.620   6.329   8.597 -0.1867  0.3496  1.6344
   76CHL1  H23B 8091   1.487   6.428   8.524 -0.0488 -0.9495 -1.8124
   76CHL1   C24 8092   1.439   6.230   8.624 -0.0416  0.5563 -0.3481
   76CHL1  H24A 8093   1.347   6.216   8.563  0.7407  0.5459 -1.5568
   76CHL1  H24B 8094   1.485   6.130   8.637 -0.1763  0.3643 -1.3005
   76CHL1   C25 8095   1.409   6.286   8.768  0.5286 -0.6889 -0.1009
   76CHL1   H25 8096   1.492   6.352   8.802 -0.0474  0.8849 -1.5646
   76CHL1   C26 8097   1.276   6.357   8.771  0.5851 -0.4537 -0.2511
   76CHL1  H26A 8098   1.250   6.382   8.876 -0.1703 -2.5250  0.0960
   76CHL1  H26B 8099   1.271   6.449   8.709  0.8964  0.7876  1.5128
   76CHL1  H26C 8100   1.190   6.294   8.742 -0.3887  0.7058  0.0328
   76CHL1   C27 8101   1.398   6.182   8.874 -0.7589  0.2564 -0.2039
   76CHL1  H27A 8102   1.493   6.127   8.891 -0.6400 -0.3994 -2.6498
   76CHL1  H27B 8103   1.376   6.229   8.973 -0.3071 -0.1024  0.0706
   76CHL1  H27C 8104   1.314   6.116   8.844 -0.8651  0.7607 -1.0478
   77CHL1    C3 8105   2.994   4.693   6.975  0.6107 -0.0123  0.1968
   77CHL1    H3 8106   3.054   4.600   6.966  2.6975  1.4974 -5.3638
   77CHL1    O3 8107   2.940   4.710   6.844 -0.3907 -0.0210  0.0957
   77CHL1   H3' 8108   2.877   4.638   6.838 -0.7579  0.1517  1.4084
   77CHL1    C4 8109   2.882   4.650   7.086 -0.2819 -0.3821 -0.3870
   77CHL1   H4A 8110   2.818   4.741   7.082 -0.1428 -0.3055 -0.9442
   77CHL1   H4B 8111   2.826   4.560   7.052  0.7050 -0.7253 -1.1671
   77CHL1    C5 8112   2.936   4.639   7.230 -0.4001 -1.0746  0.2345
   77CHL1    C6 8113   2.913   4.532   7.304  0.0760  0.1435 -0.5288
   77CHL1    H6 8114   2.850   4.453   7.261  0.3893 -0.7856  0.6620
   77CHL1    C7 8115   2.973   4.509   7.445  0.3698  0.4985 -0.2223
   77CHL1   H7A 8116   2.886   4.482   7.509 -1.1253  2.3727 -1.3196
   77CHL1   H7B 8117   3.040   4.422   7.433 -1.6137 -1.0602 -0.3940
   77CHL1    C8 8118   3.034   4.642   7.502  0.0926  0.0628  0.2675
   77CHL1    H8 8119   2.954   4.714   7.527  0.5919  0.3918  0.9371
   77CHL1   C14 8120   3.115   4.616   7.627  0.8241  0.5213  0.3573
   77CHL1   H14 8121   3.193   4.546   7.592  1.0355  0.3136  1.2277
   77CHL1   C15 8122   3.054   4.530   7.747  0.3856 -0.0901  0.9860
   77CHL1  H15A 8123   2.949   4.559   7.767 -1.2332 -4.0567 -0.7282
   77CHL1  H15B 8124   3.055   4.422   7.719  2.0964  0.3501 -0.8736
   77CHL1   C16 8125   3.147   4.553   7.863 -0.3663  0.0313 -0.1755
   77CHL1  H16A 8126   3.086   4.593   7.946 -0.1247 -2.3297  1.2226
   77CHL1  H16B 8127   3.195   4.468   7.915  1.4381  1.2355  0.2228
   77CHL1   C17 8128   3.253   4.662   7.815  0.0300  0.5567  0.5132
   77CHL1   H17 8129   3.329   4.599   7.763 -1.2759 -1.5790  1.0703
   77CHL1   C13 8130   3.187   4.733   7.695 -0.1808  0.1980  0.2360
   77CHL1   C18 8131   3.099   4.841   7.753  0.7026 -0.3143 -0.3033
   77CHL1  H18A 8132   3.031   4.796   7.828  2.0210 -0.3327  0.9180
   77CHL1  H18B 8133   3.168   4.908   7.809  1.4279 -0.2543 -1.2583
   77CHL1  H18C 8134   3.031   4.905   7.692  1.0217 -0.9531 -1.3586
   77CHL1   C12 8135   3.280   4.795   7.587  0.5255 -0.4918  0.1522
   77CHL1  H12A 8136   3.339   4.879   7.630  2.5931 -2.2099  0.8921
   77CHL1  H12B 8137   3.359   4.720   7.563  1.4420 -0.0410  1.5962
   77CHL1   C11 8138   3.196   4.835   7.465  0.3632 -0.0651  0.2541
   77CHL1  H11A 8139   3.126   4.915   7.497  0.3833 -0.5249  1.5299
   77CHL1  H11B 8140   3.270   4.879   7.395 -1.5241  0.0993 -1.7366
   77CHL1    C9 8141   3.119   4.716   7.391  0.0925 -0.1956 -0.2845
   77CHL1    H9 8142   3.195   4.645   7.354 -0.7479 -1.2051 -0.1191
   77CHL1   C10 8143   3.034   4.758   7.272  0.3990 -0.3474  0.0102
   77CHL1   C19 8144   2.949   4.882   7.299  0.5090  0.4929 -0.0213
   77CHL1  H19A 8145   3.015   4.964   7.332  0.5200  0.8958 -1.0228
   77CHL1  H19B 8146   2.903   4.917   7.204 -0.2076 -1.2393 -0.3619
   77CHL1  H19C 8147   2.864   4.870   7.369  0.8780 -0.3338  0.3019
   77CHL1    C1 8148   3.135   4.787   7.158  0.2848 -0.0792 -0.1182
   77CHL1   H1A 8149   3.171   4.885   7.194 -1.2880 -0.1809  1.9079
   77CHL1   H1B 8150   3.211   4.706   7.145  0.2345 -0.3285  1.0526
   77CHL1    C2 8151   3.074   4.813   7.020  0.1329  0.9190 -0.3107
   77CHL1   H2A 8152   3.155   4.853   6.956 -0.1577  0.8457 -0.7221
   77CHL1   H2B 8153   3.004   4.898   7.025 -0.9073  0.2571 -2.5247
   77CHL1   C20 8154   3.334   4.746   7.917  0.1349  0.6622 -0.0774
   77CHL1   H20 8155   3.360   4.835   7.855  0.1212 -2.0071 -4.2675
   77CHL1   C21 8156   3.472   4.674   7.949 -0.3401 -0.4478  0.0783
   77CHL1  H21A 8157   3.454   4.587   8.016  0.5247  0.8891  2.1531
   77CHL1  H21B 8158   3.527   4.750   8.009 -0.9981 -0.4659  0.7297
   77CHL1  H21C 8159   3.530   4.637   7.862 -0.4788  2.5458 -1.4342
   77CHL1   C22 8160   3.246   4.769   8.051 -0.8692  0.1537 -0.4578
   77CHL1  H22A 8161   3.138   4.780   8.025 -0.7710 -1.6392 -1.8729
   77CHL1  H22B 8162   3.256   4.671   8.101  1.1491  0.3994 -0.3263
   77CHL1   C23 8163   3.304   4.878   8.147 -0.9124  1.1086  0.4615
   77CHL1  H23A 8164   3.409   4.848   8.164 -0.9002  1.0115  0.2169
   77CHL1  H23B 8165   3.298   4.980   8.103  1.6899  1.8119  1.5340
   77CHL1   C24 8166   3.231   4.884   8.280  0.2770  0.1380  0.3947
   77CHL1  H24A 8167   3.122   4.894   8.260  0.1695 -2.1419 -0.4159
   77CHL1  H24B 8168   3.238   4.783   8.326  1.9462  0.0313 -0.0332
   77CHL1   C25 8169   3.289   4.981   8.389 -0.3792 -0.6474 -0.2146
   77CHL1   H25 8170   3.227   4.983   8.481  1.8436  0.1024  1.3671
   77CHL1   C26 8171   3.430   4.943   8.448  0.1090 -0.1852 -0.1019
   77CHL1  H26A 8172   3.514   4.955   8.376  1.2191 -0.6561  1.0802
   77CHL1  H26B 8173   3.470   4.995   8.537  0.5630  0.3798 -0.6295
   77CHL1  H26C 8174   3.425   4.835   8.476 -1.6165 -1.3461 -4.0510
   77CHL1   C27 8175   3.295   5.132   8.345 -0.3343  0.5808  0.2281
   77CHL1  H27A 8176   3.202   5.163   8.293 -0.7771 -0.0270  0.6402
   77CHL1  H27B 8177   3.308   5.196   8.434  0.7446 -0.0962  0.5758
   77CHL1  H27C 8178   3.383   5.151   8.279 -0.6793  0.7383 -0.1918
   78CHL1    C3 8179   6.580   5.120   6.857  0.5408  0.3685 -0.8001
   78CHL1    H3 8180   6.509   5.205   6.853  0.2303  0.0834 -1.6673
   78CHL1    O3 8181   6.625   5.108   6.725 -0.0813  0.4928  0.2524
   78CHL1   H3' 8182   6.615   5.194   6.684  1.6252  0.2998 -0.6318
   78CHL1    C4 8183   6.706   5.155   6.940  0.4057 -0.0666 -0.1866
   78CHL1   H4A 8184   6.793   5.093   6.909  0.6541 -0.2804  0.9101
   78CHL1   H4B 8185   6.722   5.260   6.907 -2.0067  0.7080  0.8855
   78CHL1    C5 8186   6.690   5.141   7.087  0.9530 -0.1678  0.1187
   78CHL1    C6 8187   6.706   5.254   7.159 -0.1847 -0.3394  0.3091
   78CHL1    H6 8188   6.751   5.343   7.113  1.3354 -0.8942  0.6591
   78CHL1    C7 8189   6.699   5.252   7.309 -0.9937  0.4624 -0.0791
   78CHL1   H7A 8190   6.801   5.278   7.344 -0.8781 -0.7490  0.5320
   78CHL1   H7B 8191   6.625   5.327   7.345 -1.2678 -0.9782  2.5773
   78CHL1    C8 8192   6.671   5.108   7.365  0.5103 -0.0044 -0.7905
   78CHL1    H8 8193   6.771   5.062   7.376  0.1070 -0.6418  0.3811
   78CHL1   C14 8194   6.612   5.113   7.500  0.0510 -0.0076 -0.6571
   78CHL1   H14 8195   6.509   5.154   7.493  0.4695  1.6429  1.6349
   78CHL1   C15 8196   6.684   5.202   7.604 -0.4296 -0.2892 -0.2155
   78CHL1  H15A 8197   6.793   5.184   7.587 -0.3678 -0.8797  0.7628
   78CHL1  H15B 8198   6.659   5.309   7.590 -2.1020 -0.4183  1.4751
   78CHL1   C16 8199   6.641   5.149   7.736 -0.2601  0.2957 -0.0627
   78CHL1  H16A 8200   6.734   5.131   7.795 -0.3285 -0.3749 -0.1450
   78CHL1  H16B 8201   6.588   5.230   7.791  0.9138  0.1624  1.3304
   78CHL1   C17 8202   6.547   5.028   7.707 -0.5306 -0.8317 -0.0957
   78CHL1   H17 8203   6.447   5.075   7.692  0.0073  0.1380 -0.7415
   78CHL1   C13 8204   6.590   4.978   7.566 -0.2464 -0.2259  0.9110
   78CHL1   C18 8205   6.723   4.894   7.584  0.1942  0.2777  0.5781
   78CHL1  H18A 8206   6.797   4.943   7.650  1.1290 -0.4427  0.0869
   78CHL1  H18B 8207   6.696   4.801   7.638  0.2218  1.1616  2.1668
   78CHL1  H18C 8208   6.772   4.874   7.486  0.5747  0.5804  0.7056
   78CHL1   C12 8209   6.493   4.894   7.476  0.4781 -0.5197 -1.2267
   78CHL1  H12A 8210   6.480   4.792   7.517  0.4439 -0.5002 -1.1896
   78CHL1  H12B 8211   6.391   4.936   7.482  1.7864  2.9640 -1.2306
   78CHL1   C11 8212   6.534   4.890   7.334 -0.0927 -0.4606  0.1001
   78CHL1  H11A 8213   6.624   4.825   7.335  0.0907 -0.2294 -0.5055
   78CHL1  H11B 8214   6.456   4.848   7.268  0.9630 -2.2536 -0.0561
   78CHL1    C9 8215   6.575   5.024   7.282 -0.7505 -0.2262  0.6249
   78CHL1    H9 8216   6.490   5.093   7.267 -0.7458  0.4494  3.2130
   78CHL1   C10 8217   6.627   5.009   7.130  0.1327  0.0084 -0.2902
   78CHL1   C19 8218   6.735   4.907   7.119 -0.3306  0.0082  0.0867
   78CHL1  H19A 8219   6.779   4.892   7.018  1.4785 -1.8909  1.0954
   78CHL1  H19B 8220   6.817   4.934   7.188  2.2393 -0.0810 -2.7276
   78CHL1  H19C 8221   6.690   4.808   7.142  0.4044 -0.4079 -0.2701
   78CHL1    C1 8222   6.502   4.977   7.044 -0.2962  0.4997 -0.5081
   78CHL1   H1A 8223   6.480   4.873   7.077  1.6216  1.2976  3.8133
   78CHL1   H1B 8224   6.416   5.041   7.075 -0.9988 -1.2520  1.3506
   78CHL1    C2 8225   6.522   4.988   6.894  0.3922  0.9769  0.2899
   78CHL1   H2A 8226   6.425   4.959   6.848  0.5431 -1.9329  1.5480
   78CHL1   H2B 8227   6.597   4.909   6.871  0.2726  0.7052  0.7961
   78CHL1   C20 8228   6.536   4.940   7.827 -0.4900 -0.5859 -0.5187
   78CHL1   H20 8229   6.632   4.904   7.868 -0.2478  0.0977 -0.4671
   78CHL1   C21 8230   6.456   4.817   7.786  0.2943  0.3906 -0.4489
   78CHL1  H21A 8231   6.501   4.746   7.713  2.3895 -0.2027  1.3138
   78CHL1  H21B 8232   6.368   4.853   7.729  0.6554  0.1110 -1.1872
   78CHL1  H21C 8233   6.423   4.754   7.872  1.8614  1.2521  0.8538
   78CHL1   C22 8234   6.460   5.021   7.937  0.4436  0.2970  0.2109
   78CHL1  H22A 8235   6.497   5.123   7.957  1.3384  0.5085 -2.1386
   78CHL1  H22B 8236   6.356   5.034   7.898  0.5842 -0.2240 -0.3677
   78CHL1   C23 8237   6.437   4.954   8.069  0.1816  0.0955 -0.1457
   78CHL1  H23A 8238   6.404   4.849   8.049  1.3206 -0.5681  1.2930
   78CHL1  H23B 8239   6.527   4.954   8.133 -0.3493  1.7859  0.6460
   78CHL1   C24 8240   6.322   5.012   8.154  0.3948 -0.4358 -0.4559
   78CHL1  H24A 8241   6.350   5.115   8.185 -0.3640 -0.8538  1.7813
   78CHL1  H24B 8242   6.230   4.994   8.093  0.8156  0.4375 -1.3760
   78CHL1   C25 8243   6.302   4.929   8.286 -0.0459  0.0158  0.2783
   78CHL1   H25 8244   6.301   4.819   8.266 -0.9504 -0.1886  1.3301
   78CHL1   C26 8245   6.407   4.956   8.393  0.7802 -0.4400 -0.7466
   78CHL1  H26A 8246   6.410   5.062   8.427  1.7884 -0.7735  0.2967
   78CHL1  H26B 8247   6.397   4.899   8.489 -0.9324  0.5572 -0.3060
   78CHL1  H26C 8248   6.508   4.924   8.359  0.5439 -1.2237 -0.7416
   78CHL1   C27 8249   6.169   4.973   8.339  0.0722 -0.3471  0.8066
   78CHL1  H27A 8250   6.088   4.918   8.285  0.7148 -0.4285 -0.0875
   78CHL1  H27B 8251   6.165   4.948   8.447 -1.5426 -2.9855  0.2409
   78CHL1  H27C 8252   6.159   5.083   8.330 -0.4315 -0.3588  1.1666
   79CHL1    C3 8253   3.721   5.925   7.317 -0.5522 -0.0967  0.1063
   79CHL1    H3 8254   3.646   5.880   7.386 -1.4501 -1.2691 -1.5534
   79CHL1    O3 8255   3.648   5.960   7.204  0.0069  0.2538  0.4252
   79CHL1   H3' 8256   3.708   6.007   7.146 -0.4468  1.2319  0.7320
   79CHL1    C4 8257   3.782   6.052   7.377 -0.5726  0.2360 -0.2745
   79CHL1   H4A 8258   3.853   6.099   7.306 -0.3008  2.3150  1.2450
   79CHL1   H4B 8259   3.698   6.122   7.399 -1.7578 -0.6896 -1.6989
   79CHL1    C5 8260   3.866   6.013   7.501 -0.3456  0.9214 -0.0145
   79CHL1    C6 8261   3.845   6.066   7.623 -0.2097 -0.3524 -0.0794
   79CHL1    H6 8262   3.769   6.146   7.622 -0.2912 -0.3951 -2.7405
   79CHL1    C7 8263   3.933   6.046   7.736 -0.0494  0.6210 -0.6762
   79CHL1   H7A 8264   3.961   6.147   7.774 -0.2568  0.2130  0.6293
   79CHL1   H7B 8265   3.876   6.012   7.825  0.3486 -1.3421 -1.1240
   79CHL1    C8 8266   4.058   5.960   7.711 -0.1448  0.8912 -0.0371
   79CHL1    H8 8267   4.141   6.017   7.663  1.1665 -0.3311  0.6781
   79CHL1   C14 8268   4.116   5.911   7.844  0.8317 -0.2131  0.6518
   79CHL1   H14 8269   4.037   5.843   7.881  0.1481  0.3879  0.3186
   79CHL1   C15 8270   4.146   6.014   7.960 -0.2397 -0.2425 -0.1991
   79CHL1  H15A 8271   4.203   6.096   7.911 -0.2600  2.2090  3.5082
   79CHL1  H15B 8272   4.056   6.056   8.010 -0.3516 -1.1494  0.3846
   79CHL1   C16 8273   4.217   5.931   8.056 -0.0085 -0.5901  0.5337
   79CHL1  H16A 8274   4.313   5.975   8.093  2.8717 -3.5606 -2.6271
   79CHL1  H16B 8275   4.152   5.911   8.143 -0.3421  2.4271  1.0878
   79CHL1   C17 8276   4.249   5.787   7.988 -0.1117 -0.0287 -0.0780
   79CHL1   H17 8277   4.165   5.719   8.013 -0.7462 -0.0228 -2.0170
   79CHL1   C13 8278   4.239   5.812   7.839  0.3844 -0.5758  1.4803
   79CHL1   C18 8279   4.362   5.890   7.784  0.5598  0.0851 -0.0952
   79CHL1  H18A 8280   4.435   5.819   7.742 -0.4579 -1.4367  0.6305
   79CHL1  H18B 8281   4.343   5.967   7.706  1.5401  0.8424  0.3846
   79CHL1  H18C 8282   4.411   5.943   7.869 -1.0569 -1.6266  2.0400
   79CHL1   C12 8283   4.184   5.693   7.750 -0.3347 -0.1529  0.4917
   79CHL1  H12A 8284   4.266   5.622   7.724  0.8168  1.6763 -1.1093
   79CHL1  H12B 8285   4.098   5.636   7.792  0.2727 -1.3805  0.1252
   79CHL1   C11 8286   4.144   5.744   7.609  0.6463  0.2041  0.1695
   79CHL1  H11A 8287   4.232   5.801   7.573  0.9204  0.0044  0.5163
   79CHL1  H11B 8288   4.109   5.661   7.544 -1.4578 -0.0462  1.5021
   79CHL1    C9 8289   4.025   5.842   7.622  0.2894 -0.4535 -0.4029
   79CHL1    H9 8290   3.946   5.784   7.675  0.9774  0.5475  1.8395
   79CHL1   C10 8291   3.968   5.900   7.483 -1.1594  0.4834  0.0416
   79CHL1   C19 8292   4.093   5.949   7.403 -0.3725  0.6640  0.5039
   79CHL1  H19A 8293   4.142   6.028   7.465  0.7390 -1.1670  2.0593
   79CHL1  H19B 8294   4.171   5.872   7.387  0.1576  1.1348  0.7297
   79CHL1  H19C 8295   4.072   5.990   7.302  0.3921 -1.7945 -0.7108
   79CHL1    C1 8296   3.913   5.785   7.408 -0.4061  0.0323  0.1942
   79CHL1   H1A 8297   3.993   5.710   7.393 -0.6078  0.1819 -2.0121
   79CHL1   H1B 8298   3.834   5.742   7.473 -2.0968  2.8597  0.2070
   79CHL1    C2 8299   3.830   5.822   7.282 -0.7974  0.0620 -0.5696
   79CHL1   H2A 8300   3.775   5.730   7.252 -2.2895  0.9200 -0.5397
   79CHL1   H2B 8301   3.896   5.863   7.203 -1.1362  2.2205  0.2085
   79CHL1   C20 8302   4.382   5.725   8.045  0.2182 -1.0009  0.1171
   79CHL1   H20 8303   4.467   5.796   8.038 -0.5444 -0.2079 -2.0305
   79CHL1   C21 8304   4.415   5.592   7.979 -0.0615 -0.4491  0.5226
   79CHL1  H21A 8305   4.497   5.541   8.035  0.3321 -1.6459 -1.0726
   79CHL1  H21B 8306   4.450   5.605   7.874 -0.4202  0.6788  0.5299
   79CHL1  H21C 8307   4.327   5.525   7.972  0.6740 -1.2648 -1.8118
   79CHL1   C22 8308   4.350   5.691   8.193  0.1594 -0.1853 -0.0888
   79CHL1  H22A 8309   4.306   5.777   8.248 -0.9731 -0.3067 -0.7626
   79CHL1  H22B 8310   4.277   5.606   8.194  0.1357 -0.1621  0.7979
   79CHL1   C23 8311   4.470   5.650   8.288 -0.1962  0.3663 -0.1983
   79CHL1  H23A 8312   4.519   5.570   8.228 -1.5298 -0.6571  0.0139
   79CHL1  H23B 8313   4.549   5.726   8.305 -0.0212  0.1279  0.0950
   79CHL1   C24 8314   4.426   5.606   8.428  0.5554 -0.0122  0.1712
   79CHL1  H24A 8315   4.377   5.693   8.477  0.3920 -0.1857  0.3175
   79CHL1  H24B 8316   4.343   5.534   8.416 -1.4413  2.3144 -0.7067
   79CHL1   C25 8317   4.536   5.536   8.511  0.2985  0.1138 -0.1305
   79CHL1   H25 8318   4.594   5.471   8.443  1.1925  1.0211 -0.2559
   79CHL1   C26 8319   4.637   5.635   8.567  0.0057  0.7340 -0.3209
   79CHL1  H26A 8320   4.593   5.705   8.641  0.0848  0.5180 -0.0673
   79CHL1  H26B 8321   4.718   5.567   8.602  0.6655  1.8797  0.4118
   79CHL1  H26C 8322   4.671   5.696   8.480 -1.2751  2.3052  0.2350
   79CHL1   C27 8323   4.468   5.454   8.620 -0.7269  0.7001 -0.2961
   79CHL1  H27A 8324   4.446   5.522   8.705  1.0598 -0.5010  1.1986
   79CHL1  H27B 8325   4.381   5.397   8.579 -0.3428  0.1682 -0.3756
   79CHL1  H27C 8326   4.541   5.387   8.669 -0.9558  0.0928 -0.7646
   80CHL1    C3 8327   1.787   4.563   7.106 -0.6736 -0.4653 -0.3530
   80CHL1    H3 8328   1.745   4.461   7.116 -2.0733  0.0124 -1.1127
   80CHL1    O3 8329   1.761   4.615   6.979  0.0241  1.1075 -1.3172
   80CHL1   H3' 8330   1.666   4.607   6.979 -0.2412  2.9766  1.6855
   80CHL1    C4 8331   1.722   4.656   7.212  0.2935  0.4874  0.2864
   80CHL1   H4A 8332   1.761   4.756   7.182  2.4505  0.2046  1.8941
   80CHL1   H4B 8333   1.615   4.634   7.192 -0.0365  0.4410  1.9221
   80CHL1    C5 8334   1.763   4.627   7.355  0.1315  0.4272 -0.5338
   80CHL1    C6 8335   1.670   4.618   7.456 -0.7336  0.1469  0.1153
   80CHL1    H6 8336   1.564   4.625   7.426 -1.4823  1.3344  2.8120
   80CHL1    C7 8337   1.703   4.591   7.600  0.0398 -0.5336  0.3267
   80CHL1   H7A 8338   1.649   4.654   7.674  1.1897  0.1033  0.6543
   80CHL1   H7B 8339   1.676   4.485   7.613 -1.5388 -0.2288 -0.2487
   80CHL1    C8 8340   1.849   4.610   7.635 -0.1894 -0.9065  0.0207
   80CHL1    H8 8341   1.855   4.720   7.629  1.0104 -1.0345 -2.4697
   80CHL1   C14 8342   1.877   4.564   7.771 -1.0318 -0.4398  0.0989
   80CHL1   H14 8343   1.855   4.455   7.769 -2.3027 -0.2312  1.2458
   80CHL1   C15 8344   1.800   4.633   7.886  0.5695 -0.0177 -0.0824
   80CHL1  H15A 8345   1.812   4.742   7.868  2.1941 -0.3309 -1.1019
   80CHL1  H15B 8346   1.699   4.594   7.913  0.1052  1.5254  0.5484
   80CHL1   C16 8347   1.889   4.596   8.005  0.0902 -0.1310 -1.0589
   80CHL1  H16A 8348   1.884   4.692   8.060 -4.0265 -1.9324  2.2926
   80CHL1  H16B 8349   1.852   4.519   8.077  0.3932 -0.9090 -1.7096
   80CHL1   C17 8350   2.023   4.539   7.957 -0.1900 -0.0348  0.2348
   80CHL1   H17 8351   2.004   4.430   7.961 -1.5928  0.2115  2.8594
   80CHL1   C13 8352   2.029   4.577   7.809  0.5199 -0.1847 -0.2829
   80CHL1   C18 8353   2.077   4.719   7.800  0.1528 -0.1108 -0.5740
   80CHL1  H18A 8354   2.045   4.769   7.707 -1.5480  0.2964  0.1953
   80CHL1  H18B 8355   2.045   4.779   7.888 -1.1130 -2.3152  0.5658
   80CHL1  H18C 8356   2.187   4.733   7.802  0.1079  0.3856 -1.3318
   80CHL1   C12 8357   2.113   4.490   7.715  0.6311  0.8512 -0.0250
   80CHL1  H12A 8358   2.222   4.493   7.736  1.5606 -0.4738 -3.8628
   80CHL1  H12B 8359   2.077   4.385   7.720 -0.4250  1.0074 -2.6259
   80CHL1   C11 8360   2.090   4.531   7.568  0.3193  0.1019  0.3518
   80CHL1  H11A 8361   2.156   4.617   7.544  1.2110 -0.9240 -0.9715
   80CHL1  H11B 8362   2.137   4.455   7.502  1.7654  2.2421 -1.1830
   80CHL1    C9 8363   1.940   4.543   7.527  0.4509  0.1863 -0.8821
   80CHL1    H9 8364   1.902   4.440   7.512  2.5950 -0.8453  0.3496
   80CHL1   C10 8365   1.907   4.606   7.385 -0.0873 -0.0674 -1.0128
   80CHL1   C19 8366   1.977   4.746   7.380  0.5859 -0.2667  0.0496
   80CHL1  H19A 8367   2.087   4.748   7.395  0.5579  1.9424  0.1894
   80CHL1  H19B 8368   1.960   4.791   7.281 -0.2572  0.1799  0.3892
   80CHL1  H19C 8369   1.942   4.821   7.454  2.2699  1.7405 -1.0844
   80CHL1    C1 8370   1.973   4.520   7.272  0.2023 -0.4079  0.3065
   80CHL1   H1A 8371   2.082   4.513   7.292  0.4618 -0.0149 -0.9295
   80CHL1   H1B 8372   1.931   4.417   7.269 -1.7411  0.3554 -1.4173
   80CHL1    C2 8373   1.944   4.554   7.124  0.2952  0.1341  0.3718
   80CHL1   H2A 8374   1.991   4.479   7.057 -2.2953 -2.4550  1.2545
   80CHL1   H2B 8375   1.993   4.652   7.101 -0.0186  1.0361  3.2239
   80CHL1   C20 8376   2.137   4.591   8.044 -0.5335  0.2161 -0.2498
   80CHL1   H20 8377   2.154   4.700   8.035  2.7343 -0.0031  1.7859
   80CHL1   C21 8378   2.266   4.516   8.015 -0.1398 -0.2734 -0.0249
   80CHL1  H21A 8379   2.259   4.409   8.046 -0.9635 -0.7414 -1.7291
   80CHL1  H21B 8380   2.350   4.560   8.073  0.1661 -0.9326  0.0391
   80CHL1  H21C 8381   2.305   4.529   7.912  1.5165  1.0928  0.7224
   80CHL1   C22 8382   2.108   4.569   8.194 -0.0363  0.0415  0.3110
   80CHL1  H22A 8383   2.008   4.614   8.215 -1.0833 -0.2471 -3.4201
   80CHL1  H22B 8384   2.096   4.459   8.199  0.4975 -0.2295 -2.6568
   80CHL1   C23 8385   2.211   4.616   8.301 -0.1620  1.0376 -0.1685
   80CHL1  H23A 8386   2.294   4.542   8.302  1.4879  2.6767 -3.0154
   80CHL1  H23B 8387   2.254   4.712   8.265  1.5386  0.1843 -0.5531
   80CHL1   C24 8388   2.145   4.626   8.439 -0.3351  0.3057 -0.5761
   80CHL1  H24A 8389   2.071   4.708   8.431  0.0341  0.8446  1.2202
   80CHL1  H24B 8390   2.094   4.528   8.448  0.4604 -0.1059 -0.3946
   80CHL1   C25 8391   2.249   4.660   8.548  0.7171 -0.6891 -0.4594
   80CHL1   H25 8392   2.334   4.592   8.527  0.1973 -1.8318  0.9908
   80CHL1   C26 8393   2.307   4.801   8.551  0.1660 -0.1754  0.0357
   80CHL1  H26A 8394   2.320   4.844   8.449 -0.3096  2.0494  0.8500
   80CHL1  H26B 8395   2.236   4.862   8.610 -0.2067 -1.1413  0.6130
   80CHL1  H26C 8396   2.404   4.811   8.603 -0.1953  0.9159  0.5278
   80CHL1   C27 8397   2.186   4.638   8.684 -0.7279  0.9389  0.4409
   80CHL1  H27A 8398   2.089   4.686   8.710 -0.5469  1.4458  0.1810
   80CHL1  H27B 8399   2.174   4.528   8.695 -0.3147  0.7406 -0.9024
   80CHL1  H27C 8400   2.256   4.673   8.764  0.8718  1.2727 -1.0500
   81CHL1    C3 8401   0.540   2.743   6.981 -0.1555 -0.4707  0.2420
   81CHL1    H3 8402   0.429   2.741   6.985 -0.3247  2.3491 -0.4785
   81CHL1    O3 8403   0.589   2.672   6.871 -0.4575  0.1047  0.5860
   81CHL1   H3' 8404   0.564   2.732   6.799  1.4682  1.7625  1.1775
   81CHL1    C4 8405   0.586   2.890   6.985 -0.7399 -0.3548 -0.1067
   81CHL1   H4A 8406   0.696   2.878   6.991 -0.8384 -1.3368 -0.1507
   81CHL1   H4B 8407   0.552   2.942   6.893  0.3858  0.0832 -0.2981
   81CHL1    C5 8408   0.556   2.959   7.117 -0.1538  0.4705  0.3757
   81CHL1    C6 8409   0.493   3.076   7.099 -1.0656 -0.2113 -0.1218
   81CHL1    H6 8410   0.472   3.117   6.999  0.6663  2.9858  0.7031
   81CHL1    C7 8411   0.469   3.162   7.222 -0.3058 -0.0725  0.3257
   81CHL1   H7A 8412   0.483   3.268   7.191  1.2586 -0.2330  0.3927
   81CHL1   H7B 8413   0.359   3.167   7.235 -0.3052  0.1770  0.2459
   81CHL1    C8 8414   0.542   3.126   7.356 -0.4909  0.4790  0.9751
   81CHL1    H8 8415   0.648   3.159   7.356 -0.1549 -0.5931  0.5390
   81CHL1   C14 8416   0.474   3.183   7.478 -0.3427 -0.0644 -0.0750
   81CHL1   H14 8417   0.371   3.141   7.484  0.4213 -1.8520  2.0388
   81CHL1   C15 8418   0.442   3.330   7.485  0.0098 -0.0939  0.2766
   81CHL1  H15A 8419   0.530   3.393   7.461 -0.8578  0.2577 -2.2744
   81CHL1  H15B 8420   0.363   3.357   7.411 -0.4713 -0.0034  0.8207
   81CHL1   C16 8421   0.406   3.358   7.631  0.0158 -0.6685 -0.0963
   81CHL1  H16A 8422   0.479   3.429   7.676 -0.3218  0.3655 -1.1254
   81CHL1  H16B 8423   0.304   3.401   7.638 -0.3485 -1.7987  2.9884
   81CHL1   C17 8424   0.428   3.230   7.706  0.8951  0.3477 -0.2606
   81CHL1   H17 8425   0.332   3.174   7.695  0.5928  0.5816  1.0249
   81CHL1   C13 8426   0.527   3.144   7.616 -0.4175 -0.2740 -0.1204
   81CHL1   C18 8427   0.668   3.192   7.635 -0.0565 -0.5665 -0.1413
   81CHL1  H18A 8428   0.697   3.151   7.734  0.1438  0.2603  0.1518
   81CHL1  H18B 8429   0.734   3.157   7.553 -1.4204 -1.3872 -0.9240
   81CHL1  H18C 8430   0.676   3.303   7.626 -0.8049 -0.2717  2.2218
   81CHL1   C12 8431   0.516   2.989   7.622  0.2462  0.3617 -0.0234
   81CHL1  H12A 8432   0.552   2.955   7.721  1.3139  0.4625 -0.3605
   81CHL1  H12B 8433   0.409   2.964   7.604 -0.1692  1.8812  0.2123
   81CHL1   C11 8434   0.595   2.924   7.510 -0.2735 -1.2934  0.1931
   81CHL1  H11A 8435   0.704   2.945   7.517 -0.2532 -1.6131  0.9795
   81CHL1  H11B 8436   0.588   2.814   7.522  0.5892 -1.3303  0.4733
   81CHL1    C9 8437   0.545   2.977   7.373 -0.0947  0.4244 -0.3952
   81CHL1    H9 8438   0.439   2.949   7.389 -0.2626  1.5624  0.6178
   81CHL1   C10 8439   0.599   2.897   7.250  0.1243 -0.4420 -0.3726
   81CHL1   C19 8440   0.753   2.895   7.264 -0.6590 -0.0635 -0.0342
   81CHL1  H19A 8441   0.802   2.844   7.178 -2.5872 -2.0362 -0.0714
   81CHL1  H19B 8442   0.788   3.000   7.267 -1.7336  0.4549 -2.8015
   81CHL1  H19C 8443   0.786   2.835   7.352  0.4765 -0.9446 -1.0262
   81CHL1    C1 8444   0.550   2.757   7.236 -0.0473 -0.0677 -0.7199
   81CHL1   H1A 8445   0.587   2.698   7.323 -3.0209 -4.0286 -1.8130
   81CHL1   H1B 8446   0.439   2.750   7.237 -0.0128 -0.6817  0.3686
   81CHL1    C2 8447   0.588   2.676   7.110  0.5966  0.5119 -0.6570
   81CHL1   H2A 8448   0.545   2.575   7.125 -0.2747  1.0978  0.9888
   81CHL1   H2B 8449   0.699   2.671   7.111  0.5508 -0.6298  0.7196
   81CHL1   C20 8450   0.455   3.242   7.856 -0.3606 -0.6895 -0.4874
   81CHL1   H20 8451   0.551   3.297   7.867 -0.5536 -0.5530  0.6753
   81CHL1   C21 8452   0.472   3.109   7.927 -0.0557 -0.6263  0.3480
   81CHL1  H21A 8453   0.571   3.069   7.895  1.5304  2.0553  1.5349
   81CHL1  H21B 8454   0.391   3.036   7.908 -0.9414  0.2860  0.5227
   81CHL1  H21C 8455   0.477   3.130   8.036 -1.4468 -0.6548  0.4315
   81CHL1   C22 8456   0.348   3.332   7.919  0.6664  0.7623  0.7365
   81CHL1  H22A 8457   0.323   3.429   7.872 -0.7183  0.8274  1.5348
   81CHL1  H22B 8458   0.252   3.280   7.940  0.2624  0.4308 -1.6618
   81CHL1   C23 8459   0.383   3.369   8.069  0.6147  0.3931  0.5182
   81CHL1  H23A 8460   0.332   3.293   8.132  2.6593 -2.0263 -0.5614
   81CHL1  H23B 8461   0.492   3.362   8.084  0.8273 -1.1715 -1.2679
   81CHL1   C24 8462   0.339   3.513   8.101  0.5596 -0.3089 -0.4490
   81CHL1  H24A 8463   0.409   3.583   8.050  0.4381 -1.3637 -2.1365
   81CHL1  H24B 8464   0.236   3.522   8.059  0.3461 -0.9440 -0.0752
   81CHL1   C25 8465   0.318   3.556   8.253  0.0903  0.2363  0.0963
   81CHL1   H25 8466   0.287   3.662   8.246  0.1954  0.3668  1.3510
   81CHL1   C26 8467   0.221   3.472   8.335 -1.0003 -0.2735  0.2188
   81CHL1  H26A 8468   0.237   3.362   8.347 -0.0547 -0.1632  0.0706
   81CHL1  H26B 8469   0.205   3.515   8.436  0.3308 -1.2126  0.8620
   81CHL1  H26C 8470   0.121   3.479   8.287 -0.5469  0.7693 -0.6040
   81CHL1   C27 8471   0.455   3.556   8.321  0.8047  0.1155 -0.0969
   81CHL1  H27A 8472   0.508   3.460   8.298 -1.2949 -0.8698 -1.1007
   81CHL1  H27B 8473   0.517   3.645   8.297 -0.1409  0.6955 -0.4503
   81CHL1  H27C 8474   0.435   3.553   8.430 -0.8958  4.9226 -0.0671
   82CHL1    C3 8475   1.359   4.810   7.212  0.2965 -0.1028 -0.3401
   82CHL1    H3 8476   1.464   4.777   7.202  0.0638 -0.2399 -3.7179
   82CHL1    O3 8477   1.313   4.850   7.082 -0.3927 -0.4828 -0.6509
   82CHL1   H3' 8478   1.239   4.912   7.089  0.0740  0.4521 -2.9240
   82CHL1    C4 8479   1.265   4.697   7.258 -0.1263  0.2134 -0.1586
   82CHL1   H4A 8480   1.165   4.735   7.228  0.6156  0.3217 -2.7370
   82CHL1   H4B 8481   1.290   4.615   7.186  0.7015  2.4286 -2.5694
   82CHL1    C5 8482   1.268   4.665   7.408 -0.0937 -0.1194  0.9463
   82CHL1    C6 8483   1.268   4.532   7.442 -0.6916 -0.2253  0.1059
   82CHL1    H6 8484   1.261   4.452   7.368  0.8354 -1.6942  1.4743
   82CHL1    C7 8485   1.275   4.494   7.584  0.2444  0.2887 -0.4503
   82CHL1   H7A 8486   1.206   4.409   7.608 -0.7682  0.8263 -1.3441
   82CHL1   H7B 8487   1.381   4.463   7.597 -0.6771 -2.8468  0.4772
   82CHL1    C8 8488   1.234   4.608   7.683 -0.7325 -0.1353 -0.3463
   82CHL1    H8 8489   1.123   4.615   7.675 -0.7973 -1.0162 -0.3226
   82CHL1   C14 8490   1.278   4.564   7.825 -0.0271  0.0620  0.5777
   82CHL1   H14 8491   1.389   4.563   7.824  0.0319  1.9713 -0.9797
   82CHL1   C15 8492   1.231   4.423   7.871  0.8083  0.5609 -0.3683
   82CHL1  H15A 8493   1.124   4.406   7.846  0.6059  2.1620 -0.6975
   82CHL1  H15B 8494   1.293   4.349   7.816  1.9499  1.8843 -0.9090
   82CHL1   C16 8495   1.258   4.426   8.023  0.4142 -0.2030 -0.4770
   82CHL1  H16A 8496   1.158   4.406   8.068  0.4270 -1.4410 -0.9393
   82CHL1  H16B 8497   1.340   4.364   8.064  2.1384  1.0021 -1.9398
   82CHL1   C17 8498   1.306   4.573   8.061 -0.1192  0.3261  0.0267
   82CHL1   H17 8499   1.416   4.571   8.049  0.1842  3.6650  1.0974
   82CHL1   C13 8500   1.257   4.659   7.938 -0.3592  0.2109  1.0336
   82CHL1   C18 8501   1.102   4.678   7.963 -0.0728 -0.3664  0.1453
   82CHL1  H18A 8502   1.054   4.723   7.874  0.5458  1.0176  0.4836
   82CHL1  H18B 8503   1.041   4.587   7.986 -3.0904  0.9667 -2.0179
   82CHL1  H18C 8504   1.095   4.760   8.037  2.9245 -1.1570  1.4923
   82CHL1   C12 8505   1.321   4.792   7.904  0.2171  0.6044  0.2363
   82CHL1  H12A 8506   1.320   4.872   7.980  0.8201  2.4998 -1.6659
   82CHL1  H12B 8507   1.427   4.758   7.898  0.2458  0.3844  1.6611
   82CHL1   C11 8508   1.280   4.845   7.767 -1.0688  0.1424  0.6907
   82CHL1  H11A 8509   1.172   4.873   7.772 -1.2289  0.0406 -1.3909
   82CHL1  H11B 8510   1.343   4.933   7.740  0.1148 -1.2590 -1.4010
   82CHL1    C9 8511   1.303   4.742   7.645 -0.2966  0.1554 -1.0007
   82CHL1    H9 8512   1.412   4.722   7.638 -0.4623 -0.9825 -0.5181
   82CHL1   C10 8513   1.259   4.780   7.511 -0.4572 -0.0727 -0.2280
   82CHL1   C19 8514   1.128   4.851   7.514  0.0927 -0.1671  0.1113
   82CHL1  H19A 8515   1.078   4.881   7.419 -2.5421  0.0546  1.4686
   82CHL1  H19B 8516   1.055   4.791   7.571 -0.4572  1.1934  0.9055
   82CHL1  H19C 8517   1.133   4.956   7.551  1.9722 -0.2423  0.1782
   82CHL1    C1 8518   1.367   4.884   7.451 -0.3057 -0.3478 -0.0607
   82CHL1   H1A 8519   1.376   4.973   7.517  2.3920 -0.6232  0.0719
   82CHL1   H1B 8520   1.463   4.827   7.460 -1.0626 -2.2481 -2.9192
   82CHL1    C2 8521   1.347   4.930   7.308 -0.6011  0.2103  0.1397
   82CHL1   H2A 8522   1.416   5.014   7.287 -1.8708  0.7898 -1.8835
   82CHL1   H2B 8523   1.247   4.977   7.300 -0.0745  1.3389 -0.0049
   82CHL1   C20 8524   1.271   4.609   8.205  0.2850  0.5812 -0.3762
   82CHL1   H20 8525   1.161   4.594   8.214  0.0312  1.5033 -1.6371
   82CHL1   C21 8526   1.299   4.753   8.248 -0.7055 -0.0455  0.3339
   82CHL1  H21A 8527   1.407   4.777   8.243 -0.4876 -1.1098 -0.3031
   82CHL1  H21B 8528   1.258   4.773   8.349  1.3780  0.4032  1.1467
   82CHL1  H21C 8529   1.250   4.815   8.170  0.6189  0.0758 -0.4338
   82CHL1   C22 8530   1.342   4.516   8.299  0.2094 -0.2133  0.4239
   82CHL1  H22A 8531   1.313   4.410   8.283 -1.5630  0.4538 -1.2835
   82CHL1  H22B 8532   1.450   4.531   8.282 -0.1565  2.1204 -0.1670
   82CHL1   C23 8533   1.300   4.536   8.445 -0.0324  0.0347  0.3070
   82CHL1  H23A 8534   1.349   4.626   8.488  1.1943  1.0599 -2.9435
   82CHL1  H23B 8535   1.191   4.555   8.449 -0.2577 -1.2720  0.7727
   82CHL1   C24 8536   1.326   4.415   8.529 -0.3317  0.2279  0.6755
   82CHL1  H24A 8537   1.278   4.323   8.488 -1.5187  0.1640  2.1063
   82CHL1  H24B 8538   1.435   4.393   8.531 -0.1970 -0.1622 -3.4565
   82CHL1   C25 8539   1.311   4.435   8.679 -0.2156 -0.0015  0.0697
   82CHL1   H25 8540   1.207   4.469   8.697 -0.4204 -0.9489  0.7163
   82CHL1   C26 8541   1.327   4.307   8.760 -0.0033 -0.8615  0.7286
   82CHL1  H26A 8542   1.317   4.340   8.866  2.7072  0.0816  0.7629
   82CHL1  H26B 8543   1.241   4.238   8.746 -0.0287 -2.2031  5.5632
   82CHL1  H26C 8544   1.426   4.257   8.752  0.3923  0.0328 -0.1540
   82CHL1   C27 8545   1.405   4.543   8.736 -0.1520  0.3661  0.4760
   82CHL1  H27A 8546   1.375   4.644   8.699  0.1565  0.6606  1.0143
   82CHL1  H27B 8547   1.405   4.556   8.846 -1.8331 -0.4913  0.6029
   82CHL1  H27C 8548   1.510   4.524   8.703  0.4609 -1.3473  3.0691
   83CHL1    C3 8549   3.162   5.676   7.090 -0.9162 -0.9069 -0.4683
   83CHL1    H3 8550   3.211   5.580   7.118  0.1421 -0.4004 -0.5005
   83CHL1    O3 8551   3.120   5.683   6.958  0.1533  0.3472  0.1770
   83CHL1   H3' 8552   3.129   5.775   6.933  0.0495  0.6310  1.1298
   83CHL1    C4 8553   3.039   5.688   7.180  0.8502 -1.1327  0.3732
   83CHL1   H4A 8554   2.985   5.783   7.158  0.0179 -1.7463 -0.3129
   83CHL1   H4B 8555   2.967   5.613   7.141  1.3928 -1.2842 -0.3528
   83CHL1    C5 8556   3.067   5.678   7.330 -0.6870 -0.5576  0.4268
   83CHL1    C6 8557   3.005   5.589   7.409  0.6333 -0.5036  0.3899
   83CHL1    H6 8558   2.918   5.527   7.381  0.7950 -0.0336 -1.2346
   83CHL1    C7 8559   3.035   5.579   7.552 -0.6723  0.4726 -0.9785
   83CHL1   H7A 8560   2.952   5.612   7.617  0.7565  4.2909 -0.8707
   83CHL1   H7B 8561   3.083   5.482   7.578  0.3130  1.5250  1.3777
   83CHL1    C8 8562   3.140   5.686   7.607 -0.3723 -0.8554 -0.0656
   83CHL1    H8 8563   3.079   5.776   7.629 -1.3627 -1.8104  1.2333
   83CHL1   C14 8564   3.195   5.642   7.745 -0.4455 -0.2228  0.0323
   83CHL1   H14 8565   3.273   5.564   7.732  2.7484  2.4056  1.8960
   83CHL1   C15 8566   3.102   5.579   7.853 -0.0074  0.1466 -0.4227
   83CHL1  H15A 8567   2.997   5.617   7.855 -1.4543 -3.4238 -1.3353
   83CHL1  H15B 8568   3.082   5.470   7.843 -1.0516 -0.0038  2.3797
   83CHL1   C16 8569   3.169   5.600   7.989  0.3829  0.0875 -1.0529
   83CHL1  H16A 8570   3.104   5.671   8.044  2.1751 -0.5756  2.1862
   83CHL1  H16B 8571   3.193   5.505   8.040 -0.4157  0.0483 -0.7412
   83CHL1   C17 8572   3.303   5.674   7.948  0.3408  0.0995 -0.2808
   83CHL1   H17 8573   3.385   5.600   7.933  2.2791  1.4600  2.7247
   83CHL1   C13 8574   3.280   5.752   7.813 -0.2081  0.5875  0.2460
   83CHL1   C18 8575   3.190   5.877   7.838 -0.3035  0.1595  0.7810
   83CHL1  H18A 8576   3.248   5.950   7.898  0.1256 -1.3369  2.2773
   83CHL1  H18B 8577   3.164   5.922   7.740 -0.5563 -2.4288 -0.4165
   83CHL1  H18C 8578   3.091   5.853   7.881 -1.0834 -0.8190 -1.3949
   83CHL1   C12 8579   3.396   5.770   7.725  0.2327  0.5914  0.1173
   83CHL1  H12A 8580   3.463   5.853   7.755 -0.1401  0.3082  1.8375
   83CHL1  H12B 8581   3.455   5.676   7.717  0.2916  0.6504 -0.1415
   83CHL1   C11 8582   3.351   5.808   7.584  0.4328 -0.5548  1.1182
   83CHL1  H11A 8583   3.321   5.915   7.584 -1.8176 -1.0724 -1.8687
   83CHL1  H11B 8584   3.446   5.812   7.526 -0.4421  0.2217 -0.3187
   83CHL1    C9 8585   3.250   5.712   7.510  0.3187  0.2620  0.2554
   83CHL1    H9 8586   3.304   5.616   7.494 -1.5897 -0.6853 -0.9048
   83CHL1   C10 8587   3.188   5.765   7.373 -0.3982  0.2260 -0.5564
   83CHL1   C19 8588   3.146   5.912   7.389  0.0332 -0.1540 -0.0840
   83CHL1  H19A 8589   3.237   5.975   7.398  0.5804 -0.5737 -2.2220
   83CHL1  H19B 8590   3.101   5.952   7.296  1.8253  1.7608 -0.1717
   83CHL1  H19C 8591   3.084   5.919   7.481 -1.2725 -2.8624 -0.6346
   83CHL1    C1 8592   3.306   5.767   7.268 -0.1278  0.2419  0.0036
   83CHL1   H1A 8593   3.377   5.849   7.293  1.2662 -0.7435 -0.5861
   83CHL1   H1B 8594   3.367   5.675   7.278  1.2953  1.2979  1.5890
   83CHL1    C2 8595   3.260   5.788   7.126  0.0924 -0.3985 -0.0761
   83CHL1   H2A 8596   3.348   5.775   7.059 -1.1339 -0.4772 -1.7272
   83CHL1   H2B 8597   3.218   5.888   7.106  1.0977  0.0523  0.0325
   83CHL1   C20 8598   3.360   5.759   8.060  0.3990 -1.3670  0.4757
   83CHL1   H20 8599   3.306   5.856   8.055  0.1062 -1.5908 -2.9270
   83CHL1   C21 8600   3.507   5.802   8.039  0.2990  0.9669 -0.1508
   83CHL1  H21A 8601   3.569   5.721   7.997  0.5797  0.9514  0.2869
   83CHL1  H21B 8602   3.551   5.846   8.132 -0.7589 -1.2333  1.4740
   83CHL1  H21C 8603   3.510   5.879   7.959  0.1471 -0.9940 -2.1109
   83CHL1   C22 8604   3.336   5.697   8.201  0.6690  0.0628 -0.6818
   83CHL1  H22A 8605   3.231   5.665   8.221  0.3075  1.9495  0.7928
   83CHL1  H22B 8606   3.389   5.600   8.203 -0.2783 -0.4561  0.6008
   83CHL1   C23 8607   3.381   5.792   8.315  0.5841  0.2776  0.0458
   83CHL1  H23A 8608   3.492   5.785   8.316  0.6862  1.7090  0.6917
   83CHL1  H23B 8609   3.349   5.894   8.285  2.6554  1.0429  0.2716
   83CHL1   C24 8610   3.329   5.748   8.456 -0.0972 -0.1217  1.5997
   83CHL1  H24A 8611   3.219   5.733   8.453 -0.3599  1.8104 -0.2618
   83CHL1  H24B 8612   3.372   5.649   8.484 -2.2008 -0.7649  2.8152
   83CHL1   C25 8613   3.359   5.847   8.567 -0.6705  0.2700 -0.6598
   83CHL1   H25 8614   3.305   5.812   8.657 -0.4809 -0.2474 -0.7446
   83CHL1   C26 8615   3.510   5.848   8.604 -0.2024  0.2891 -0.4642
   83CHL1  H26A 8616   3.520   5.897   8.703 -1.1024 -2.5198  1.1076
   83CHL1  H26B 8617   3.554   5.746   8.605 -2.3914 -0.7155 -0.6755
   83CHL1  H26C 8618   3.565   5.913   8.532 -0.5715 -1.8699 -2.8440
   83CHL1   C27 8619   3.308   5.985   8.536  0.0756 -0.1765  0.0703
   83CHL1  H27A 8620   3.346   6.026   8.440  2.3034 -0.4585  0.7810
   83CHL1  H27B 8621   3.197   5.984   8.546  0.2058 -0.2515  1.9219
   83CHL1  H27C 8622   3.340   6.052   8.619 -3.8767  0.1208  1.5872
   84CHL1    C3 8623   4.997   1.285   6.936  0.4066 -0.0455 -0.3015
   84CHL1    H3 8624   5.020   1.180   6.909  1.1366 -0.0912  0.4653
   84CHL1    O3 8625   4.960   1.356   6.815  0.1548  0.5064 -0.0283
   84CHL1   H3' 8626   4.879   1.320   6.777  1.4517 -1.3641 -1.2484
   84CHL1    C4 8627   4.879   1.299   7.039  0.0382  0.1374  0.2798
   84CHL1   H4A 8628   4.858   1.408   7.045 -1.1109  0.0089 -0.9839
   84CHL1   H4B 8629   4.795   1.240   6.998  1.1049 -1.0430 -0.2734
   84CHL1    C5 8630   4.919   1.244   7.177  0.5186 -1.1787  0.3644
   84CHL1    C6 8631   4.842   1.162   7.242  0.0114  0.2920 -0.6483
   84CHL1    H6 8632   4.749   1.121   7.200  0.3140 -1.8655  0.6109
   84CHL1    C7 8633   4.867   1.103   7.379 -0.4210 -1.0350 -0.1696
   84CHL1   H7A 8634   4.775   1.114   7.441 -0.7986 -0.3844 -0.8343
   84CHL1   H7B 8635   4.892   0.995   7.374  0.9895 -0.7601  0.3852
   84CHL1    C8 8636   4.984   1.176   7.450 -0.4512 -0.4074 -0.7120
   84CHL1    H8 8637   4.946   1.275   7.481 -0.0932 -0.2046 -0.9052
   84CHL1   C14 8638   5.040   1.088   7.558  0.2382 -0.2483 -0.4044
   84CHL1   H14 8639   5.088   1.001   7.509 -1.3617 -1.1664 -0.3894
   84CHL1   C15 8640   4.942   1.028   7.658  0.3398  0.8035  0.7017
   84CHL1  H15A 8641   4.858   1.098   7.677 -0.4495  0.0080  0.1955
   84CHL1  H15B 8642   4.901   0.937   7.610  0.2112  0.2202  1.8967
   84CHL1   C16 8643   5.020   0.991   7.783  0.8472  0.4955  0.1469
   84CHL1  H16A 8644   4.974   1.051   7.864 -0.9161 -0.4652 -0.0875
   84CHL1  H16B 8645   5.039   0.886   7.813  1.7992 -0.3599 -3.0695
   84CHL1   C17 8646   5.162   1.047   7.755 -0.3808  0.5305 -0.1503
   84CHL1   H17 8647   5.226   0.970   7.705  0.6313  0.1519  1.6449
   84CHL1   C13 8648   5.146   1.155   7.646  0.5259  0.1380 -0.6932
   84CHL1   C18 8649   5.087   1.285   7.704  0.3540  0.0861 -0.4864
   84CHL1  H18A 8650   5.094   1.378   7.644 -1.3609  0.4231 -0.2218
   84CHL1  H18B 8651   4.978   1.273   7.720  0.2897 -0.4197 -1.2271
   84CHL1  H18C 8652   5.126   1.313   7.804 -1.1467 -1.4887  0.5934
   84CHL1   C12 8653   5.261   1.182   7.551  0.3149  0.4638 -0.7502
   84CHL1  H12A 8654   5.350   1.232   7.593  1.5400 -1.2858 -1.1236
   84CHL1  H12B 8655   5.293   1.084   7.509 -0.8541  0.5629 -1.9230
   84CHL1   C11 8656   5.214   1.263   7.429 -0.6966  0.1172  0.0822
   84CHL1  H11A 8657   5.197   1.366   7.467  0.5499 -0.0766  1.2430
   84CHL1  H11B 8658   5.304   1.262   7.363  0.0847  1.8395  1.0557
   84CHL1    C9 8659   5.093   1.205   7.349 -0.2955  0.1562 -0.5183
   84CHL1    H9 8660   5.133   1.107   7.317  2.4370  0.9177  0.2826
   84CHL1   C10 8661   5.058   1.297   7.221  0.2319  0.0515 -0.2222
   84CHL1   C19 8662   5.048   1.445   7.264 -0.4549  0.8982  0.0975
   84CHL1  H19A 8663   5.152   1.471   7.293 -0.4977  0.1364  0.9744
   84CHL1  H19B 8664   5.019   1.507   7.176 -2.3901 -0.5888 -0.3841
   84CHL1  H19C 8665   4.975   1.464   7.346 -0.3074  0.9837  0.2118
   84CHL1    C1 8666   5.169   1.287   7.114  0.4358 -0.0789  0.8230
   84CHL1   H1A 8667   5.265   1.330   7.149  1.0096  0.1475 -0.9546
   84CHL1   H1B 8668   5.192   1.180   7.092  0.7243  0.1869 -0.2129
   84CHL1    C2 8669   5.128   1.347   6.984  0.6117  0.4186 -0.3342
   84CHL1   H2A 8670   5.212   1.332   6.912  1.7696 -3.7978  1.5775
   84CHL1   H2B 8671   5.116   1.456   7.001 -1.6899  0.1522 -0.0381
   84CHL1   C20 8672   5.230   1.092   7.885  0.6327  0.3487  0.7061
   84CHL1   H20 8673   5.163   1.172   7.924 -0.7773 -0.2458 -0.4262
   84CHL1   C21 8674   5.370   1.145   7.858 -0.8329 -0.2215  0.7656
   84CHL1  H21A 8675   5.413   1.169   7.957  1.6768 -2.8494  0.4373
   84CHL1  H21B 8676   5.375   1.239   7.799 -0.5406  0.5486  1.9809
   84CHL1  H21C 8677   5.443   1.072   7.817 -0.8425 -0.6979  1.5878
   84CHL1   C22 8678   5.232   0.986   7.997 -0.0999  0.0898 -0.4710
   84CHL1  H22A 8679   5.128   0.950   7.998 -0.4007  0.9250 -0.6390
   84CHL1  H22B 8680   5.302   0.903   7.973 -0.1815 -0.7556  1.9971
   84CHL1   C23 8681   5.262   1.037   8.143  0.3442  0.0635 -0.4319
   84CHL1  H23A 8682   5.246   0.955   8.217  0.2616 -0.0924 -0.6204
   84CHL1  H23B 8683   5.371   1.054   8.154  0.5464 -1.4818  0.2348
   84CHL1   C24 8684   5.173   1.148   8.188 -0.4698 -0.9131  0.1235
   84CHL1  H24A 8685   5.207   1.245   8.144 -2.3108 -1.0498 -1.7868
   84CHL1  H24B 8686   5.064   1.143   8.164 -0.6836 -2.3100  1.2585
   84CHL1   C25 8687   5.177   1.158   8.343 -0.1863 -0.4803 -0.3401
   84CHL1   H25 8688   5.281   1.185   8.370 -0.3424  0.0324 -0.2396
   84CHL1   C26 8689   5.086   1.276   8.383 -0.2491 -0.5582  0.6442
   84CHL1  H26A 8690   4.985   1.260   8.341 -0.9647 -0.4339  2.2739
   84CHL1  H26B 8691   5.097   1.284   8.493  3.3712 -3.1284  0.6539
   84CHL1  H26C 8692   5.131   1.371   8.345 -1.4946 -0.5144 -0.8417
   84CHL1   C27 8693   5.135   1.036   8.425 -0.1227  0.7843  0.7617
   84CHL1  H27A 8694   5.037   1.004   8.384 -0.6916  1.9162  1.1825
   84CHL1  H27B 8695   5.203   0.949   8.421 -0.5844  0.4584 -0.2818
   84CHL1  H27C 8696   5.123   1.066   8.531 -0.7196  0.1113  0.8884
   85CHL1    C3 8697   5.411   5.648   6.946  0.7057  0.0848 -0.1046
   85CHL1    H3 8698   5.434   5.756   6.956  0.8566 -0.0006  0.5760
   85CHL1    O3 8699   5.357   5.626   6.816  0.0684 -0.7992 -0.2660
   85CHL1   H3' 8700   5.315   5.539   6.813 -1.6845  0.0318 -1.7035
   85CHL1    C4 8701   5.527   5.557   6.957 -0.1224 -0.0815 -0.1218
   85CHL1   H4A 8702   5.508   5.453   6.922  1.9819 -0.2228 -1.0016
   85CHL1   H4B 8703   5.605   5.591   6.885  0.1744  0.4477  0.4428
   85CHL1    C5 8704   5.585   5.556   7.102 -0.3528  0.2255  0.0320
   85CHL1    C6 8705   5.717   5.587   7.121 -0.2915 -0.1228 -0.2535
   85CHL1    H6 8706   5.783   5.605   7.034  1.3078 -0.0335  0.9193
   85CHL1    C7 8707   5.793   5.585   7.256  0.4771 -0.5209 -0.7146
   85CHL1   H7A 8708   5.887   5.526   7.258  0.9502  0.2322 -0.0933
   85CHL1   H7B 8709   5.825   5.688   7.281  0.3012 -0.9884  1.6717
   85CHL1    C8 8710   5.695   5.541   7.368  0.3996  0.6312 -0.2830
   85CHL1    H8 8711   5.702   5.431   7.354  0.2407  0.5749  0.0923
   85CHL1   C14 8712   5.745   5.573   7.518 -0.3201  0.1566  0.2261
   85CHL1   H14 8713   5.746   5.684   7.516  0.7246  0.1533 -0.3377
   85CHL1   C15 8714   5.895   5.541   7.538 -0.6119 -0.1443 -0.0809
   85CHL1  H15A 8715   5.928   5.442   7.501 -0.4240 -0.1737  0.1627
   85CHL1  H15B 8716   5.944   5.633   7.500  0.3389 -1.3125 -1.8190
   85CHL1   C16 8717   5.913   5.541   7.694  0.3004  0.6488  0.2089
   85CHL1  H16A 8718   5.951   5.443   7.731  1.4072  0.5770 -1.0750
   85CHL1  H16B 8719   5.986   5.613   7.736  0.6097 -0.6652  2.0257
   85CHL1   C17 8720   5.761   5.568   7.747 -0.5228  0.8797  0.6417
   85CHL1   H17 8721   5.743   5.677   7.756 -0.6834  0.9686 -0.6006
   85CHL1   C13 8722   5.667   5.518   7.630 -0.3322 -0.3756  0.6836
   85CHL1   C18 8723   5.666   5.364   7.635  0.2211  0.4557 -1.2318
   85CHL1  H18A 8724   5.582   5.324   7.696  1.4605 -0.8722 -0.3312
   85CHL1  H18B 8725   5.640   5.327   7.533 -2.5833  0.4392 -0.5930
   85CHL1  H18C 8726   5.760   5.313   7.664  0.2663  0.8314 -0.7039
   85CHL1   C12 8727   5.532   5.576   7.618  0.2668 -0.3645 -0.6515
   85CHL1  H12A 8728   5.463   5.540   7.698  0.1389 -1.0006 -1.0416
   85CHL1  H12B 8729   5.559   5.683   7.622 -0.7133 -0.1393  1.1873
   85CHL1   C11 8730   5.463   5.550   7.479 -0.2621 -0.2737 -0.3099
   85CHL1  H11A 8731   5.435   5.443   7.483 -4.0258  0.5939  2.4123
   85CHL1  H11B 8732   5.370   5.611   7.473 -2.9797 -4.0123  0.4929
   85CHL1    C9 8733   5.546   5.577   7.357  0.5608 -0.7771 -0.2407
   85CHL1    H9 8734   5.543   5.688   7.360 -1.8413 -0.7990  0.4670
   85CHL1   C10 8735   5.486   5.529   7.223  0.5473  0.0365  0.4787
   85CHL1   C19 8736   5.437   5.379   7.222 -0.3411  0.6178  0.2621
   85CHL1  H19A 8737   5.386   5.356   7.126 -1.5239 -1.4665  1.3291
   85CHL1  H19B 8738   5.525   5.312   7.236  1.1715  2.3986 -0.1584
   85CHL1  H19C 8739   5.363   5.363   7.302 -1.8844 -2.1737 -1.5502
   85CHL1    C1 8740   5.360   5.624   7.199 -0.6610  0.4507  0.0223
   85CHL1   H1A 8741   5.281   5.611   7.276  0.6446  1.2769  1.5796
   85CHL1   H1B 8742   5.402   5.727   7.206  1.5085 -0.3692 -0.1160
   85CHL1    C2 8743   5.306   5.612   7.059  0.0070 -0.0713  0.2896
   85CHL1   H2A 8744   5.213   5.674   7.051  0.5429  0.6329 -0.9068
   85CHL1   H2B 8745   5.295   5.504   7.035  0.0400 -0.2404  1.0289
   85CHL1   C20 8746   5.761   5.497   7.889  0.2430 -0.6385 -0.3241
   85CHL1   H20 8747   5.798   5.393   7.874 -0.3812 -1.0982  1.1817
   85CHL1   C21 8748   5.613   5.504   7.933 -0.8605 -0.0509  0.2633
   85CHL1  H21A 8749   5.609   5.484   8.042  1.9316  3.2674  1.1711
   85CHL1  H21B 8750   5.549   5.429   7.882 -1.3157 -0.0551  0.8380
   85CHL1  H21C 8751   5.575   5.608   7.928  1.9416  1.1035  0.8841
   85CHL1   C22 8752   5.851   5.578   7.989  0.4403 -0.0636  0.3464
   85CHL1  H22A 8753   5.957   5.558   7.963  0.4355 -0.2154  0.4360
   85CHL1  H22B 8754   5.829   5.686   7.975 -2.1220 -0.3019  1.8070
   85CHL1   C23 8755   5.842   5.538   8.139 -0.2242 -0.3956 -0.0103
   85CHL1  H23A 8756   5.736   5.541   8.173 -0.4713 -4.4195  0.0583
   85CHL1  H23B 8757   5.886   5.438   8.160 -0.1037  0.1459  2.6298
   85CHL1   C24 8758   5.918   5.648   8.226 -0.4132 -0.1017  0.1008
   85CHL1  H24A 8759   6.022   5.639   8.186 -1.7076  0.1060 -3.7425
   85CHL1  H24B 8760   5.873   5.749   8.215 -0.5293 -0.2784 -1.1773
   85CHL1   C25 8761   5.918   5.619   8.377  0.8585  0.2961 -0.1361
   85CHL1   H25 8762   5.815   5.635   8.416  0.8932  1.4492 -0.4865
   85CHL1   C26 8763   5.976   5.480   8.416 -0.1106 -0.0256  0.4351
   85CHL1  H26A 8764   5.904   5.409   8.370  1.7647  0.1741 -3.1409
   85CHL1  H26B 8765   6.081   5.466   8.382 -0.2222 -0.6651  0.3590
   85CHL1  H26C 8766   5.973   5.468   8.526 -0.0519 -1.6216  0.2783
   85CHL1   C27 8767   5.992   5.726   8.466  0.3397 -0.4099  0.7517
   85CHL1  H27A 8768   6.094   5.746   8.426 -0.2559  0.1113 -0.5609
   85CHL1  H27B 8769   5.938   5.822   8.476  2.2986  0.7876  0.4761
   85CHL1  H27C 8770   6.011   5.683   8.567  0.3856 -0.1589  0.8516
   86CHL1    C3 8771   0.494   3.803   7.015 -0.1678  0.0901  0.5480
   86CHL1    H3 8772   0.501   3.913   7.002 -2.4995  0.3151  0.7829
   86CHL1    O3 8773   0.508   3.737   6.887 -0.0567 -0.0640 -0.5796
   86CHL1   H3' 8774   0.471   3.648   6.888 -1.8892  0.6136  1.6086
   86CHL1    C4 8775   0.595   3.744   7.117  0.7537  0.0823 -0.4313
   86CHL1   H4A 8776   0.589   3.633   7.113  2.2907  0.0002 -1.2275
   86CHL1   H4B 8777   0.695   3.780   7.085  0.6552  0.2166 -0.5858
   86CHL1    C5 8778   0.578   3.798   7.262 -0.1345 -0.1258 -0.4833
   86CHL1    C6 8779   0.677   3.856   7.338 -0.4133 -0.4000 -0.5394
   86CHL1    H6 8780   0.783   3.857   7.310 -0.4677  2.0863 -0.8802
   86CHL1    C7 8781   0.652   3.908   7.476 -0.1558  0.3360  0.0170
   86CHL1   H7A 8782   0.736   3.893   7.547  0.3960  0.3715 -0.6200
   86CHL1   H7B 8783   0.641   4.018   7.472  1.6689  0.6804  2.0825
   86CHL1    C8 8784   0.516   3.857   7.539 -0.0465 -0.3561 -0.1186
   86CHL1    H8 8785   0.526   3.749   7.563  1.2107 -0.2468 -0.0868
   86CHL1   C14 8786   0.481   3.936   7.666 -0.2389 -0.1107  0.2275
   86CHL1   H14 8787   0.465   4.040   7.629 -1.3670 -1.5029 -3.7117
   86CHL1   C15 8788   0.583   3.923   7.782 -0.7953  0.3866 -0.1176
   86CHL1  H15A 8789   0.606   3.814   7.776 -1.6344  0.1148  1.1690
   86CHL1  H15B 8790   0.682   3.972   7.776 -0.9129  0.7036  0.4511
   86CHL1   C16 8791   0.502   3.963   7.905  0.1536 -0.6558 -0.4660
   86CHL1  H16A 8792   0.504   3.883   7.982 -3.8240 -0.0046  0.5415
   86CHL1  H16B 8793   0.542   4.057   7.949  0.1472 -0.3534 -1.0915
   86CHL1   C17 8794   0.353   3.971   7.863  0.0233  0.4000 -0.4842
   86CHL1   H17 8795   0.345   4.078   7.838  0.5075  0.6288  0.2993
   86CHL1   C13 8796   0.347   3.897   7.723 -0.1609  0.4281 -0.3593
   86CHL1   C18 8797   0.337   3.741   7.754  0.3075 -0.1160 -0.3353
   86CHL1  H18A 8798   0.371   3.684   7.664  2.0914  0.5373 -0.1201
   86CHL1  H18B 8799   0.405   3.706   7.835 -0.1797  0.5581  0.3720
   86CHL1  H18C 8800   0.233   3.720   7.787  0.1767 -1.5919 -1.5548
   86CHL1   C12 8801   0.240   3.939   7.625  0.2738 -0.2658 -0.2382
   86CHL1  H12A 8802   0.135   3.926   7.657  0.4116 -1.0509 -0.0855
   86CHL1  H12B 8803   0.250   4.049   7.613 -0.4566 -0.2682 -0.9535
   86CHL1   C11 8804   0.262   3.866   7.492 -0.5500 -0.4639 -0.2513
   86CHL1  H11A 8805   0.233   3.760   7.504 -2.5152 -0.1183 -1.4406
   86CHL1  H11B 8806   0.194   3.919   7.421  1.7728 -0.0770 -2.2953
   86CHL1    C9 8807   0.408   3.876   7.436  0.2804  0.1663  0.4347
   86CHL1    H9 8808   0.410   3.982   7.402 -1.8697  0.3447  0.7467
   86CHL1   C10 8809   0.435   3.793   7.313  0.5622  0.2056 -0.1445
   86CHL1   C19 8810   0.399   3.642   7.342 -0.3227  0.0305 -0.3287
   86CHL1  H19A 8811   0.422   3.570   7.260  0.2806  0.9991 -1.0313
   86CHL1  H19B 8812   0.446   3.611   7.438 -0.5252  0.1196 -0.2011
   86CHL1  H19C 8813   0.289   3.634   7.351 -0.3375  0.2055 -0.3548
   86CHL1    C1 8814   0.333   3.846   7.204  0.2479 -0.3831 -0.1428
   86CHL1   H1A 8815   0.231   3.812   7.233  0.4254 -1.3267 -0.5623
   86CHL1   H1B 8816   0.345   3.955   7.187  0.0048 -0.2942  0.2554
   86CHL1    C2 8817   0.349   3.784   7.063 -0.0703  0.0332 -1.0425
   86CHL1   H2A 8818   0.271   3.828   6.996  0.6144  3.2441  0.0967
   86CHL1   H2B 8819   0.322   3.677   7.080 -0.3807  0.3449  0.6122
   86CHL1   C20 8820   0.250   3.932   7.971 -0.1214 -0.0737 -0.3760
   86CHL1   H20 8821   0.235   3.822   7.975 -2.7349  0.2645  2.3329
   86CHL1   C21 8822   0.110   3.992   7.935 -0.2094 -0.4354 -0.0689
   86CHL1  H21A 8823   0.071   3.936   7.847  0.3171 -0.8205 -0.0592
   86CHL1  H21B 8824   0.120   4.101   7.914 -1.7452  0.3307  2.7034
   86CHL1  H21C 8825   0.032   3.991   8.013 -0.0469  2.7359  0.2872
   86CHL1   C22 8826   0.295   3.984   8.106  0.4543 -0.1072 -0.1513
   86CHL1  H22A 8827   0.385   3.929   8.140 -0.9886 -1.6800  1.3247
   86CHL1  H22B 8828   0.317   4.093   8.096  1.3304 -0.4283 -2.4997
   86CHL1   C23 8829   0.203   3.969   8.219  0.3066 -0.5873  0.1211
   86CHL1  H23A 8830   0.117   4.037   8.201  0.8789  0.0800 -0.1536
   86CHL1  H23B 8831   0.163   3.868   8.243  0.5124 -0.1488  2.5797
   86CHL1   C24 8832   0.269   4.029   8.351 -0.4603  0.3445  0.5136
   86CHL1  H24A 8833   0.346   3.955   8.382 -1.2472 -2.0292 -2.6883
   86CHL1  H24B 8834   0.315   4.128   8.329  1.2348 -0.0905  1.8940
   86CHL1   C25 8835   0.165   4.038   8.466 -0.6570  0.3316  0.4141
   86CHL1   H25 8836   0.118   3.939   8.480 -1.2154  0.6023  0.4687
   86CHL1   C26 8837   0.235   4.065   8.607  0.1593  0.4915 -0.4907
   86CHL1  H26A 8838   0.314   3.987   8.619 -1.9214 -1.6788 -0.0935
   86CHL1  H26B 8839   0.279   4.165   8.626 -0.8534  0.7196  0.7679
   86CHL1  H26C 8840   0.156   4.039   8.680 -0.4200 -0.4780 -1.4207
   86CHL1   C27 8841   0.053   4.142   8.438  0.1244  0.4289 -0.3793
   86CHL1  H27A 8842   0.092   4.232   8.387  0.1138  0.3699 -0.4922
   86CHL1  H27B 8843  -0.025   4.090   8.378 -0.1954  0.2405  0.1872
   86CHL1  H27C 8844   0.002   4.178   8.530 -2.5206  0.2861 -1.6865
   87CHL1    C3 8845   1.682   2.652   7.175 -0.2198 -0.3792  0.3210
   87CHL1    H3 8846   1.712   2.758   7.163  0.6549 -0.6352  0.1819
   87CHL1    O3 8847   1.635   2.595   7.053 -0.2787 -0.2928  0.2614
   87CHL1   H3' 8848   1.575   2.655   7.009 -0.0980 -0.4063 -0.1432
   87CHL1    C4 8849   1.800   2.569   7.219 -0.2809 -0.0241  0.5840
   87CHL1   H4A 8850   1.762   2.465   7.215 -2.7503  0.8344 -1.9370
   87CHL1   H4B 8851   1.884   2.575   7.148 -0.2868  1.7455  0.6846
   87CHL1    C5 8852   1.845   2.614   7.359  0.4463 -0.4254  0.2732
   87CHL1    C6 8853   1.971   2.658   7.381  0.4802 -0.1099 -0.3345
   87CHL1    H6 8854   2.036   2.683   7.296 -0.6726  0.6803 -1.0198
   87CHL1    C7 8855   2.011   2.708   7.514  0.4778 -0.0443 -0.6870
   87CHL1   H7A 8856   2.112   2.663   7.528  0.1536 -0.3776  0.7393
   87CHL1   H7B 8857   2.018   2.818   7.527 -0.5693  0.0023 -0.4294
   87CHL1    C8 8858   1.926   2.663   7.634  0.4272  0.2057  0.4179
   87CHL1    H8 8859   1.949   2.556   7.656  2.2971  0.4381 -0.2512
   87CHL1   C14 8860   1.940   2.748   7.755 -0.4016 -0.0766  0.2893
   87CHL1   H14 8861   1.910   2.851   7.726  0.7888 -0.0792 -1.0556
   87CHL1   C15 8862   2.087   2.767   7.795  0.0944 -0.3141 -0.1253
   87CHL1  H15A 8863   2.136   2.667   7.800  1.1964  0.2772  2.0002
   87CHL1  H15B 8864   2.153   2.833   7.736  0.0279 -1.6453 -1.7618
   87CHL1   C16 8865   2.072   2.822   7.939 -0.7248 -0.5085  0.0547
   87CHL1  H16A 8866   2.137   2.752   7.995 -1.6756 -2.0311 -0.6624
   87CHL1  H16B 8867   2.111   2.926   7.949 -1.6474 -0.3346  2.5683
   87CHL1   C17 8868   1.921   2.815   7.979 -0.4566  0.4885 -0.3733
   87CHL1   H17 8869   1.878   2.916   7.960  0.4961  0.8911 -0.4585
   87CHL1   C13 8870   1.864   2.714   7.878 -0.5769  0.4020 -0.0945
   87CHL1   C18 8871   1.897   2.563   7.917 -0.1001  0.0464  0.5220
   87CHL1  H18A 8872   1.859   2.488   7.844 -0.0771  2.6563 -2.3847
   87CHL1  H18B 8873   2.007   2.550   7.912 -0.1395 -0.3298  0.6244
   87CHL1  H18C 8874   1.869   2.531   8.019  1.1097  2.3158  1.6346
   87CHL1   C12 8875   1.720   2.726   7.853  0.4379  0.0854  0.2147
   87CHL1  H12A 8876   1.649   2.700   7.935  0.6280  1.8317  0.9774
   87CHL1  H12B 8877   1.702   2.835   7.839 -0.9396 -0.1259  0.1593
   87CHL1   C11 8878   1.682   2.657   7.721 -0.3220  0.4217  0.6964
   87CHL1  H11A 8879   1.680   2.548   7.746  1.6476  0.3185  0.5786
   87CHL1  H11B 8880   1.577   2.688   7.703 -0.8032 -0.8993  1.0977
   87CHL1    C9 8881   1.778   2.675   7.594 -0.7150 -0.4919 -0.5677
   87CHL1    H9 8882   1.762   2.782   7.573  1.2847 -0.2488 -1.0029
   87CHL1   C10 8883   1.738   2.600   7.465 -0.2208  0.0692 -0.5229
   87CHL1   C19 8884   1.715   2.447   7.494  0.4207 -0.4543 -0.7695
   87CHL1  H19A 8885   1.637   2.424   7.570  0.8786  2.0591  0.5897
   87CHL1  H19B 8886   1.691   2.382   7.407  1.1967 -1.0351 -0.5678
   87CHL1  H19C 8887   1.814   2.404   7.522 -0.1738 -1.7864 -0.6300
   87CHL1    C1 8888   1.610   2.669   7.422 -0.3897 -0.1264  0.0785
   87CHL1   H1A 8889   1.537   2.646   7.502  0.2559  0.3305  0.8143
   87CHL1   H1B 8890   1.637   2.777   7.423  2.8443 -0.8426  0.5358
   87CHL1    C2 8891   1.565   2.633   7.279 -0.0937 -0.5809  0.3156
   87CHL1   H2A 8892   1.484   2.706   7.255 -1.6507 -0.8978  4.0051
   87CHL1   H2B 8893   1.521   2.533   7.262  0.0984 -0.6843  0.4295
   87CHL1   C20 8894   1.899   2.795   8.135 -0.9334  0.2014 -0.0476
   87CHL1   H20 8895   1.900   2.684   8.149 -0.0823  0.3894  1.6968
   87CHL1   C21 8896   1.764   2.854   8.175  0.1577  0.0549  0.6095
   87CHL1  H21A 8897   1.760   2.962   8.150  0.7964  0.4534  2.1403
   87CHL1  H21B 8898   1.741   2.844   8.283  1.3025  0.6083  0.9227
   87CHL1  H21C 8899   1.680   2.802   8.123  0.4382  0.1028  0.1028
   87CHL1   C22 8900   2.018   2.846   8.220 -0.3702 -0.1026  0.6984
   87CHL1  H22A 8901   2.111   2.789   8.199 -0.8108 -1.0710  1.3382
   87CHL1  H22B 8902   2.030   2.952   8.189 -0.8370 -0.0741  0.6078
   87CHL1   C23 8903   2.006   2.844   8.378 -0.2768  0.0629 -0.3309
   87CHL1  H23A 8904   2.094   2.894   8.424  0.7837 -0.8536 -1.3039
   87CHL1  H23B 8905   1.912   2.896   8.404 -0.0790  0.9927 -1.3887
   87CHL1   C24 8906   2.005   2.702   8.435 -0.6659  0.2017 -0.2423
   87CHL1  H24A 8907   1.932   2.638   8.381  1.1810 -0.6804 -1.7772
   87CHL1  H24B 8908   2.108   2.671   8.409 -0.3738  2.0822 -1.5589
   87CHL1   C25 8909   1.970   2.695   8.590  0.6199 -0.3303 -0.2791
   87CHL1   H25 8910   1.882   2.763   8.595  0.1537 -0.9721  0.4548
   87CHL1   C26 8911   1.928   2.553   8.630  0.5437  0.1005 -0.5721
   87CHL1  H26A 8912   2.020   2.492   8.617  1.9298  2.2150 -1.0575
   87CHL1  H26B 8913   1.910   2.551   8.740  0.3578 -0.1033 -0.6042
   87CHL1  H26C 8914   1.835   2.520   8.579 -1.2124  2.2814  1.0288
   87CHL1   C27 8915   2.077   2.735   8.687  0.5169 -0.6138  0.5996
   87CHL1  H27A 8916   2.162   2.663   8.686  0.1269 -1.1520 -2.1358
   87CHL1  H27B 8917   2.110   2.838   8.662  0.8996 -1.1080 -1.0773
   87CHL1  H27C 8918   2.033   2.738   8.789 -0.2329 -3.7150  0.4511
   88CHL1    C3 8919   5.147   0.340   7.009 -0.5450 -0.2393  0.8468
   88CHL1    H3 8920   5.252   0.373   7.027 -1.1152  1.8997  0.5249
   88CHL1    O3 8921   5.102   0.374   6.876  0.2637 -0.2522 -0.8360
   88CHL1   H3' 8922   5.030   0.316   6.850 -0.2471  0.5352 -1.2096
   88CHL1    C4 8923   5.144   0.187   7.021 -0.1998 -0.1993  0.7468
   88CHL1   H4A 8924   5.042   0.152   6.994 -0.7161 -0.3733  2.7641
   88CHL1   H4B 8925   5.210   0.153   6.938 -2.3901  1.6482 -1.9498
   88CHL1    C5 8926   5.171   0.138   7.160 -0.2746 -0.0407  0.2831
   88CHL1    C6 8927   5.255   0.046   7.188 -0.0763  0.7392 -0.3544
   88CHL1    H6 8928   5.307  -0.014   7.112 -0.3706 -0.4159  0.3295
   88CHL1    C7 8929   5.295   0.002   7.326  0.1103  0.1982 -0.6036
   88CHL1   H7A 8930   5.307  -0.108   7.340  1.5030  0.2590 -1.1681
   88CHL1   H7B 8931   5.385   0.061   7.353 -1.3311  1.4802  1.7163
   88CHL1    C8 8932   5.184   0.033   7.436 -0.1643 -0.0469 -0.5350
   88CHL1    H8 8933   5.106  -0.044   7.424  1.5110 -2.5103  2.6307
   88CHL1   C14 8934   5.237   0.016   7.585 -0.0069 -0.2902  0.0480
   88CHL1   H14 8935   5.323   0.085   7.594  2.5882 -3.4622  1.3846
   88CHL1   C15 8936   5.294  -0.122   7.621  0.1599  0.3035  0.0329
   88CHL1  H15A 8937   5.224  -0.194   7.573  0.7986  0.0424 -0.5233
   88CHL1  H15B 8938   5.395  -0.122   7.576  0.8825  0.0014  1.5833
   88CHL1   C16 8939   5.303  -0.116   7.777  0.1968 -0.5473 -0.6264
   88CHL1  H16A 8940   5.272  -0.212   7.823  0.4193  0.4036  1.6765
   88CHL1  H16B 8941   5.405  -0.093   7.817 -0.8907  0.4207  1.8347
   88CHL1   C17 8942   5.220   0.014   7.820 -0.0970 -0.6132 -0.0208
   88CHL1   H17 8943   5.302   0.089   7.831 -0.4015 -0.4437  1.2140
   88CHL1   C13 8944   5.131   0.044   7.696  0.0197  0.6100 -0.0586
   88CHL1   C18 8945   5.005  -0.047   7.691 -0.2778  0.2497 -0.0354
   88CHL1  H18A 8946   4.930  -0.012   7.765  0.0338  2.9405 -0.8789
   88CHL1  H18B 8947   4.957  -0.053   7.591 -0.4072  0.7114 -0.0001
   88CHL1  H18C 8948   5.030  -0.153   7.716  1.3253  0.0352 -2.2603
   88CHL1   C12 8949   5.090   0.189   7.675  0.1493 -0.2789  0.0630
   88CHL1  H12A 8950   5.020   0.222   7.755  1.5267  1.7611  0.4993
   88CHL1  H12B 8951   5.175   0.260   7.681 -0.9096  0.9979  0.2894
   88CHL1   C11 8952   5.036   0.206   7.534  0.0761  0.3292 -0.3640
   88CHL1  H11A 8953   4.938   0.155   7.520  0.6993 -0.9723 -0.1259
   88CHL1  H11B 8954   5.014   0.314   7.520  1.9525  0.8831  0.7547
   88CHL1    C9 8955   5.132   0.177   7.418  0.0442 -0.7072  0.1878
   88CHL1    H9 8956   5.218   0.247   7.430  1.0803 -1.7166 -1.0398
   88CHL1   C10 8957   5.090   0.223   7.267  0.2068  0.2443  0.5423
   88CHL1   C19 8958   4.942   0.169   7.260  0.0472 -0.2486  0.8928
   88CHL1  H19A 8959   4.905   0.174   7.155  4.8319  0.4915 -1.0057
   88CHL1  H19B 8960   4.941   0.061   7.284  0.0321 -0.2951  0.6864
   88CHL1  H19C 8961   4.869   0.228   7.320 -2.5151 -0.4177 -1.8683
   88CHL1    C1 8962   5.105   0.375   7.254  0.3586  0.1120 -0.1499
   88CHL1   H1A 8963   5.035   0.425   7.324  1.2024 -0.4199  1.0939
   88CHL1   H1B 8964   5.209   0.408   7.274  0.0370  1.9686 -1.2839
   88CHL1    C2 8965   5.062   0.412   7.108 -0.5170  0.3857 -0.9390
   88CHL1   H2A 8966   5.055   0.522   7.092 -0.8060  0.3821 -0.8382
   88CHL1   H2B 8967   4.955   0.383   7.107  0.0717 -2.3038  1.1829
   88CHL1   C20 8968   5.159  -0.005   7.963 -0.2191 -0.2766  0.9906
   88CHL1   H20 8969   5.094  -0.094   7.950  1.4805 -1.3680 -0.6681
   88CHL1   C21 8970   5.073   0.105   8.003  1.1150 -0.5377  0.3263
   88CHL1  H21A 8971   5.039   0.105   8.108 -0.2827 -1.6470 -0.0853
   88CHL1  H21B 8972   4.975   0.114   7.950  0.4334  0.0751  1.6416
   88CHL1  H21C 8973   5.121   0.205   7.995 -0.0683  0.0166 -0.1909
   88CHL1   C22 8974   5.256  -0.031   8.080 -1.1205 -0.5546  0.0555
   88CHL1  H22A 8975   5.339  -0.100   8.054  2.5257  3.2453  0.5226
   88CHL1  H22B 8976   5.297   0.067   8.112 -1.6765  0.2494 -1.5528
   88CHL1   C23 8977   5.180  -0.106   8.191  0.2144  0.2337 -0.1692
   88CHL1  H23A 8978   5.083  -0.061   8.222 -0.2628 -1.4735  0.9786
   88CHL1  H23B 8979   5.144  -0.203   8.150 -1.9206  0.3380  1.3111
   88CHL1   C24 8980   5.264  -0.120   8.322 -0.4038 -0.1978  0.1256
   88CHL1  H24A 8981   5.207  -0.190   8.387  1.1300 -2.4208 -0.7815
   88CHL1  H24B 8982   5.358  -0.174   8.297  1.4814  1.2499  3.3670
   88CHL1   C25 8983   5.315   0.013   8.393  0.1826  0.1752 -0.4820
   88CHL1   H25 8984   5.370   0.085   8.328  2.7143 -0.7821  0.4696
   88CHL1   C26 8985   5.193   0.086   8.453 -0.1248  0.5948  0.1678
   88CHL1  H26A 8986   5.217   0.180   8.506 -0.8691  0.6175  0.4771
   88CHL1  H26B 8987   5.124   0.124   8.374 -1.2240 -1.5166  0.0508
   88CHL1  H26C 8988   5.136   0.010   8.510 -0.8515  0.9895 -0.0281
   88CHL1   C27 8989   5.414  -0.021   8.508  0.0540  0.3954 -0.3474
   88CHL1  H27A 8990   5.442   0.083   8.533  0.0037  0.5620 -0.9796
   88CHL1  H27B 8991   5.376  -0.070   8.601 -0.8362 -1.2617 -1.5310
   88CHL1  H27C 8992   5.499  -0.078   8.466  0.7235  0.8670  0.3424
   89CHL1    C3 8993   0.810   2.031   7.158  0.1537  0.1259  0.2552
   89CHL1    H3 8994   0.909   1.997   7.193  0.0457 -2.1746 -1.4857
   89CHL1    O3 8995   0.790   1.954   7.039 -0.2005  0.0407  0.6202
   89CHL1   H3' 8996   0.766   2.016   6.970 -0.1439 -0.9634 -0.3409
   89CHL1    C4 8997   0.693   2.009   7.259 -0.5353  0.3342 -0.0528
   89CHL1   H4A 8998   0.601   2.050   7.211 -0.6687  0.2072  0.0944
   89CHL1   H4B 8999   0.675   1.902   7.283  2.9476 -0.2245  0.5163
   89CHL1    C5 9000   0.718   2.096   7.382  0.5633 -0.3851  0.3877
   89CHL1    C6 9001   0.728   2.049   7.508  1.3294  0.8335  0.0930
   89CHL1    H6 9002   0.711   1.942   7.527 -0.7767  1.0309 -0.4863
   89CHL1    C7 9003   0.740   2.124   7.637  0.4089 -0.4124  0.2874
   89CHL1   H7A 9004   0.669   2.093   7.717  1.0236  0.0153  1.0095
   89CHL1   H7B 9005   0.843   2.112   7.676 -0.3206 -1.0486  2.1532
   89CHL1    C8 9006   0.714   2.278   7.617 -0.1601  0.0911  0.2728
   89CHL1    H8 9007   0.604   2.296   7.613 -0.3437 -0.2278  2.5269
   89CHL1   C14 9008   0.767   2.358   7.739  0.7726  0.8025  0.3829
   89CHL1   H14 9009   0.876   2.340   7.737  0.2295 -3.4872 -1.4383
   89CHL1   C15 9010   0.708   2.326   7.874 -0.3264 -0.4078 -0.6921
   89CHL1  H15A 9011   0.598   2.317   7.864 -0.9656  2.1921  2.2644
   89CHL1  H15B 9012   0.749   2.231   7.914 -2.4392 -1.2436 -0.4094
   89CHL1   C16 9013   0.743   2.450   7.959 -0.2389 -0.0891  0.1305
   89CHL1  H16A 9014   0.649   2.476   8.012  0.0882  0.6553  0.3472
   89CHL1  H16B 9015   0.822   2.431   8.034 -0.7401  1.7802  1.1894
   89CHL1   C17 9016   0.788   2.565   7.860  0.2801  0.7146 -0.3638
   89CHL1   H17 9017   0.898   2.553   7.855  0.1981  0.3046 -1.6681
   89CHL1   C13 9018   0.746   2.508   7.719 -0.1361 -0.1362 -0.4639
   89CHL1   C18 9019   0.598   2.556   7.707  0.7475 -0.1779 -0.4167
   89CHL1  H18A 9020   0.593   2.658   7.664  0.5611  0.6438  1.4456
   89CHL1  H18B 9021   0.545   2.481   7.644  0.8948 -0.1201 -0.6110
   89CHL1  H18C 9022   0.556   2.559   7.810  0.7041  0.6944 -0.4551
   89CHL1   C12 9023   0.818   2.558   7.588 -0.5110  0.5692 -0.5937
   89CHL1  H12A 9024   0.794   2.666   7.579 -0.8883  0.3924 -1.8548
   89CHL1  H12B 9025   0.927   2.542   7.605 -1.0675 -1.4462  1.7418
   89CHL1   C11 9026   0.771   2.478   7.466  0.1543  0.2336  1.0508
   89CHL1  H11A 9027   0.663   2.492   7.441 -0.3021 -0.5276  2.4881
   89CHL1  H11B 9028   0.829   2.513   7.378 -0.6980 -2.9298 -0.9426
   89CHL1    C9 9029   0.781   2.321   7.484  0.4556 -1.0334 -0.0634
   89CHL1    H9 9030   0.889   2.294   7.484  0.8881  0.4761  1.9277
   89CHL1   C10 9031   0.729   2.247   7.356  0.2365 -0.1360 -0.5361
   89CHL1   C19 9032   0.588   2.297   7.310  0.4503 -0.3145  0.0796
   89CHL1  H19A 9033   0.600   2.394   7.258 -1.9816  1.0210  1.7899
   89CHL1  H19B 9034   0.529   2.223   7.252 -0.7078 -0.5838  1.5460
   89CHL1  H19C 9035   0.515   2.320   7.391 -0.1997 -0.9828 -0.3010
   89CHL1    C1 9036   0.836   2.268   7.248  0.0016  0.5192  0.0016
   89CHL1   H1A 9037   0.819   2.373   7.214 -0.4540 -0.5694 -3.5748
   89CHL1   H1B 9038   0.940   2.258   7.283  0.2465 -2.1921 -1.2460
   89CHL1    C2 9039   0.817   2.181   7.118 -0.5543  0.5449 -0.6690
   89CHL1   H2A 9040   0.902   2.197   7.048  2.0754  1.0262  2.3769
   89CHL1   H2B 9041   0.728   2.215   7.062 -1.2967  1.0854  0.7768
   89CHL1   C20 9042   0.760   2.710   7.906  0.2072 -0.1092 -0.6045
   89CHL1   H20 9043   0.656   2.740   7.880 -0.0279 -0.8184 -0.5164
   89CHL1   C21 9044   0.849   2.820   7.838 -0.2083 -0.6051  0.4072
   89CHL1  H21A 9045   0.956   2.803   7.863 -0.3158 -1.7543  0.1304
   89CHL1  H21B 9046   0.814   2.922   7.865  0.5592  0.1295 -1.2492
   89CHL1  H21C 9047   0.831   2.825   7.729  2.8938  1.7631 -0.1255
   89CHL1   C22 9048   0.763   2.746   8.060 -0.0906  0.7646  0.6599
   89CHL1  H22A 9049   0.743   2.856   8.056  1.1799  0.9998 -1.9297
   89CHL1  H22B 9050   0.683   2.691   8.114  0.8051 -0.5319  0.7002
   89CHL1   C23 9051   0.894   2.699   8.131  0.8209 -0.3891  0.2149
   89CHL1  H23A 9052   0.899   2.589   8.116 -0.2041 -0.1677 -2.2134
   89CHL1  H23B 9053   0.974   2.753   8.076 -1.0307  0.6871 -1.5838
   89CHL1   C24 9054   0.903   2.726   8.283 -0.1685 -1.1648  0.1955
   89CHL1  H24A 9055   0.898   2.834   8.308 -1.8435 -1.4743  1.4324
   89CHL1  H24B 9056   0.818   2.675   8.333 -1.7414 -0.7936 -1.9383
   89CHL1   C25 9057   1.041   2.694   8.350  0.3286  0.4339  0.3824
   89CHL1   H25 9058   1.131   2.719   8.290  0.1561 -1.2354 -0.6484
   89CHL1   C26 9059   1.055   2.777   8.483 -0.0806 -0.0642  0.2890
   89CHL1  H26A 9060   0.972   2.747   8.549 -1.2574  1.2958 -0.5191
   89CHL1  H26B 9061   1.150   2.741   8.528  0.2957  0.2756 -0.2172
   89CHL1  H26C 9062   1.063   2.886   8.464  2.4355 -0.1831  0.2190
   89CHL1   C27 9063   1.054   2.544   8.356 -0.2414 -0.3863 -0.1963
   89CHL1  H27A 9064   1.161   2.523   8.375 -0.6795 -2.2696  0.3325
   89CHL1  H27B 9065   0.994   2.508   8.442  0.9190 -1.3877  0.2188
   89CHL1  H27C 9066   1.032   2.489   8.263  1.7668  0.6665 -1.3664
   90CHL1    C3 9067   0.898   5.606   7.187  0.4249  0.4018  0.1200
   90CHL1    H3 9068   0.808   5.552   7.222  1.5780 -1.0049  1.0405
   90CHL1    O3 9069   0.908   5.596   7.047 -0.0721 -0.0745  0.0165
   90CHL1   H3' 9070   0.935   5.509   7.018 -0.5348 -0.8922  1.8914
   90CHL1    C4 9071   0.893   5.754   7.227  0.0888 -0.7693  0.1904
   90CHL1   H4A 9072   0.978   5.801   7.172 -0.7394 -0.3416 -0.7448
   90CHL1   H4B 9073   0.797   5.792   7.185  0.5902  1.7129  1.1338
   90CHL1    C5 9074   0.898   5.766   7.379  0.6299 -0.2333 -0.3661
   90CHL1    C6 9075   0.804   5.836   7.447  0.7216 -0.1995  0.2316
   90CHL1    H6 9076   0.727   5.893   7.394  0.0079 -1.3992 -0.0625
   90CHL1    C7 9077   0.804   5.861   7.596  0.3876 -0.1293 -0.3909
   90CHL1   H7A 9078   0.796   5.970   7.617 -0.0288 -0.5691  2.0412
   90CHL1   H7B 9079   0.715   5.809   7.636  1.6957 -4.4396 -2.4905
   90CHL1    C8 9080   0.930   5.818   7.663 -0.1898  0.3858 -0.3077
   90CHL1    H8 9081   1.012   5.891   7.647  1.0027 -0.7937  0.2515
   90CHL1   C14 9082   0.921   5.821   7.819  0.0713  0.4788  0.3186
   90CHL1   H14 9083   0.846   5.743   7.843  0.4379  0.0891  0.1879
   90CHL1   C15 9084   0.872   5.944   7.894 -0.5135  0.0130  0.2614
   90CHL1  H15A 9085   0.919   6.034   7.848 -0.6269 -1.3342 -2.6914
   90CHL1  H15B 9086   0.762   5.955   7.902 -0.4416  1.0632 -0.0805
   90CHL1   C16 9087   0.936   5.928   8.034 -0.2848  0.7838  0.8453
   90CHL1  H16A 9088   1.005   6.013   8.053  1.2025 -0.3814  0.8240
   90CHL1  H16B 9089   0.865   5.933   8.118  1.3881  1.0209  2.3069
   90CHL1   C17 9090   1.019   5.804   8.033 -0.4596 -0.2907 -0.0444
   90CHL1   H17 9091   0.950   5.720   8.058 -0.1555 -0.8268 -0.9789
   90CHL1   C13 9092   1.053   5.778   7.888  0.4550 -0.1842  0.4559
   90CHL1   C18 9093   1.173   5.872   7.853  0.6012 -0.3127  0.1369
   90CHL1  H18A 9094   1.157   5.968   7.906 -0.5200 -0.9046  0.9259
   90CHL1  H18B 9095   1.268   5.826   7.887  1.0485  0.2395 -0.3526
   90CHL1  H18C 9096   1.185   5.884   7.743 -0.9345  0.1559  0.0002
   90CHL1   C12 9097   1.082   5.636   7.846  0.1061  0.6428  0.4209
   90CHL1  H12A 9098   1.179   5.597   7.886  0.5344  0.2740 -0.9246
   90CHL1  H12B 9099   0.998   5.573   7.883 -0.5615  0.6709 -0.9798
   90CHL1   C11 9100   1.093   5.616   7.696  0.9540 -0.4608  0.4624
   90CHL1  H11A 9101   1.192   5.663   7.674 -0.1482  2.2345  0.8604
   90CHL1  H11B 9102   1.086   5.510   7.663 -1.9022 -1.2047  3.0532
   90CHL1    C9 9103   0.980   5.685   7.607  0.0714 -0.2593 -0.4633
   90CHL1    H9 9104   0.895   5.613   7.614  1.3356 -1.6695  2.9585
   90CHL1   C10 9105   1.007   5.695   7.458  0.3622  0.0695  0.6879
   90CHL1   C19 9106   1.139   5.774   7.447 -0.5105  0.1783 -0.2630
   90CHL1  H19A 9107   1.178   5.777   7.343 -0.1882  1.1803 -0.1224
   90CHL1  H19B 9108   1.118   5.882   7.461 -0.9593  0.0136  0.3741
   90CHL1  H19C 9109   1.225   5.734   7.505 -1.5431  0.0111  1.2065
   90CHL1    C1 9110   1.032   5.549   7.407 -0.3928  0.0259 -0.6718
   90CHL1   H1A 9111   1.130   5.510   7.440 -0.8855 -0.2038  0.6012
   90CHL1   H1B 9112   0.953   5.475   7.434 -0.4511  0.5831  0.7899
   90CHL1    C2 9113   1.022   5.539   7.255 -0.0470 -0.0408  0.6411
   90CHL1   H2A 9114   1.040   5.431   7.236 -0.7007 -0.0416 -0.0214
   90CHL1   H2B 9115   1.104   5.588   7.198 -1.8017  2.2628 -0.0659
   90CHL1   C20 9116   1.133   5.806   8.146 -0.1315  0.2280  0.2112
   90CHL1   H20 9117   1.212   5.880   8.122  0.9985 -0.0122  2.8725
   90CHL1   C21 9118   1.205   5.668   8.158 -0.1010  0.0284 -0.1366
   90CHL1  H21A 9119   1.133   5.584   8.168 -0.5325  0.3378 -0.5865
   90CHL1  H21B 9120   1.268   5.651   8.248 -0.4531 -3.5653 -0.4192
   90CHL1  H21C 9121   1.268   5.652   8.068  0.2113  0.4072  0.0142
   90CHL1   C22 9122   1.076   5.844   8.283  0.6314  0.0512 -0.2329
   90CHL1  H22A 9123   1.157   5.847   8.358  0.2462  1.4485  0.1543
   90CHL1  H22B 9124   1.046   5.951   8.285 -1.5377 -0.3851 -2.5033
   90CHL1   C23 9125   0.959   5.746   8.343 -0.1863 -0.1902 -0.2914
   90CHL1  H23A 9126   0.890   5.742   8.257 -0.2529  0.3695 -0.2726
   90CHL1  H23B 9127   0.999   5.644   8.361  0.8441  0.0515 -1.1372
   90CHL1   C24 9128   0.880   5.799   8.467 -0.2009 -0.3408 -0.4665
   90CHL1  H24A 9129   0.835   5.899   8.447  2.5213  0.5395 -2.7464
   90CHL1  H24B 9130   0.799   5.728   8.493 -0.0442 -0.8377 -1.3242
   90CHL1   C25 9131   0.964   5.807   8.597 -0.1029  0.2716  0.0384
   90CHL1   H25 9132   1.037   5.890   8.590 -1.4195  1.6013  1.3392
   90CHL1   C26 9133   0.874   5.829   8.721 -0.5261 -0.0961  0.7679
   90CHL1  H26A 9134   0.819   5.925   8.723 -0.6036 -0.1469  1.2417
   90CHL1  H26B 9135   0.802   5.746   8.740  1.1499 -1.0221  3.6887
   90CHL1  H26C 9136   0.938   5.828   8.812  0.6862  1.7134 -0.0004
   90CHL1   C27 9137   1.043   5.672   8.620  0.4132 -0.5057  0.0781
   90CHL1  H27A 9138   1.075   5.665   8.727  0.9476  0.1408 -0.0348
   90CHL1  H27B 9139   0.987   5.579   8.596  0.6529 -0.8858  0.9458
   90CHL1  H27C 9140   1.133   5.670   8.556  0.8607 -0.0229  0.6786
   91CHL1    C3 9141   2.529   5.754   7.256  0.1366  0.7169 -0.2561
   91CHL1    H3 9142   2.555   5.646   7.257 -2.5632 -0.0350 -1.2217
   91CHL1    O3 9143   2.486   5.790   7.126 -0.7344  0.0926 -0.2476
   91CHL1   H3' 9144   2.469   5.885   7.128 -1.2182  0.0326 -1.1961
   91CHL1    C4 9145   2.403   5.770   7.346 -0.0426 -0.1716  0.0847
   91CHL1   H4A 9146   2.359   5.870   7.329 -2.1415 -0.8861  0.9751
   91CHL1   H4B 9147   2.326   5.694   7.319 -0.5796 -0.2830  1.8288
   91CHL1    C5 9148   2.440   5.742   7.488  0.0257  0.4368 -0.4027
   91CHL1    C6 9149   2.352   5.663   7.560  0.3434  0.4140 -0.4882
   91CHL1    H6 9150   2.261   5.621   7.515  0.0830  0.7361 -0.2647
   91CHL1    C7 9151   2.359   5.660   7.709  0.5460  0.1069  0.2152
   91CHL1   H7A 9152   2.255   5.673   7.746 -0.5098 -3.5667 -1.0143
   91CHL1   H7B 9153   2.391   5.558   7.740  1.6986 -0.0802 -1.4741
   91CHL1    C8 9154   2.461   5.752   7.775 -0.1568 -0.0758 -0.0090
   91CHL1    H8 9155   2.413   5.852   7.777 -0.5251 -0.2223 -1.2269
   91CHL1   C14 9156   2.498   5.710   7.916  0.2715  0.9561  0.4353
   91CHL1   H14 9157   2.555   5.615   7.911  0.1127  0.8957 -0.5431
   91CHL1   C15 9158   2.387   5.681   8.019  0.3474 -0.5077  0.7146
   91CHL1  H15A 9159   2.316   5.762   7.991  3.7329  2.7821  0.8840
   91CHL1  H15B 9160   2.354   5.575   8.006  1.6824 -0.6947 -1.9764
   91CHL1   C16 9161   2.456   5.699   8.155  0.2267  0.1645  0.2732
   91CHL1  H16A 9162   2.385   5.766   8.208 -4.0752 -3.5626 -0.2341
   91CHL1  H16B 9163   2.451   5.611   8.223 -1.7218 -0.7781 -1.0001
   91CHL1   C17 9164   2.599   5.741   8.124  0.6298 -0.6173  0.3062
   91CHL1   H17 9165   2.646   5.641   8.118 -2.3544 -2.1598  0.5419
   91CHL1   C13 9166   2.597   5.799   7.985 -0.0535 -0.8605 -0.6005
   91CHL1   C18 9167   2.557   5.951   7.987 -0.3120  0.7800  0.3603
   91CHL1  H18A 9168   2.648   6.006   8.020  1.4272 -1.5899 -0.1693
   91CHL1  H18B 9169   2.522   5.983   7.887  0.4954 -3.0015 -1.2830
   91CHL1  H18C 9170   2.472   5.958   8.058 -1.7590  2.1242 -1.3956
   91CHL1   C12 9171   2.731   5.787   7.906 -0.5433 -0.1513 -0.0080
   91CHL1  H12A 9172   2.804   5.859   7.949 -0.7247  0.6889 -1.0388
   91CHL1  H12B 9173   2.764   5.682   7.909 -1.2765 -0.4039 -0.4385
   91CHL1   C11 9174   2.711   5.837   7.757 -0.6710  0.0076  0.2844
   91CHL1  H11A 9175   2.702   5.947   7.752  0.4082  0.0813 -0.6778
   91CHL1  H11B 9176   2.803   5.810   7.700  0.3209  0.7077  1.5155
   91CHL1    C9 9177   2.592   5.761   7.687  0.0952  0.6676 -0.1163
   91CHL1    H9 9178   2.628   5.656   7.680  0.4507  0.5468  2.4358
   91CHL1   C10 9179   2.555   5.813   7.551  0.3458 -0.6364  0.2054
   91CHL1   C19 9180   2.541   5.971   7.557 -0.2221  0.1727  0.8235
   91CHL1  H19A 9181   2.493   6.018   7.468  0.1556  0.1892  0.6240
   91CHL1  H19B 9182   2.464   5.994   7.634 -2.7450 -0.4162 -1.3861
   91CHL1  H19C 9183   2.633   6.025   7.588  1.0620 -1.2506 -0.3370
   91CHL1    C1 9184   2.676   5.789   7.453  0.0737 -0.0823 -0.4075
   91CHL1   H1A 9185   2.766   5.848   7.481  0.6273 -0.9358 -0.3438
   91CHL1   H1B 9186   2.694   5.680   7.462 -1.9096 -0.3178  1.3292
   91CHL1    C2 9187   2.648   5.826   7.307  0.1108 -0.5333 -0.1121
   91CHL1   H2A 9188   2.741   5.803   7.250  1.5479  0.2862  1.7869
   91CHL1   H2B 9189   2.636   5.936   7.300  2.9234 -0.1716 -0.5913
   91CHL1   C20 9190   2.670   5.811   8.242 -0.1871 -0.3082 -0.8361
   91CHL1   H20 9191   2.654   5.921   8.244  0.7929 -0.1628  0.7080
   91CHL1   C21 9192   2.824   5.806   8.233 -0.6185  0.1393 -0.3894
   91CHL1  H21A 9193   2.860   5.847   8.137  1.9494  0.4267  0.6286
   91CHL1  H21B 9194   2.856   5.700   8.239  0.1744  0.3323 -1.1212
   91CHL1  H21C 9195   2.873   5.874   8.306 -1.3135  0.5596 -0.3028
   91CHL1   C22 9196   2.623   5.765   8.386  0.3073 -0.0919 -0.3993
   91CHL1  H22A 9197   2.514   5.787   8.395 -0.1812 -1.1996 -2.6779
   91CHL1  H22B 9198   2.632   5.655   8.395  1.0974  0.0665  0.8623
   91CHL1   C23 9199   2.691   5.846   8.504  0.0473 -0.4374  0.4681
   91CHL1  H23A 9200   2.800   5.823   8.508  0.3201  0.7853  0.6550
   91CHL1  H23B 9201   2.684   5.954   8.478  1.1913 -0.3907  0.2841
   91CHL1   C24 9202   2.631   5.822   8.643  0.1084 -0.2765 -0.1981
   91CHL1  H24A 9203   2.527   5.854   8.619 -0.2545 -2.5522 -2.0446
   91CHL1  H24B 9204   2.638   5.712   8.662 -0.9863  0.0130  2.3711
   91CHL1   C25 9205   2.679   5.898   8.770 -0.8089  0.3033 -0.3855
   91CHL1   H25 9206   2.675   6.008   8.754  1.2845  0.6596  1.0482
   91CHL1   C26 9207   2.597   5.852   8.883  0.0680  0.2574 -0.5764
   91CHL1  H26A 9208   2.622   5.894   8.982 -3.8876 -0.3121  0.8096
   91CHL1  H26B 9209   2.493   5.886   8.870  0.0379  0.6471  0.5967
   91CHL1  H26C 9210   2.607   5.743   8.900  2.2286  0.5565  0.4659
   91CHL1   C27 9211   2.829   5.866   8.785  0.6554  0.5351  0.0757
   91CHL1  H27A 9212   2.858   5.892   8.888  1.7303 -1.3015  0.2904
   91CHL1  H27B 9213   2.855   5.758   8.773 -1.3673  0.2768 -3.1798
   91CHL1  H27C 9214   2.892   5.928   8.717  2.9193  3.0593  4.0594
   92CHL1    C3 9215   4.570   0.596   7.184 -0.2707 -0.0673 -0.4803
   92CHL1    H3 9216   4.460   0.588   7.186 -0.5142  1.8544  3.2993
   92CHL1    O3 9217   4.613   0.590   7.046 -0.5273 -0.3509  0.1085
   92CHL1   H3' 9218   4.536   0.579   6.990 -0.0226 -1.1296 -0.4457
   92CHL1    C4 9219   4.608   0.730   7.249  0.8249 -0.1048  0.3958
   92CHL1   H4A 9220   4.708   0.771   7.223 -0.2371  1.9463 -0.7362
   92CHL1   H4B 9221   4.543   0.808   7.203  3.4133  0.6232 -2.3022
   92CHL1    C5 9222   4.599   0.742   7.396 -0.1979  0.4616  0.5742
   92CHL1    C6 9223   4.535   0.836   7.465 -0.0484  0.7380  0.3146
   92CHL1    H6 9224   4.466   0.893   7.402 -1.5462 -1.9858 -0.6841
   92CHL1    C7 9225   4.527   0.843   7.620 -0.7744 -0.3270  0.3036
   92CHL1   H7A 9226   4.547   0.950   7.643  2.1958 -0.8941  0.7073
   92CHL1   H7B 9227   4.425   0.809   7.650 -0.9134 -2.4008 -2.1176
   92CHL1    C8 9228   4.633   0.761   7.679 -0.3589 -0.0261 -0.2459
   92CHL1    H8 9229   4.727   0.818   7.662 -0.2057 -0.4121 -0.7042
   92CHL1   C14 9230   4.588   0.741   7.826  0.0578 -0.8574 -0.4357
   92CHL1   H14 9231   4.496   0.680   7.813 -0.9037  0.4203  0.1441
   92CHL1   C15 9232   4.540   0.865   7.906  0.7378 -0.5966 -0.1226
   92CHL1  H15A 9233   4.615   0.945   7.890 -0.8507  0.8011 -0.9438
   92CHL1  H15B 9234   4.435   0.897   7.888  0.0962 -2.5377 -0.0809
   92CHL1   C16 9235   4.560   0.818   8.049  0.4946  0.0231 -0.7570
   92CHL1  H16A 9236   4.626   0.893   8.098  0.8909 -0.3831 -0.6645
   92CHL1  H16B 9237   4.464   0.817   8.104  2.2279 -1.3083  2.5730
   92CHL1   C17 9238   4.620   0.674   8.054  0.6306 -0.6645 -0.3862
   92CHL1   H17 9239   4.540   0.597   8.046 -0.1847  0.0378  0.7590
   92CHL1   C13 9240   4.689   0.670   7.915 -0.0512  0.1640 -0.6472
   92CHL1   C18 9241   4.819   0.748   7.928  0.1672  0.4820 -0.1117
   92CHL1  H18A 9242   4.879   0.683   7.995  0.4456  0.4912 -0.3527
   92CHL1  H18B 9243   4.872   0.749   7.831 -0.4198  0.4736 -0.4395
   92CHL1  H18C 9244   4.817   0.849   7.974  1.8530  0.8409 -0.7742
   92CHL1   C12 9245   4.713   0.532   7.846  0.0131  0.0835  0.0711
   92CHL1  H12A 9246   4.792   0.475   7.901 -0.6807 -1.2049 -0.2218
   92CHL1  H12B 9247   4.624   0.466   7.855  1.8999 -2.5085  1.5040
   92CHL1   C11 9248   4.758   0.543   7.699 -0.3531 -0.5602 -0.0377
   92CHL1  H11A 9249   4.860   0.586   7.692 -0.2709 -0.9041 -1.1219
   92CHL1  H11B 9250   4.760   0.445   7.646  0.0627 -0.5439 -0.0526
   92CHL1    C9 9251   4.652   0.630   7.620  0.0195  0.8475  0.3796
   92CHL1    H9 9252   4.560   0.569   7.628  1.2766 -1.1709  0.1844
   92CHL1   C10 9253   4.680   0.632   7.460  0.4000  0.2714  0.0320
   92CHL1   C19 9254   4.834   0.662   7.446  0.1427 -0.0034  0.0212
   92CHL1  H19A 9255   4.862   0.747   7.512  2.7093 -0.3491 -0.5202
   92CHL1  H19B 9256   4.900   0.579   7.478 -0.5049  0.2457  2.1606
   92CHL1  H19C 9257   4.859   0.686   7.340  1.0689 -1.0897 -0.0218
   92CHL1    C1 9258   4.633   0.495   7.404  0.1715  0.2759  0.3360
   92CHL1   H1A 9259   4.693   0.413   7.447  1.3488  0.5240 -0.7601
   92CHL1   H1B 9260   4.526   0.475   7.426  0.4118 -2.5724 -0.7407
   92CHL1    C2 9261   4.640   0.484   7.255 -1.3186  0.0097  0.2885
   92CHL1   H2A 9262   4.584   0.395   7.222 -0.1733 -1.4590  2.1179
   92CHL1   H2B 9263   4.745   0.479   7.218 -1.3678 -0.4112  0.2126
   92CHL1   C20 9264   4.695   0.650   8.185 -0.0668  0.4620 -0.7844
   92CHL1   H20 9265   4.800   0.685   8.186  0.4515 -0.9278 -2.2700
   92CHL1   C21 9266   4.700   0.493   8.202  0.0531 -0.8487 -0.6119
   92CHL1  H21A 9267   4.693   0.440   8.105 -2.6050 -3.7057  0.9937
   92CHL1  H21B 9268   4.619   0.451   8.265  1.7225 -3.0206  0.2002
   92CHL1  H21C 9269   4.793   0.473   8.259  0.4616  1.1676 -0.4854
   92CHL1   C22 9270   4.625   0.725   8.306 -0.4780 -0.2364  0.4059
   92CHL1  H22A 9271   4.612   0.835   8.292  0.2529 -0.4508 -2.7760
   92CHL1  H22B 9272   4.525   0.678   8.305  0.1329 -1.5654 -0.6447
   92CHL1   C23 9273   4.682   0.704   8.447 -1.2381  0.1295  0.3941
   92CHL1  H23A 9274   4.615   0.757   8.518  0.3400  2.3225  0.3586
   92CHL1  H23B 9275   4.686   0.595   8.471  1.6559  0.2434  0.8100
   92CHL1   C24 9276   4.820   0.766   8.449 -0.2936 -0.2447  0.2114
   92CHL1  H24A 9277   4.889   0.696   8.397 -0.3046 -0.3579  0.3488
   92CHL1  H24B 9278   4.821   0.857   8.385  0.4450 -1.3883 -1.4794
   92CHL1   C25 9279   4.876   0.797   8.594 -0.4460  0.0322  0.9553
   92CHL1   H25 9280   4.975   0.843   8.571  0.0417 -1.7992 -0.9741
   92CHL1   C26 9281   4.790   0.889   8.672 -0.6970 -0.3236 -0.2023
   92CHL1  H26A 9282   4.806   0.994   8.640 -1.3964 -0.5836 -1.4940
   92CHL1  H26B 9283   4.679   0.885   8.668 -0.6889  0.1707 -1.9687
   92CHL1  H26C 9284   4.816   0.877   8.779  1.1758 -0.5922 -0.6509
   92CHL1   C27 9285   4.905   0.664   8.676  0.2821  0.6379  0.1374
   92CHL1  H27A 9286   4.985   0.601   8.632 -1.1799  0.3315 -2.2805
   92CHL1  H27B 9287   4.916   0.679   8.786 -0.5145 -1.5202  0.5574
   92CHL1  H27C 9288   4.810   0.605   8.673  0.5146  0.2785 -2.2352
   93CHL1    C3 9289   5.200   5.106   6.992 -0.4171  0.1889  0.6401
   93CHL1    H3 9290   5.213   5.208   7.034  0.4019  0.6213 -0.6002
   93CHL1    O3 9291   5.192   5.101   6.848 -1.0163 -0.0653 -1.0540
   93CHL1   H3' 9292   5.108   5.066   6.818 -2.5062  0.9447  1.6397
   93CHL1    C4 9293   5.311   5.011   7.039 -0.4888  0.1083 -0.7427
   93CHL1   H4A 9294   5.296   4.909   6.997 -0.4969  0.0975 -0.7128
   93CHL1   H4B 9295   5.411   5.032   6.996  0.3943 -1.5746  0.3515
   93CHL1    C5 9296   5.328   5.009   7.190 -0.8170  0.1393 -0.4531
   93CHL1    C6 9297   5.441   5.048   7.252  0.3568 -0.7472 -0.5129
   93CHL1    H6 9298   5.521   5.089   7.189  0.5585 -0.0996  0.1605
   93CHL1    C7 9299   5.459   5.049   7.400  0.0014 -0.2421  0.1606
   93CHL1   H7A 9300   5.560   5.015   7.431 -0.7356 -2.4129  0.3358
   93CHL1   H7B 9301   5.454   5.155   7.432  1.0850  0.1025 -0.7162
   93CHL1    C8 9302   5.355   4.963   7.466 -0.3420  0.5925 -0.0140
   93CHL1    H8 9303   5.385   4.858   7.446  1.2830  0.7403  1.4199
   93CHL1   C14 9304   5.364   4.991   7.621 -0.0904  0.2952  0.3217
   93CHL1   H14 9305   5.330   5.096   7.626 -1.4256 -0.1266  0.5477
   93CHL1   C15 9306   5.503   4.993   7.690  0.5780  0.0576  0.2654
   93CHL1  H15A 9307   5.562   4.907   7.653 -0.1677 -0.5772  0.5102
   93CHL1  H15B 9308   5.542   5.095   7.671 -1.4090  0.6270 -1.1170
   93CHL1   C16 9309   5.466   4.979   7.836 -0.3345 -0.0722  0.1521
   93CHL1  H16A 9310   5.507   4.887   7.882 -1.4218 -0.3052  0.6739
   93CHL1  H16B 9311   5.499   5.068   7.895  1.3655 -0.1227 -0.6367
   93CHL1   C17 9312   5.305   4.961   7.840  0.8046 -0.3614 -0.6876
   93CHL1   H17 9313   5.267   5.064   7.854  3.6165  0.8163 -1.1238
   93CHL1   C13 9314   5.263   4.909   7.704  0.6726  0.6250  0.5395
   93CHL1   C18 9315   5.291   4.755   7.700  0.1999 -0.2030  0.0192
   93CHL1  H18A 9316   5.208   4.694   7.743 -0.6158  1.2526  0.5533
   93CHL1  H18B 9317   5.287   4.711   7.598 -1.1555 -2.3248  0.9010
   93CHL1  H18C 9318   5.385   4.731   7.755 -0.5847 -1.4526  0.9019
   93CHL1   C12 9319   5.121   4.957   7.653  0.8331 -0.4405 -0.2287
   93CHL1  H12A 9320   5.037   4.903   7.703  0.2116  1.4716  0.8816
   93CHL1  H12B 9321   5.110   5.067   7.660  0.2598 -0.4343 -1.1126
   93CHL1   C11 9322   5.112   4.915   7.498 -0.1709 -0.2491 -1.0941
   93CHL1  H11A 9323   5.129   4.805   7.489 -0.4683 -0.2559 -1.6627
   93CHL1  H11B 9324   5.006   4.938   7.472  0.1041  2.7330  0.0294
   93CHL1    C9 9325   5.209   4.989   7.413 -0.4972 -0.4620  0.8404
   93CHL1    H9 9326   5.193   5.098   7.431 -0.6964 -0.3167 -0.1357
   93CHL1   C10 9327   5.194   4.967   7.263 -0.5554  0.2141 -0.4549
   93CHL1   C19 9328   5.180   4.813   7.243  0.3383 -0.2274  0.6168
   93CHL1  H19A 9329   5.090   4.761   7.283 -1.1316 -1.2304 -3.5132
   93CHL1  H19B 9330   5.180   4.788   7.135  2.3544 -1.7838  0.9116
   93CHL1  H19C 9331   5.270   4.761   7.284  0.9042  0.0993 -0.1975
   93CHL1    C1 9332   5.078   5.049   7.205  0.0938 -0.5562 -0.3236
   93CHL1   H1A 9333   4.981   5.008   7.242  0.6279 -0.0680  1.7102
   93CHL1   H1B 9334   5.079   5.154   7.242 -1.5009 -1.0625  1.3433
   93CHL1    C2 9335   5.072   5.050   7.052  0.8712 -0.1146  0.0951
   93CHL1   H2A 9336   4.976   5.092   7.013  0.3515 -1.1137  0.2840
   93CHL1   H2B 9337   5.075   4.943   7.022  0.0098 -0.0900 -0.1040
   93CHL1   C20 9338   5.259   4.876   7.970  0.0790 -0.7201  0.5033
   93CHL1   H20 9339   5.297   4.772   7.958  2.2192  0.1457 -0.7434
   93CHL1   C21 9340   5.106   4.861   7.972 -0.0562  0.1486 -0.2609
   93CHL1  H21A 9341   5.073   4.798   7.887  1.2433 -1.8221  0.6367
   93CHL1  H21B 9342   5.053   4.959   7.971 -1.9128 -0.7721 -2.5548
   93CHL1  H21C 9343   5.066   4.809   8.062 -0.0932 -0.5393 -0.6663
   93CHL1   C22 9344   5.322   4.947   8.097  0.0281  0.0650  0.1869
   93CHL1  H22A 9345   5.424   4.986   8.075  0.3762 -0.8600  0.1159
   93CHL1  H22B 9346   5.259   5.032   8.133 -1.2989  0.0352 -1.9002
   93CHL1   C23 9347   5.338   4.850   8.220  0.5630  0.8543 -0.3378
   93CHL1  H23A 9348   5.240   4.798   8.223  0.8838  0.2657  0.2829
   93CHL1  H23B 9349   5.416   4.770   8.218 -0.7970 -0.5403  0.3113
   93CHL1   C24 9350   5.344   4.934   8.349 -0.1620  0.2646 -0.1555
   93CHL1  H24A 9351   5.414   5.011   8.310  1.5038 -0.8613  0.4930
   93CHL1  H24B 9352   5.244   4.973   8.376 -0.8687 -3.4182  3.7175
   93CHL1   C25 9353   5.384   4.850   8.470 -0.1941 -0.5904  0.2553
   93CHL1   H25 9354   5.479   4.797   8.447 -0.4237 -1.6300  1.5861
   93CHL1   C26 9355   5.405   4.924   8.604 -0.3261  0.9631  0.2358
   93CHL1  H26A 9356   5.469   4.862   8.670 -1.1172 -1.2685 -1.0184
   93CHL1  H26B 9357   5.455   5.020   8.579  1.2074  0.6547  1.9187
   93CHL1  H26C 9358   5.305   4.941   8.651 -1.1905 -0.4485 -1.0177
   93CHL1   C27 9359   5.288   4.736   8.502  0.6716  0.0848  0.2669
   93CHL1  H27A 9360   5.242   4.703   8.406 -0.5787 -0.2662  0.9729
   93CHL1  H27B 9361   5.320   4.648   8.561  0.7119  1.4912  2.4438
   93CHL1  H27C 9362   5.198   4.777   8.553  0.1791  0.4443 -0.8502
   94CHL1    C3 9363   0.593   0.430   7.096 -0.4162 -0.4121  0.4130
   94CHL1    H3 9364   0.569   0.531   7.058 -1.8884 -0.9845 -0.2771
   94CHL1    O3 9365   0.615   0.345   6.986 -0.3198  0.0304 -0.3810
   94CHL1   H3' 9366   0.527   0.323   6.956  0.2947 -0.3677 -1.9670
   94CHL1    C4 9367   0.714   0.447   7.189  0.2883  0.4147  0.3981
   94CHL1   H4A 9368   0.745   0.347   7.227  0.2988 -0.2018 -1.1471
   94CHL1   H4B 9369   0.798   0.483   7.126 -0.6091 -2.5729 -2.8529
   94CHL1    C5 9370   0.679   0.531   7.313 -0.5607 -0.8851  0.1909
   94CHL1    C6 9371   0.751   0.641   7.347 -0.2207 -0.6594 -0.7092
   94CHL1    H6 9372   0.827   0.679   7.278  1.7845 -1.2089  1.0750
   94CHL1    C7 9373   0.723   0.708   7.477 -0.0050  0.2598 -1.0714
   94CHL1   H7A 9374   0.817   0.739   7.528 -0.3029 -1.1448  0.4279
   94CHL1   H7B 9375   0.648   0.787   7.452  0.1766  0.0397 -2.3194
   94CHL1    C8 9376   0.635   0.629   7.587 -0.2425  0.0846 -0.8759
   94CHL1    H8 9377   0.691   0.542   7.626 -1.1108 -0.2922 -0.4275
   94CHL1   C14 9378   0.596   0.719   7.705 -1.1376  0.1165 -0.5798
   94CHL1   H14 9379   0.536   0.802   7.661 -2.2947 -1.3337 -1.8560
   94CHL1   C15 9380   0.710   0.793   7.783  0.1821 -0.2158  0.3712
   94CHL1  H15A 9381   0.788   0.727   7.827 -1.1927 -2.9317 -1.0192
   94CHL1  H15B 9382   0.757   0.877   7.728 -1.6516  1.6641  1.4913
   94CHL1   C16 9383   0.633   0.847   7.906 -0.2841  0.0398  0.4087
   94CHL1  H16A 9384   0.695   0.828   7.996  1.8806 -1.3788 -1.2560
   94CHL1  H16B 9385   0.607   0.955   7.894  1.6811  0.4225 -0.8989
   94CHL1   C17 9386   0.500   0.765   7.911  0.6719 -0.0540  0.6812
   94CHL1   H17 9387   0.418   0.830   7.872 -0.3180 -0.8853  1.3284
   94CHL1   C13 9388   0.515   0.648   7.806 -0.2131  0.6594 -0.4235
   94CHL1   C18 9389   0.593   0.529   7.876  0.7465 -0.1410 -0.3190
   94CHL1  H18A 9390   0.524   0.481   7.949 -0.3941  0.8054 -0.7408
   94CHL1  H18B 9391   0.631   0.457   7.801 -1.3375  0.1046 -1.6875
   94CHL1  H18C 9392   0.681   0.578   7.925  0.2596  0.3708  0.0573
   94CHL1   C12 9393   0.378   0.616   7.729  0.5247 -0.2627  0.4684
   94CHL1  H12A 9394   0.294   0.583   7.794 -1.6018 -0.5785 -2.2282
   94CHL1  H12B 9395   0.339   0.711   7.686 -0.0535 -1.1926 -1.1594
   94CHL1   C11 9396   0.397   0.521   7.610  0.8648 -0.4675  0.1110
   94CHL1  H11A 9397   0.418   0.420   7.651 -1.0547 -0.6436  0.8014
   94CHL1  H11B 9398   0.306   0.506   7.548 -0.2450  0.0682  1.5462
   94CHL1    C9 9399   0.510   0.576   7.509 -0.5084  0.9670  0.5112
   94CHL1    H9 9400   0.459   0.661   7.459 -0.4378 -0.9737 -3.2203
   94CHL1   C10 9401   0.549   0.482   7.391 -0.9241  0.3787  0.6972
   94CHL1   C19 9402   0.579   0.346   7.462 -0.4742 -0.2257  0.7192
   94CHL1  H19A 9403   0.642   0.361   7.553 -0.0566  2.1970  0.1186
   94CHL1  H19B 9404   0.488   0.289   7.489 -1.4955  0.4291 -1.1869
   94CHL1  H19C 9405   0.640   0.282   7.395  0.5576  1.3454  0.0889
   94CHL1    C1 9406   0.433   0.460   7.289  0.4288 -0.1480  0.6165
   94CHL1   H1A 9407   0.348   0.405   7.335  0.2758 -0.1300  0.3603
   94CHL1   H1B 9408   0.381   0.546   7.242  0.6865 -1.2183 -1.8006
   94CHL1    C2 9409   0.478   0.371   7.173 -0.3520 -0.0992  1.1676
   94CHL1   H2A 9410   0.390   0.359   7.106 -0.3194  0.1464  1.0803
   94CHL1   H2B 9411   0.498   0.266   7.205  0.4161  0.1866  1.6470
   94CHL1   C20 9412   0.453   0.731   8.055 -0.5304 -0.6642  0.1808
   94CHL1   H20 9413   0.534   0.679   8.110 -0.2884 -1.8450 -1.2328
   94CHL1   C21 9414   0.328   0.643   8.051 -0.7022 -0.2054 -0.3204
   94CHL1  H21A 9415   0.344   0.547   7.998 -0.4921  0.2495 -1.0927
   94CHL1  H21B 9416   0.235   0.679   8.002 -1.8944 -1.8257  0.6400
   94CHL1  H21C 9417   0.290   0.626   8.154 -3.5572  0.1522 -1.2065
   94CHL1   C22 9418   0.426   0.872   8.126  0.3681 -0.1945 -0.1386
   94CHL1  H22A 9419   0.514   0.938   8.107 -0.5517  1.4434  1.0631
   94CHL1  H22B 9420   0.332   0.926   8.101 -0.1965 -1.4802 -0.8875
   94CHL1   C23 9421   0.425   0.859   8.284  0.3498 -0.4266  0.3057
   94CHL1  H23A 9422   0.323   0.822   8.312 -0.4542  2.3611  1.4113
   94CHL1  H23B 9423   0.504   0.790   8.319 -0.9048 -2.4383 -0.5752
   94CHL1   C24 9424   0.461   0.994   8.352  0.1107 -0.4521  0.0245
   94CHL1  H24A 9425   0.567   1.003   8.319  0.2240  0.3132  0.5791
   94CHL1  H24B 9426   0.398   1.078   8.317 -0.6788 -1.1005 -0.1408
   94CHL1   C25 9427   0.431   0.977   8.508 -0.5375 -0.1136 -0.1314
   94CHL1   H25 9428   0.391   0.874   8.514 -2.7917  0.5418 -2.2498
   94CHL1   C26 9429   0.562   0.999   8.591  0.0242  0.0077  0.5035
   94CHL1  H26A 9430   0.645   0.930   8.566 -0.4599  0.6392 -3.5871
   94CHL1  H26B 9431   0.594   1.104   8.571  0.4243 -0.2249 -0.0941
   94CHL1  H26C 9432   0.539   0.995   8.699 -1.6559  1.8880  0.2866
   94CHL1   C27 9433   0.325   1.084   8.548 -0.1150 -0.2222  0.4356
   94CHL1  H27A 9434   0.239   1.068   8.479  0.9661 -1.5724 -0.6531
   94CHL1  H27B 9435   0.289   1.059   8.650  0.9733 -3.3427  0.1388
   94CHL1  H27C 9436   0.350   1.192   8.535 -2.0007  0.3228  0.9632
   95CHL1    C3 9437   5.830   0.873   6.620 -0.1986  0.0534 -0.6518
   95CHL1    H3 9438   5.756   0.796   6.649 -2.6918  2.5672  0.0477
   95CHL1    O3 9439   5.853   0.868   6.479  0.6516  0.1789 -0.0812
   95CHL1   H3' 9440   5.904   0.944   6.450  0.7222 -0.0498 -0.5828
   95CHL1    C4 9441   5.762   1.010   6.650  0.4020  0.5145 -0.7042
   95CHL1   H4A 9442   5.839   1.086   6.624  3.0731 -0.3267  3.6646
   95CHL1   H4B 9443   5.673   1.020   6.585 -0.5250  1.8069  0.6993
   95CHL1    C5 9444   5.722   1.031   6.795  0.0303 -0.0805 -0.0898
   95CHL1    C6 9445   5.599   1.057   6.835 -0.0073  0.4619  0.3707
   95CHL1    H6 9446   5.520   1.085   6.764 -0.9901  3.0517  2.2908
   95CHL1    C7 9447   5.567   1.090   6.981 -0.2631  0.1883  0.5727
   95CHL1   H7A 9448   5.502   1.179   6.990 -0.4874  0.0353  0.4690
   95CHL1   H7B 9449   5.505   1.014   7.032  2.8472 -1.2431  2.5535
   95CHL1    C8 9450   5.692   1.101   7.071 -0.1050  0.2639  0.5789
   95CHL1    H8 9451   5.727   1.204   7.047 -0.3528 -0.0010 -1.0420
   95CHL1   C14 9452   5.678   1.084   7.220  0.3902  0.5365  1.3047
   95CHL1   H14 9453   5.651   0.977   7.230  0.5056  0.4913  1.1396
   95CHL1   C15 9454   5.562   1.156   7.276  0.6697 -0.5153 -0.3467
   95CHL1  H15A 9455   5.553   1.260   7.238  2.6510 -0.6602 -1.2957
   95CHL1  H15B 9456   5.475   1.092   7.250  0.1677 -0.8240  1.8399
   95CHL1   C16 9457   5.592   1.155   7.427  0.4755 -0.6227 -0.0045
   95CHL1  H16A 9458   5.584   1.261   7.459 -0.1222 -0.5569 -0.3586
   95CHL1  H16B 9459   5.537   1.085   7.493  0.5374  1.2757  2.1778
   95CHL1   C17 9460   5.738   1.098   7.453  0.6224  0.5216 -0.0194
   95CHL1   H17 9461   5.723   0.990   7.475 -1.4861  1.0433  1.3774
   95CHL1   C13 9462   5.801   1.107   7.309 -0.1173  0.1340  0.0402
   95CHL1   C18 9463   5.874   1.249   7.278  0.0623  0.2061  0.2432
   95CHL1  H18A 9464   5.793   1.323   7.295 -1.8565 -2.0514  1.4898
   95CHL1  H18B 9465   5.958   1.264   7.348 -0.4792 -0.2649  1.0120
   95CHL1  H18C 9466   5.921   1.267   7.179  0.6363  2.7877  0.9142
   95CHL1   C12 9467   5.896   0.996   7.275 -0.0203  0.9930  0.3162
   95CHL1  H12A 9468   6.000   1.009   7.314  0.8691  0.9972 -1.9343
   95CHL1  H12B 9469   5.855   0.901   7.315  0.2788 -0.0050 -1.6773
   95CHL1   C11 9470   5.923   0.993   7.125  0.5783  0.3092 -0.1177
   95CHL1  H11A 9471   5.989   1.081   7.107 -0.1655  0.7467 -0.7775
   95CHL1  H11B 9472   5.987   0.904   7.106  0.3785  0.3259 -0.8999
   95CHL1    C9 9473   5.795   0.996   7.031 -0.5396  0.3003  0.3502
   95CHL1    H9 9474   5.740   0.901   7.047  0.3656  0.1689  3.1622
   95CHL1   C10 9475   5.847   1.006   6.882  0.1603  0.1329 -0.3282
   95CHL1   C19 9476   5.941   1.128   6.857  1.0754  0.6963  0.5101
   95CHL1  H19A 9477   5.985   1.124   6.755  0.2664 -2.4271  0.1819
   95CHL1  H19B 9478   5.887   1.224   6.875  0.2439  0.0070  1.7985
   95CHL1  H19C 9479   6.027   1.134   6.927  0.9578  0.4409  0.6773
   95CHL1    C1 9480   5.922   0.878   6.839 -0.4674 -0.4761 -0.2407
   95CHL1   H1A 9481   6.016   0.875   6.898 -0.8737  2.3212  0.6573
   95CHL1   H1B 9482   5.852   0.797   6.870  1.3559 -2.2141 -0.4444
   95CHL1    C2 9483   5.959   0.860   6.690  0.5618  0.1951  0.0454
   95CHL1   H2A 9484   6.002   0.758   6.683  1.2691  0.3849  1.2974
   95CHL1   H2B 9485   6.024   0.940   6.647  1.6683 -0.1656  0.9850
   95CHL1   C20 9486   5.816   1.161   7.573 -0.1885  0.0002  0.3192
   95CHL1   H20 9487   5.852   1.260   7.538  0.9448 -1.3764 -2.7612
   95CHL1   C21 9488   5.939   1.077   7.603  0.7693 -0.1514 -0.3760
   95CHL1  H21A 9489   5.913   0.974   7.636  2.0220 -1.2519 -2.5858
   95CHL1  H21B 9490   5.991   1.131   7.686 -0.7477  0.9809 -0.1178
   95CHL1  H21C 9491   6.004   1.068   7.514 -0.5314 -0.1114 -1.3529
   95CHL1   C22 9492   5.728   1.178   7.703 -0.1311  0.1094  0.4506
   95CHL1  H22A 9493   5.625   1.220   7.700  0.2225  1.1584  1.9506
   95CHL1  H22B 9494   5.710   1.072   7.729  0.4013 -0.6623 -2.0227
   95CHL1   C23 9495   5.805   1.239   7.816  0.8548  0.1185  0.0423
   95CHL1  H23A 9496   5.897   1.183   7.842 -0.5959 -1.8493  1.2157
   95CHL1  H23B 9497   5.825   1.345   7.787  0.3392 -0.0302 -0.9123
   95CHL1   C24 9498   5.714   1.232   7.941 -0.0952  0.1342 -0.1817
   95CHL1  H24A 9499   5.625   1.297   7.922 -1.1430 -0.1476  3.0197
   95CHL1  H24B 9500   5.674   1.130   7.959 -2.4594  0.9730 -0.3223
   95CHL1   C25 9501   5.783   1.283   8.072 -0.6057 -0.3514  0.5021
   95CHL1   H25 9502   5.855   1.211   8.116 -0.0417  0.0282  0.2144
   95CHL1   C26 9503   5.875   1.408   8.046  0.2456 -1.0264  0.2614
   95CHL1  H26A 9504   5.818   1.502   8.025 -0.9256 -1.2034  2.4409
   95CHL1  H26B 9505   5.935   1.430   8.136  0.0851 -1.0558  0.3764
   95CHL1  H26C 9506   5.944   1.380   7.963 -0.9585  0.0557 -1.1807
   95CHL1   C27 9507   5.672   1.307   8.175  0.0899  0.6607  0.3283
   95CHL1  H27A 9508   5.631   1.409   8.158  0.8876  0.9173 -0.1060
   95CHL1  H27B 9509   5.595   1.227   8.163  0.2459  0.2313  2.0419
   95CHL1  H27C 9510   5.702   1.300   8.281 -2.2903 -1.6261  0.9523
   96CHL1    C3 9511   6.719   5.658   6.737 -0.7840 -0.2964  0.1817
   96CHL1    H3 9512   6.662   5.563   6.736 -0.2959 -0.6502  2.0449
   96CHL1    O3 9513   6.759   5.672   6.603  0.2917 -0.2055 -0.5243
   96CHL1   H3' 9514   6.688   5.635   6.550 -2.9277  2.9049  1.1372
   96CHL1    C4 9515   6.632   5.776   6.785  0.4725  0.5138  0.6835
   96CHL1   H4A 9516   6.688   5.868   6.759  3.4924 -2.0451 -3.1438
   96CHL1   H4B 9517   6.548   5.783   6.713 -0.0725  0.1993  1.2762
   96CHL1    C5 9518   6.592   5.767   6.927 -0.7924 -0.8135  0.0192
   96CHL1    C6 9519   6.459   5.755   6.964 -0.2496  0.3082  0.8152
   96CHL1    H6 9520   6.385   5.764   6.883  0.4450  0.3725  0.1777
   96CHL1    C7 9521   6.409   5.741   7.107 -0.0560  0.1987  0.5657
   96CHL1   H7A 9522   6.333   5.818   7.135  0.2780  0.3338  1.1198
   96CHL1   H7B 9523   6.380   5.635   7.119  0.1490 -0.0151 -0.6798
   96CHL1    C8 9524   6.524   5.776   7.208  0.9980  0.0419  0.3544
   96CHL1    H8 9525   6.547   5.885   7.196  1.3944  0.2492  2.6143
   96CHL1   C14 9526   6.478   5.741   7.343  0.3619 -0.4901 -0.2233
   96CHL1   H14 9527   6.453   5.634   7.360  2.3037 -0.8985  0.3263
   96CHL1   C15 9528   6.361   5.830   7.399  0.4245  0.3360  0.4861
   96CHL1  H15A 9529   6.385   5.937   7.380  1.7836 -0.1834 -0.9150
   96CHL1  H15B 9530   6.261   5.809   7.355 -0.5005  1.9015  1.7305
   96CHL1   C16 9531   6.363   5.805   7.547  0.1353 -0.4065  0.6982
   96CHL1  H16A 9532   6.331   5.902   7.592  2.5516  1.6059 -1.6102
   96CHL1  H16B 9533   6.292   5.729   7.586 -0.6252 -0.6647 -1.0713
   96CHL1   C17 9534   6.511   5.765   7.581  0.0137 -0.6258 -0.5998
   96CHL1   H17 9535   6.511   5.655   7.598  3.4948 -0.3862  2.0646
   96CHL1   C13 9536   6.589   5.780   7.445  0.9632  0.3571 -0.0676
   96CHL1   C18 9537   6.641   5.923   7.443 -0.1678 -0.2167  0.4478
   96CHL1  H18A 9538   6.566   5.995   7.482 -1.0925 -1.2581  0.6225
   96CHL1  H18B 9539   6.732   5.946   7.502  0.6285  0.3672 -0.9432
   96CHL1  H18C 9540   6.660   5.962   7.340 -1.1135 -1.7178 -0.3414
   96CHL1   C12 9541   6.700   5.680   7.426 -0.0496 -0.2800  0.3811
   96CHL1  H12A 9542   6.779   5.699   7.501 -0.9802  0.1892  1.2601
   96CHL1  H12B 9543   6.661   5.576   7.439  0.0303 -0.4907 -0.9253
   96CHL1   C11 9544   6.755   5.708   7.286  0.0075  0.4648 -0.7611
   96CHL1  H11A 9545   6.797   5.810   7.300 -2.3725  1.4162 -0.0002
   96CHL1  H11B 9546   6.841   5.640   7.271  0.6182  1.0209  0.1031
   96CHL1    C9 9547   6.648   5.695   7.175 -0.0234 -0.0156 -0.2590
   96CHL1    H9 9548   6.616   5.589   7.166 -1.8384  0.4353  0.4523
   96CHL1   C10 9549   6.706   5.730   7.030 -0.0433 -0.4212  0.0743
   96CHL1   C19 9550   6.796   5.863   7.040 -0.1289  0.3904 -0.2759
   96CHL1  H19A 9551   6.836   5.897   6.942 -1.9768 -0.7474 -1.4790
   96CHL1  H19B 9552   6.744   5.947   7.092 -2.7095 -1.4499  0.3132
   96CHL1  H19C 9553   6.883   5.843   7.106  0.5538 -0.2122 -1.3338
   96CHL1    C1 9554   6.792   5.619   6.971  0.7432 -0.4715  0.5003
   96CHL1   H1A 9555   6.892   5.607   7.019 -0.1171  0.4150  2.6764
   96CHL1   H1B 9556   6.739   5.522   6.963  0.9432 -0.6132  0.8736
   96CHL1    C2 9557   6.842   5.651   6.827 -0.2963  0.5470 -0.6370
   96CHL1   H2A 9558   6.901   5.561   6.797  0.0552 -0.2457  2.1651
   96CHL1   H2B 9559   6.900   5.745   6.819 -0.2205  0.5195 -0.4171
   96CHL1   C20 9560   6.550   5.825   7.716 -0.3729  0.6542 -0.4534
   96CHL1   H20 9561   6.578   5.932   7.706 -1.1593  1.0390  1.2281
   96CHL1   C21 9562   6.682   5.756   7.759 -0.4234  0.2316  0.0631
   96CHL1  H21A 9563   6.653   5.649   7.771  0.6974 -0.1716 -0.6609
   96CHL1  H21B 9564   6.702   5.781   7.865 -3.5446 -2.7883  1.5745
   96CHL1  H21C 9565   6.774   5.767   7.699  0.4753  0.7670  1.4914
   96CHL1   C22 9566   6.443   5.827   7.819  0.0748 -0.3736  0.0449
   96CHL1  H22A 9567   6.371   5.903   7.781  1.2281 -0.0649 -1.6041
   96CHL1  H22B 9568   6.382   5.735   7.824 -0.5261 -0.1812 -2.5020
   96CHL1   C23 9569   6.482   5.878   7.966  1.3000  0.3438  0.3085
   96CHL1  H23A 9570   6.558   5.815   8.018  0.3596 -1.6721 -0.6653
   96CHL1  H23B 9571   6.527   5.977   7.946  0.7581  0.7907  1.2174
   96CHL1   C24 9572   6.359   5.889   8.050 -0.2752  0.5597  0.3484
   96CHL1  H24A 9573   6.286   5.961   8.009 -0.5546 -1.0213 -2.1351
   96CHL1  H24B 9574   6.313   5.788   8.050  0.7072  0.0141 -2.3159
   96CHL1   C25 9575   6.384   5.926   8.202 -0.4570 -0.3202  0.2656
   96CHL1   H25 9576   6.465   5.861   8.239 -1.5951 -1.5962  0.6021
   96CHL1   C26 9577   6.423   6.070   8.232 -0.1306 -0.1453 -0.1294
   96CHL1  H26A 9578   6.445   6.085   8.340  2.5536 -0.4668 -0.5610
   96CHL1  H26B 9579   6.522   6.093   8.187  0.8325 -1.0391  1.4306
   96CHL1  H26C 9580   6.350   6.147   8.200 -0.9868 -0.8937 -0.0058
   96CHL1   C27 9581   6.256   5.888   8.274 -0.3415  0.5599  0.4003
   96CHL1  H27A 9582   6.270   5.886   8.385 -1.2084  2.6483  0.6026
   96CHL1  H27B 9583   6.188   5.976   8.264 -2.5872 -1.3121 -2.5369
   96CHL1  H27C 9584   6.205   5.797   8.235  0.4887 -1.0020  2.7092
   97OSM      N 9585   2.843   1.909  11.405 -0.3387 -0.3772 -0.0315
   97OSM    C15 9586   2.861   1.797  11.501  0.0842  0.5821  0.0114
   97OSM   H15A 9587   2.770   1.738  11.498  0.7806 -0.5621  0.7232
   97OSM   H15B 9588   2.878   1.830  11.603 -2.3451 -1.8626  1.3472
   97OSM   H15C 9589   2.935   1.726  11.467 -1.1097 -1.9223  2.1965
   97OSM    C14 9590   2.756   2.025  11.454  0.2928  0.0807  0.3709
   97OSM   H14A 9591   2.755   2.108  11.385  0.0746 -0.7568 -0.6616
   97OSM   H14B 9592   2.795   2.061  11.548 -0.8627  0.6170  0.6617
   97OSM   H14C 9593   2.652   1.996  11.457  0.7626 -1.6408  1.1548
   97OSM    C13 9594   2.984   1.953  11.392 -0.3393 -0.1247 -0.0347
   97OSM   H13A 9595   3.042   1.869  11.358  0.5420 -0.1411  1.4388
   97OSM   H13B 9596   3.039   1.970  11.483  2.4940  0.4796 -1.7296
   97OSM   H13C 9597   3.006   2.036  11.326  2.8029  0.5095  1.6243
   97OSM    C12 9598   2.784   1.864  11.272  0.3689 -0.6231  0.2620
   97OSM   H12A 9599   2.832   1.777  11.230  3.6436  1.2723 -0.2188
   97OSM   H12B 9600   2.807   1.937  11.196  0.8623 -1.4692 -0.4277
   97OSM    C11 9601   2.634   1.838  11.274 -0.5159 -0.4365  0.0884
   97OSM   H11A 9602   2.594   1.818  11.173 -0.1470  0.9400 -0.3502
   97OSM   H11B 9603   2.580   1.921  11.324 -1.1728 -0.9223  0.1943
   97OSM      P 9604   2.617   1.576  11.330  0.1927  0.3501  0.0351
   97OSM    O13 9605   2.708   1.529  11.431 -0.2752 -0.0505 -1.1040
   97OSM    O14 9606   2.481   1.512  11.321 -0.5427 -0.5807 -0.5467
   97OSM    O11 9607   2.690   1.573  11.197  0.2127  0.1917 -0.1252
   97OSM    O12 9608   2.604   1.728  11.359  0.3065  0.0414 -0.3471
   97OSM    C1S 9609   2.652   1.515  11.069 -0.3515 -0.5294 -0.5998
   97OSM    H1S 9610   2.602   1.595  11.010  2.3291  1.4263 -0.3774
   97OSM    H1T 9611   2.576   1.434  11.079  1.4914 -2.3132 -0.3851
   97OSM     NF 9612   2.719   1.430  10.839  0.1703 -0.3105 -0.4210
   97OSM    HNF 9613   2.721   1.334  10.812 -1.1966 -0.1200 -1.3249
   97OSM    C2S 9614   2.768   1.473  10.973  0.0984  0.6086  0.6178
   97OSM    H2S 9615   2.841   1.556  10.963 -1.0460  1.8727  2.0991
   97OSM    C3S 9616   2.837   1.355  11.047  0.1478 -0.3013 -0.2069
   97OSM    H3S 9617   2.755   1.288  11.080 -1.1373  0.9028 -0.8800
   97OSM     O3 9618   2.887   1.392  11.178 -0.4944 -1.1719 -0.2488
   97OSM    HO3 9619   2.859   1.484  11.180 -1.0723 -1.3077 -1.2514
   97OSM    C4S 9620   2.945   1.302  10.956  0.4512 -0.4981 -0.3266
   97OSM    H4S 9621   3.044   1.350  10.960  0.8163 -1.2903  1.0384
   97OSM    C5S 9622   2.936   1.206  10.864  0.0342  0.0381 -0.3024
   97OSM    H5S 9623   2.843   1.156  10.832 -0.8740  1.9292 -0.7574
   97OSM    C6S 9624   3.053   1.166  10.785  0.4811 -0.5083  0.0882
   97OSM    H6S 9625   3.078   1.061  10.811 -1.7112 -0.9166  0.7478
   97OSM    H6T 9626   3.138   1.234  10.807 -1.2369  1.0780  2.4009
   97OSM    C7S 9627   3.017   1.159  10.630 -0.3150 -0.0312 -0.4957
   97OSM    H7S 9628   3.001   1.265  10.601  0.3221 -0.4936 -2.8206
   97OSM    H7T 9629   2.920   1.110  10.610 -0.5021 -0.0335  0.4092
   97OSM    C8S 9630   3.134   1.106  10.550 -0.0957 -0.3771  0.4976
   97OSM    H8S 9631   3.182   1.019  10.600  1.7109  1.6439  2.4857
   97OSM    H8T 9632   3.213   1.183  10.533 -1.3668  0.5332 -1.7573
   97OSM    C9S 9633   3.104   1.054  10.411  0.3720  0.3700  0.4181
   97OSM    H9S 9634   3.042   1.124  10.351  1.3387  0.1776 -0.8616
   97OSM    H9T 9635   3.036   0.967  10.416 -1.3237  1.4432 -2.0091
   97OSM   C10S 9636   3.232   0.991  10.342  0.0540  0.5937  0.4771
   97OSM   H10S 9637   3.273   0.906  10.401  2.6757  2.0965  0.9535
   97OSM   H10T 9638   3.315   1.064  10.345  0.5612 -0.0050  2.4939
   97OSM   C11S 9639   3.214   0.949  10.198  0.4236  0.2743  1.2461
   97OSM   H11S 9640   3.180   1.034  10.136  3.4726  1.5218  1.1275
   97OSM   H11T 9641   3.143   0.863  10.199 -0.8013  1.2402  0.3579
   97OSM   C12S 9642   3.345   0.906  10.135 -1.1084  0.3059  0.2678
   97OSM   H12S 9643   3.395   0.833  10.202 -0.9965  1.0267  0.9815
   97OSM   H12T 9644   3.407   0.998  10.130  0.3973 -0.6744 -3.9927
   97OSM   C13S 9645   3.321   0.854   9.997 -0.2089 -0.5669  0.5560
   97OSM   H13S 9646   3.224   0.801   9.989 -1.1757  1.2127  0.0171
   97OSM   H13T 9647   3.404   0.792   9.955 -0.9472 -0.4918 -1.1063
   97OSM   C14S 9648   3.314   0.969   9.893  0.3689  0.4259  0.5907
   97OSM   H14S 9649   3.400   1.036   9.907  1.2872 -0.0520 -2.1017
   97OSM   H14T 9650   3.221   1.030   9.896  0.3754  0.4206  0.9034
   97OSM   C15S 9651   3.342   0.919   9.750  0.1930  0.7683 -0.9312
   97OSM   H15S 9652   3.260   0.844   9.740  3.2623 -3.3367  1.6751
   97OSM   H15T 9653   3.442   0.872   9.743  0.4539  1.2977 -0.7721
   97OSM   C16S 9654   3.321   1.033   9.647  0.0298 -0.0770  0.2612
   97OSM   H16S 9655   3.412   1.096   9.658  1.6557 -2.3268  0.3350
   97OSM   H16T 9656   3.222   1.081   9.665 -0.1957 -0.3913 -0.1592
   97OSM   C17S 9657   3.329   0.970   9.510 -0.6755 -0.0240  0.4026
   97OSM   H17S 9658   3.244   0.898   9.498  0.6348 -1.4475 -0.7519
   97OSM   H17T 9659   3.422   0.912   9.494 -0.4933  0.7225 -1.4983
   97OSM   C18S 9660   3.311   1.077   9.401  0.6404 -0.1827 -0.5539
   97OSM   H18S 9661   3.385   1.159   9.411  2.1949 -1.5428 -0.2918
   97OSM   H18T 9662   3.219   1.137   9.417 -0.1269 -0.7759 -2.4586
   97OSM   H18U 9663   3.309   1.022   9.305 -1.7081 -0.3728 -0.4539
   97OSM    C1F 9664   2.690   1.531  10.748  0.1527  0.4809  0.4563
   97OSM     OF 9665   2.688   1.651  10.773  0.1022  0.5289 -0.1214
   97OSM    C2F 9666   2.658   1.489  10.606 -0.2013  0.5077 -1.2078
   97OSM    H2F 9667   2.703   1.573  10.550  0.6785 -0.9270 -2.7523
   97OSM    H2G 9668   2.549   1.506  10.597 -0.2438  1.9912  1.2840
   97OSM    C3F 9669   2.705   1.353  10.562  0.0201 -0.0183  0.5153
   97OSM    H3F 9670   2.665   1.271  10.625  1.0179 -1.0402 -0.1503
   97OSM    H3G 9671   2.815   1.341  10.572 -0.2210 -2.1995  1.0916
   97OSM    C4F 9672   2.663   1.322  10.416 -0.4274 -0.0520 -0.1430
   97OSM    H4F 9673   2.690   1.407  10.351  2.8584  0.1557  1.3097
   97OSM    H4G 9674   2.555   1.295  10.410  0.2300 -2.9766 -0.1415
   97OSM    C5F 9675   2.749   1.213  10.349 -0.5436  0.2120  0.0379
   97OSM    H5F 9676   2.713   1.117  10.393 -0.6856 -1.1079 -2.7514
   97OSM    H5G 9677   2.857   1.232  10.366 -0.1880  0.3644 -2.1271
   97OSM    C6F 9678   2.719   1.208  10.196 -0.6869 -0.1507  0.4421
   97OSM    H6F 9679   2.770   1.296  10.152  0.0623 -1.2968 -1.0493
   97OSM    H6G 9680   2.610   1.207  10.174 -0.6179 -0.0967  0.0873
   97OSM    C7F 9681   2.783   1.083  10.129  0.1568  0.1116 -0.5270
   97OSM    H7F 9682   2.748   0.985  10.169 -1.4112  0.9977  0.3855
   97OSM    H7G 9683   2.892   1.095  10.144 -0.0937  1.8613  0.1010
   97OSM    C8F 9684   2.750   1.075   9.972  0.2688 -0.3218  0.0349
   97OSM    H8F 9685   2.786   1.176   9.941  0.7301 -0.2815  0.6939
   97OSM    H8G 9686   2.639   1.070   9.966 -0.0095  1.4912  2.4555
   97OSM    C9F 9687   2.817   0.963   9.902 -0.2678 -0.0527  0.2250
   97OSM    H9F 9688   2.824   0.864   9.948  0.3200  0.7808  2.0060
   97OSM   C10F 9689   2.867   0.973   9.780 -0.1905  0.0112  0.0789
   97OSM   H10F 9690   2.920   0.886   9.738  1.9001  1.8445 -1.3157
   97OSM   C11F 9691   2.848   1.095   9.695 -0.1216 -0.6000 -0.4441
   97OSM   H11F 9692   2.937   1.160   9.699  0.4219 -1.3886  0.6093
   97OSM   H11G 9693   2.774   1.167   9.736 -0.3208  0.4597 -2.5368
   97OSM   C12F 9694   2.817   1.081   9.548 -0.2466  0.0121  0.0227
   97OSM   H12F 9695   2.776   1.176   9.509  0.0404  0.9292  1.8582
   97OSM   H12G 9696   2.741   0.999   9.548 -0.5241  0.2649 -0.5592
   97OSM   C13F 9697   2.936   1.027   9.461 -0.4353  0.1293 -0.4350
   97OSM   H13F 9698   2.969   0.925   9.490  1.8240  0.5985 -1.1109
   97OSM   H13G 9699   3.034   1.071   9.492 -0.4026 -1.6001  2.2634
   97OSM   C14F 9700   2.902   1.021   9.307 -0.8732  0.0467 -0.3343
   97OSM   H14F 9701   2.797   0.985   9.307 -1.0327  0.4015  1.1340
   97OSM   H14G 9702   2.964   0.945   9.256 -1.9653 -1.0011 -0.1265
   97OSM   C15F 9703   2.927   1.141   9.227 -0.2371  0.4457  0.1300
   97OSM   H15F 9704   3.036   1.160   9.220  0.4025 -3.2421 -2.9685
   97OSM   H15G 9705   2.869   1.228   9.264  0.0351  1.1891 -1.1355
   97OSM   C16F 9706   2.888   1.129   9.079  0.3781  1.0011  0.0610
   97OSM   H16F 9707   2.914   1.225   9.030  0.4239  0.6888 -0.5368
   97OSM   H16G 9708   2.779   1.106   9.068  0.5489 -0.7416  1.4122
   97OSM   C17F 9709   2.951   1.007   8.999 -0.8221  0.2352 -0.6748
   97OSM   H17F 9710   2.929   1.005   8.890  0.7386  1.5167 -1.0653
   97OSM   H17G 9711   2.916   0.912   9.044  0.9917  0.7456  2.0581
   97OSM   C18F 9712   3.106   0.999   9.004  0.6712 -0.0033  0.2245
   97OSM   H18F 9713   3.161   1.087   8.964  0.2019  0.9364  1.5713
   97OSM   H18G 9714   3.153   0.904   8.971 -1.3360 -0.6544 -0.9825
   97OSM   H18H 9715   3.133   1.002   9.112  1.5269  1.5236  0.0033
   98OSM      N 9716   2.099   1.073  10.976 -0.1144  0.2517 -0.3305
   98OSM    C15 9717   1.969   1.115  11.033  0.6891  0.3216  0.5267
   98OSM   H15A 9718   1.910   1.162  10.955 -0.2031 -1.0765  0.3167
   98OSM   H15B 9719   1.973   1.174  11.124 -0.0824 -1.3546  1.7013
   98OSM   H15C 9720   1.906   1.032  11.061  1.1409  0.1641  1.0933
   98OSM    C14 9721   2.076   0.959  10.881 -0.0388  0.4866  0.2231
   98OSM   H14A 9722   2.026   0.878  10.932  1.8170 -0.2788  0.9050
   98OSM   H14B 9723   2.159   0.904  10.838 -2.3766 -3.4735  0.2924
   98OSM   H14C 9724   2.019   0.990  10.794 -3.2215 -1.9891  1.2016
   98OSM    C13 9725   2.158   1.184  10.894 -0.1448  0.6003  0.8424
   98OSM   H13A 9726   2.263   1.177  10.871 -0.0531  0.6285  1.2482
   98OSM   H13B 9727   2.153   1.276  10.950  1.0770  1.8549 -0.9915
   98OSM   H13C 9728   2.117   1.190  10.794  1.1555  1.3084  0.3321
   98OSM    C12 9729   2.189   1.040  11.097  0.3155  0.0277  0.4136
   98OSM   H12A 9730   2.144   0.968  11.164  0.2479  0.4082  0.7825
   98OSM   H12B 9731   2.203   1.122  11.165  0.4789 -0.2986  0.7790
   98OSM    C11 9732   2.328   0.988  11.068 -0.8534  0.7568 -0.4809
   98OSM   H11A 9733   2.324   0.906  10.993 -0.0549  0.1121  0.1761
   98OSM   H11B 9734   2.353   0.938  11.163 -1.7852 -0.9702 -1.0798
   98OSM      P 9735   2.562   1.046  10.968  0.0308  0.0597 -0.0761
   98OSM    O13 9736   2.608   1.144  10.868 -0.1586 -0.3596  0.2492
   98OSM    O14 9737   2.649   1.015  11.083  0.2747 -0.3319 -1.0014
   98OSM    O11 9738   2.536   0.916  10.892  0.0940  0.0456 -0.3231
   98OSM    O12 9739   2.418   1.087  11.021  0.7277  0.3209 -0.3528
   98OSM    C1S 9740   2.465   0.905  10.772 -0.4191 -0.0613  0.5643
   98OSM    H1S 9741   2.388   0.984  10.756 -1.5960 -1.3143 -0.2088
   98OSM    H1T 9742   2.409   0.809  10.775  0.9065 -0.8462  0.7254
   98OSM     NF 9743   2.501   0.897  10.517 -0.3678  0.4429  0.0815
   98OSM    HNF 9744   2.501   0.800  10.494  0.8829 -0.1388  2.3032
   98OSM    C2S 9745   2.564   0.904  10.649  0.6243 -0.2105  0.2498
   98OSM    H2S 9746   2.614   1.003  10.648 -1.0188  0.6490 -1.1136
   98OSM    C3S 9747   2.665   0.787  10.675  0.1717 -0.6120 -0.0719
   98OSM    H3S 9748   2.605   0.694  10.674 -1.0927  0.1699 -2.2028
   98OSM     O3 9749   2.754   0.791  10.792 -0.1992 -0.0880 -0.4858
   98OSM    HO3 9750   2.720   0.863  10.846  0.2740  0.2076 -0.5836
   98OSM    C4S 9751   2.762   0.788  10.568  0.4359  0.7804  0.1037
   98OSM    H4S 9752   2.828   0.876  10.575 -1.0075  1.8686  0.5946
   98OSM    C5S 9753   2.789   0.695  10.476 -0.1281  0.1054  0.6459
   98OSM    H5S 9754   2.735   0.601  10.463  0.2144  0.1256 -1.2604
   98OSM    C6S 9755   2.905   0.704  10.387 -0.1704 -0.3255  0.7448
   98OSM    H6S 9756   2.977   0.782  10.419 -2.4494  2.1051  0.2784
   98OSM    H6T 9757   2.881   0.742  10.286  0.3100 -1.1131  0.3211
   98OSM    C7S 9758   2.981   0.570  10.376  0.0588  0.6248  0.5601
   98OSM    H7S 9759   3.016   0.552  10.480 -0.7845  1.0976  0.9371
   98OSM    H7T 9760   3.078   0.576  10.322 -0.0347 -1.3697  0.0879
   98OSM    C8S 9761   2.900   0.462  10.300 -0.0800 -0.6362 -0.1286
   98OSM    H8S 9762   2.825   0.404  10.358  1.2673 -1.9130  0.4013
   98OSM    H8T 9763   2.978   0.387  10.274 -1.5098 -1.6920 -1.5598
   98OSM    C9S 9764   2.856   0.496  10.156  0.0238  0.0716 -0.5308
   98OSM    H9S 9765   2.784   0.579  10.172  0.7394  0.7783 -0.9137
   98OSM    H9T 9766   2.804   0.406  10.115 -1.6885  0.2850  1.0465
   98OSM   C10S 9767   2.969   0.538  10.063  0.7179  0.0307  0.3572
   98OSM   H10S 9768   3.040   0.453  10.049 -0.4319 -0.5543 -3.0167
   98OSM   H10T 9769   3.009   0.635  10.098 -0.3425  0.4550  0.4032
   98OSM   C11S 9770   2.913   0.565   9.918  0.0826 -0.7843  0.5161
   98OSM   H11S 9771   2.843   0.651   9.929 -1.0341 -1.3589 -1.5419
   98OSM   H11T 9772   2.838   0.487   9.893 -1.1658 -0.0333  1.7625
   98OSM   C12S 9773   3.015   0.586   9.811  0.3270 -0.4837 -0.5593
   98OSM   H12S 9774   3.096   0.511   9.811 -1.0772 -2.0663 -1.4449
   98OSM   H12T 9775   3.067   0.680   9.842  1.2700 -1.1145 -0.1800
   98OSM   C13S 9776   2.942   0.592   9.677  0.3096  1.0694 -0.0258
   98OSM   H13S 9777   2.847   0.643   9.701  0.6872  0.7991  2.3022
   98OSM   H13T 9778   2.911   0.487   9.662  0.7030  1.0019 -0.3937
   98OSM   C14S 9779   3.029   0.642   9.562  0.1174 -0.0907 -0.6606
   98OSM   H14S 9780   3.123   0.582   9.571 -1.2271 -2.0049  2.2987
   98OSM   H14T 9781   3.059   0.747   9.583  1.2160 -0.8032  1.6821
   98OSM   C15S 9782   2.949   0.626   9.435 -0.1305 -1.4069  0.5778
   98OSM   H15S 9783   2.862   0.696   9.436  1.7045  1.0578 -0.4540
   98OSM   H15T 9784   2.918   0.520   9.445  2.1693 -2.2250 -0.3931
   98OSM   C16S 9785   3.036   0.650   9.307  0.2331  0.1267  0.6977
   98OSM   H16S 9786   3.117   0.573   9.309  2.0139  1.9020  0.6247
   98OSM   H16T 9787   3.074   0.755   9.306  1.4156 -0.2814  0.2713
   98OSM   C17S 9788   2.948   0.635   9.183 -0.0102 -0.2577 -0.1194
   98OSM   H17S 9789   2.992   0.680   9.091  0.4412  1.3856  0.8497
   98OSM   H17T 9790   2.852   0.688   9.201 -0.0290 -1.0832  2.5171
   98OSM   C18S 9791   2.919   0.484   9.155 -0.1002  0.5470 -0.1844
   98OSM   H18S 9792   3.016   0.431   9.143 -0.7273 -0.3547 -1.3754
   98OSM   H18T 9793   2.858   0.471   9.064  0.5323  0.5740 -0.6227
   98OSM   H18U 9794   2.871   0.439   9.245  2.5347  0.0495  1.0988
   98OSM    C1F 9795   2.433   0.993  10.464 -0.0073  0.6503 -0.3252
   98OSM     OF 9796   2.404   1.086  10.542 -0.3005 -0.0329  0.1079
   98OSM    C2F 9797   2.380   0.971  10.324  0.2079 -0.1743 -0.3281
   98OSM    H2F 9798   2.294   0.901  10.322 -0.7401  0.9753 -0.5570
   98OSM    H2G 9799   2.463   0.931  10.262  0.8308 -1.6413  1.3742
   98OSM    C3F 9800   2.331   1.106  10.263  0.9377  0.0233  0.3886
   98OSM    H3F 9801   2.422   1.168  10.256  1.4334 -0.6811  0.5032
   98OSM    H3G 9802   2.269   1.156  10.340  0.3364 -2.2703  1.4769
   98OSM    C4F 9803   2.259   1.095  10.123 -0.4634  0.6144 -0.1507
   98OSM    H4F 9804   2.190   1.180  10.103 -0.2913  0.6549 -0.5998
   98OSM    H4G 9805   2.207   0.998  10.132 -0.8897  0.4452 -3.3474
   98OSM    C5F 9806   2.367   1.087  10.010  0.3690  0.1799 -0.1776
   98OSM    H5F 9807   2.429   0.995  10.017  0.2961 -0.2187 -3.3918
   98OSM    H5G 9808   2.424   1.182  10.026 -0.5857  0.8012 -0.3817
   98OSM    C6F 9809   2.314   1.102   9.865  0.8968 -0.8825 -0.7434
   98OSM    H6F 9810   2.244   1.189   9.862 -0.9843 -2.3078 -0.2855
   98OSM    H6G 9811   2.243   1.020   9.840 -1.1750  1.0088 -1.4445
   98OSM    C7F 9812   2.410   1.126   9.757 -0.2030  0.0130  0.6353
   98OSM    H7F 9813   2.491   1.050   9.762  0.6418  0.9573  3.4470
   98OSM    H7G 9814   2.472   1.217   9.772  2.6252 -1.9883  2.2117
   98OSM    C8F 9815   2.348   1.142   9.612 -0.6299 -0.3365  0.3803
   98OSM    H8F 9816   2.283   1.232   9.615  0.1809  0.3297 -1.0101
   98OSM    H8G 9817   2.281   1.055   9.597  0.4445 -0.9117 -1.5102
   98OSM    C9F 9818   2.458   1.151   9.503 -0.3490  0.3190 -0.3808
   98OSM    H9F 9819   2.562   1.147   9.537 -0.2988 -2.5324 -0.6132
   98OSM   C10F 9820   2.437   1.138   9.369 -0.0393 -0.3908  0.1307
   98OSM   H10F 9821   2.519   1.150   9.297  1.2584  0.2657  1.6591
   98OSM   C11F 9822   2.301   1.130   9.302  0.7906  0.2168 -0.6763
   98OSM   H11F 9823   2.253   1.230   9.298 -2.9012 -1.4018 -0.8143
   98OSM   H11G 9824   2.233   1.080   9.374 -0.4182 -0.3783 -2.1842
   98OSM   C12F 9825   2.300   1.050   9.166  0.1252  0.5505 -0.2050
   98OSM   H12F 9826   2.200   1.074   9.125 -2.6753 -0.3049  5.2583
   98OSM   H12G 9827   2.292   0.942   9.187  1.9956  0.4122 -0.0516
   98OSM   C13F 9828   2.409   1.095   9.069 -0.2865  0.1137  0.4191
   98OSM   H13F 9829   2.494   1.027   9.091  0.3124  0.3991 -0.9308
   98OSM   H13G 9830   2.445   1.195   9.099  3.0486 -0.3674 -1.4304
   98OSM   C14F 9831   2.372   1.086   8.919  0.0453 -0.5951  0.1491
   98OSM   H14F 9832   2.455   1.127   8.858  0.3680  1.4891  1.8260
   98OSM   H14G 9833   2.292   1.162   8.903  1.0340  0.2628 -0.8042
   98OSM   C15F 9834   2.316   0.943   8.884 -0.2349  0.2060  0.8366
   98OSM   H15F 9835   2.236   0.914   8.956  0.2855 -1.1555  0.8963
   98OSM   H15G 9836   2.400   0.876   8.910 -2.2058 -3.0430 -0.6215
   98OSM   C16F 9837   2.273   0.928   8.741  0.4428 -0.7788  0.1759
   98OSM   H16F 9838   2.200   1.005   8.708 -1.0106 -2.3247 -0.3376
   98OSM   H16G 9839   2.239   0.823   8.730 -1.4465 -0.1448 -0.3053
   98OSM   C17F 9840   2.398   0.955   8.648 -0.2058  0.3279  0.4201
   98OSM   H17F 9841   2.494   0.904   8.669  0.5961  1.6601  0.0475
   98OSM   H17G 9842   2.420   1.062   8.667 -1.4888  0.6769  0.0708
   98OSM   C18F 9843   2.358   0.941   8.502 -0.6602 -0.3634  0.2344
   98OSM   H18F 9844   2.318   0.840   8.480 -0.9533 -0.2653  0.3169
   98OSM   H18G 9845   2.447   0.961   8.439 -2.2877  1.8011 -1.5262
   98OSM   H18H 9846   2.297   1.024   8.460 -0.2689 -0.3909 -0.3991
   99OSM      N 9847   3.654   2.202  11.210 -0.0512  0.4832  0.2552
   99OSM    C15 9848   3.766   2.162  11.297 -0.5350  0.0842  0.5652
   99OSM   H15A 9849   3.775   2.233  11.378 -3.2840 -0.2014  1.1960
   99OSM   H15B 9850   3.863   2.150  11.249 -1.8178  0.8245 -2.4688
   99OSM   H15C 9851   3.750   2.062  11.333  0.2041 -1.2999 -2.5840
   99OSM    C14 9852   3.531   2.180  11.287  0.3013  0.0558 -0.4957
   99OSM   H14A 9853   3.539   2.233  11.381  0.7237 -1.4591  0.3615
   99OSM   H14B 9854   3.528   2.074  11.306  1.9774 -0.1526 -1.2540
   99OSM   H14C 9855   3.441   2.211  11.236 -0.5736 -0.3628  0.7465
   99OSM    C13 9856   3.670   2.350  11.189  0.1678  0.5612 -0.1813
   99OSM   H13A 9857   3.747   2.386  11.122 -1.0723 -0.3999 -2.2155
   99OSM   H13B 9858   3.677   2.411  11.278 -2.3773  1.2140 -0.3474
   99OSM   H13C 9859   3.582   2.380  11.134  0.2042 -3.2205 -2.6536
   99OSM    C12 9860   3.655   2.128  11.076 -0.3925  0.3695  0.9109
   99OSM   H12A 9861   3.565   2.155  11.023 -1.5532 -0.0464  2.5757
   99OSM   H12B 9862   3.650   2.021  11.087  1.3179  0.0421 -0.9937
   99OSM    C11 9863   3.774   2.158  10.973  0.9776  0.1500  0.1134
   99OSM   H11A 9864   3.796   2.267  10.971  0.6001  0.3695  3.1767
   99OSM   H11B 9865   3.738   2.116  10.876  1.6990  2.2997 -1.1669
   99OSM      P 9866   4.018   2.087  10.942  0.7459  0.1034  0.0458
   99OSM    O13 9867   4.122   2.163  11.010 -0.0074 -0.0409 -0.0743
   99OSM    O14 9868   4.036   1.942  10.921  0.2862 -0.1962  0.1004
   99OSM    O11 9869   3.988   2.157  10.805  0.3514  0.3593 -0.2483
   99OSM    O12 9870   3.891   2.098  11.023 -0.0402  0.4123 -0.4163
   99OSM    C1S 9871   4.088   2.171  10.706  0.1149 -1.0162  0.8871
   99OSM    H1S 9872   4.188   2.139  10.742  0.3042 -0.9924  0.3943
   99OSM    H1T 9873   4.077   2.275  10.669  1.6105 -1.2783 -0.4054
   99OSM     NF 9874   4.170   2.118  10.479 -0.5892 -0.5917 -0.2478
   99OSM    HNF 9875   4.140   2.198  10.429  0.9086 -0.4553 -0.9818
   99OSM    C2S 9876   4.067   2.085  10.581 -0.1837 -0.3303  0.2052
   99OSM    H2S 9877   4.066   1.977  10.609 -0.3568 -1.2110 -2.7945
   99OSM    C3S 9878   3.932   2.115  10.519 -0.1179 -0.2008 -0.3414
   99OSM    H3S 9879   3.929   2.220  10.481  2.1571 -0.3586 -1.0848
   99OSM     O3 9880   3.826   2.120  10.615 -0.4619 -0.9563 -0.0108
   99OSM    HO3 9881   3.871   2.147  10.695 -0.2576  0.8378 -0.6690
   99OSM    C4S 9882   3.897   2.019  10.404  0.2220 -0.6862  0.1058
   99OSM    H4S 9883   3.897   2.068  10.306  0.9507  2.6460  1.6242
   99OSM    C5S 9884   3.865   1.887  10.417 -0.1762 -0.7397  0.3735
   99OSM    H5S 9885   3.846   1.846  10.517 -1.7673  1.0293  0.8551
   99OSM    C6S 9886   3.822   1.794  10.310 -0.0696  0.3352  0.6287
   99OSM    H6S 9887   3.719   1.753  10.307  0.4258 -0.9273  0.2233
   99OSM    H6T 9888   3.884   1.704  10.328 -0.7356 -0.0819  0.8989
   99OSM    C7S 9889   3.848   1.848  10.165  0.6017 -0.4102  0.1218
   99OSM    H7S 9890   3.953   1.883  10.158 -0.1163  1.7759 -0.6123
   99OSM    H7T 9891   3.783   1.938  10.153 -0.0336 -1.0238 -1.3261
   99OSM    C8S 9892   3.800   1.749  10.061  0.5854  0.4581  0.0467
   99OSM    H8S 9893   3.697   1.710  10.075  0.6155  1.4730  4.1613
   99OSM    H8T 9894   3.875   1.667  10.065  2.0328  1.6332 -1.5259
   99OSM    C9S 9895   3.805   1.810   9.917  0.7748  0.6301 -0.3018
   99OSM    H9S 9896   3.900   1.866   9.905  1.9608 -0.4305  2.8992
   99OSM    H9T 9897   3.725   1.886   9.921  0.5053  0.3029  2.4964
   99OSM   C10S 9898   3.780   1.714   9.803  0.2486  0.0059  0.2326
   99OSM   H10S 9899   3.676   1.677   9.788  0.0069  1.0064 -0.7042
   99OSM   H10T 9900   3.836   1.618   9.805  1.2691  0.5040 -1.8728
   99OSM   C11S 9901   3.815   1.784   9.671  0.3487  0.8377  0.4622
   99OSM   H11S 9902   3.923   1.809   9.667  0.6743 -0.5266  0.0514
   99OSM   H11T 9903   3.755   1.876   9.656 -1.4522 -0.5189 -1.0756
   99OSM   C12S 9904   3.782   1.690   9.558  0.1667  0.1788  0.2651
   99OSM   H12S 9905   3.835   1.592   9.565  0.4697  0.2446 -0.8120
   99OSM   H12T 9906   3.674   1.668   9.572  0.4571 -0.7518  1.1729
   99OSM   C13S 9907   3.804   1.746   9.414  0.7621  0.4465 -0.3671
   99OSM   H13S 9908   3.912   1.739   9.388  0.5782  2.0468 -1.7491
   99OSM   H13T 9909   3.763   1.849   9.424 -0.3955 -0.1211  1.1653
   99OSM   C14S 9910   3.718   1.673   9.310  0.2166 -0.4162  0.0175
   99OSM   H14S 9911   3.617   1.660   9.355 -0.4637  1.2565 -0.9013
   99OSM   H14T 9912   3.780   1.581   9.309  0.4866 -0.2475  0.7019
   99OSM   C15S 9913   3.709   1.734   9.169 -0.0682  0.3737 -0.0976
   99OSM   H15S 9914   3.657   1.830   9.191 -0.7610 -0.5744  2.8285
   99OSM   H15T 9915   3.652   1.668   9.100  2.4048  0.0164 -1.9690
   99OSM   C16S 9916   3.842   1.741   9.096 -0.3328  0.0743  0.4874
   99OSM   H16S 9917   3.872   1.637   9.072  0.8622  0.4830  0.1221
   99OSM   H16T 9918   3.926   1.774   9.161  0.1272 -0.1118 -0.0078
   99OSM   C17S 9919   3.831   1.827   8.968  0.3022 -0.3352  0.3046
   99OSM   H17S 9920   3.930   1.827   8.917 -1.0520 -0.6389 -2.5018
   99OSM   H17T 9921   3.808   1.933   8.989  1.3369  0.0354 -0.3368
   99OSM   C18S 9922   3.721   1.772   8.872  0.2425 -0.0105  0.0736
   99OSM   H18S 9923   3.738   1.663   8.859  0.5476 -0.2794  2.3261
   99OSM   H18T 9924   3.725   1.815   8.770 -0.8583  1.4216  0.5965
   99OSM   H18U 9925   3.619   1.781   8.917  0.9551 -0.0854  1.7723
   99OSM    C1F 9926   4.306   2.078  10.503 -0.1131 -0.5961  0.1187
   99OSM     OF 9927   4.335   2.000  10.593  0.1229  0.7688 -0.4827
   99OSM    C2F 9928   4.409   2.159  10.434 -1.4320 -0.6614 -0.3532
   99OSM    H2F 9929   4.416   2.256  10.488 -1.8918  0.9936 -3.1122
   99OSM    H2G 9930   4.383   2.180  10.329  2.0243  2.7396 -0.7457
   99OSM    C3F 9931   4.550   2.085  10.425 -0.4553 -0.1382 -0.9868
   99OSM    H3F 9932   4.596   2.083  10.527  0.9558 -2.3705 -1.6060
   99OSM    H3G 9933   4.534   1.983  10.384 -1.7492  0.6942 -2.6446
   99OSM    C4F 9934   4.647   2.158  10.327  0.6813  0.3229 -0.2690
   99OSM    H4F 9935   4.736   2.194  10.383  0.8408  2.6038 -1.8435
   99OSM    H4G 9936   4.602   2.251  10.287  3.5832  2.0184  0.0915
   99OSM    C5F 9937   4.704   2.076  10.213  0.4712  0.3431  0.2275
   99OSM    H5F 9938   4.620   2.019  10.168  1.3260 -0.8224  0.0593
   99OSM    H5G 9939   4.774   2.004  10.261 -0.5386 -1.1101 -0.4203
   99OSM    C6F 9940   4.792   2.166  10.127 -0.0707 -0.2808 -0.2798
   99OSM    H6F 9941   4.881   2.184  10.191 -1.4636  0.0577  1.6438
   99OSM    H6G 9942   4.750   2.266  10.107 -1.6342 -0.8232  0.1953
   99OSM    C7F 9943   4.850   2.100   9.994 -0.3876  0.3586  0.5742
   99OSM    H7F 9944   4.763   2.078   9.929  0.8261  0.1578 -1.0643
   99OSM    H7G 9945   4.898   2.002  10.018  0.6091  0.6497 -0.1890
   99OSM    C8F 9946   4.947   2.191   9.918  0.5474  0.1021  0.0706
   99OSM    H8F 9947   4.993   2.138   9.832 -0.7176  1.1140 -1.3081
   99OSM    H8G 9948   5.040   2.204   9.976 -0.0478 -0.7481  1.2608
   99OSM    C9F 9949   4.896   2.330   9.880 -0.2073 -0.6766  0.5186
   99OSM    H9F 9950   4.906   2.402   9.962  0.2643 -1.3050  1.0227
   99OSM   C10F 9951   4.859   2.380   9.763  0.8767  0.4738 -0.6926
   99OSM   H10F 9952   4.830   2.485   9.747  0.2713  0.5887  1.0387
   99OSM   C11F 9953   4.854   2.298   9.634  0.1945 -0.3274 -0.4882
   99OSM   H11F 9954   4.786   2.348   9.562 -0.0010 -2.2322 -1.6779
   99OSM   H11G 9955   4.805   2.202   9.660 -0.8105  0.7813  2.0932
   99OSM   C12F 9956   4.980   2.269   9.562  0.0182  0.1090 -0.5484
   99OSM   H12F 9957   4.973   2.192   9.482 -0.3200  0.4795 -0.8769
   99OSM   H12G 9958   5.057   2.223   9.628  0.2043  2.4297  0.9624
   99OSM   C13F 9959   5.034   2.384   9.467  0.2829  0.4503 -0.4400
   99OSM   H13F 9960   5.084   2.461   9.529  0.6831  0.0882 -0.3084
   99OSM   H13G 9961   4.949   2.415   9.401 -1.4355  1.1594  1.9744
   99OSM   C14F 9962   5.141   2.331   9.371 -0.6891 -0.1330 -0.3623
   99OSM   H14F 9963   5.112   2.238   9.319  0.7127  0.0810 -1.5782
   99OSM   H14G 9964   5.231   2.314   9.433  0.2617  0.0565 -1.6676
   99OSM   C15F 9965   5.173   2.437   9.261 -0.2162 -0.3710 -0.4389
   99OSM   H15F 9966   5.275   2.407   9.228  1.0284  1.9926  0.9643
   99OSM   H15G 9967   5.185   2.533   9.317  2.2170 -0.4633 -0.6856
   99OSM   C16F 9968   5.068   2.446   9.154 -0.6380  0.6686 -0.5718
   99OSM   H16F 9969   4.981   2.502   9.197 -0.1121  1.6554 -0.7507
   99OSM   H16G 9970   5.050   2.342   9.121 -0.2967  1.0251 -1.9298
   99OSM   C17F 9971   5.121   2.524   9.035  0.6266  0.5507 -0.3050
   99OSM   H17F 9972   5.207   2.474   8.986  0.5958  0.6902 -0.5014
   99OSM   H17G 9973   5.147   2.628   9.066 -2.2017  1.2213  0.1098
   99OSM   C18F 9974   5.007   2.537   8.927  0.0207 -0.0109  0.1716
   99OSM   H18F 9975   5.062   2.575   8.838 -1.3298  0.3131 -0.5560
   99OSM   H18G 9976   4.927   2.609   8.955 -2.2691 -1.2283 -2.6508
   99OSM   H18H 9977   4.966   2.436   8.907 -0.8879  0.0023  1.8282
  100OSM      N 9978   6.261   2.521  11.086  0.1277 -0.3033  0.9711
  100OSM    C15 9979   6.369   2.601  11.017 -0.1019 -0.1204 -0.7732
  100OSM   H15A 9980   6.337   2.703  11.002  1.5260  0.4937 -0.2672
  100OSM   H15B 9981   6.380   2.552  10.921 -1.5206 -0.9176 -0.5529
  100OSM   H15C 9982   6.466   2.602  11.065 -0.2951  1.9284 -0.3126
  100OSM    C14 9983   6.219   2.594  11.209 -0.1329 -0.6878 -0.0342
  100OSM   H14A 9984   6.160   2.680  11.181 -0.1380 -0.3332  1.0137
  100OSM   H14B 9985   6.303   2.627  11.268  0.4796  0.2594 -1.3952
  100OSM   H14C 9986   6.152   2.534  11.268 -1.3550  0.8809  0.2129
  100OSM    C13 9987   6.143   2.515  10.988 -1.1478  0.1813  0.3505
  100OSM   H13A 9988   6.052   2.466  11.019 -0.8716 -1.6385 -1.4747
  100OSM   H13B 9989   6.176   2.481  10.890 -0.8335  1.2699  0.0574
  100OSM   H13C 9990   6.112   2.618  10.972 -0.8900  0.7395  3.0365
  100OSM    C12 9991   6.307   2.379  11.120 -0.3028 -0.5212 -0.0362
  100OSM   H12A 9992   6.221   2.337  11.171  0.7146 -0.6777  1.6150
  100OSM   H12B 9993   6.383   2.373  11.196  0.2932 -2.6831 -0.7290
  100OSM    C11 9994   6.363   2.285  11.011  0.3590 -0.0812  0.2671
  100OSM   H11A 9995   6.442   2.342  10.958  0.2222 -0.1498 -0.0122
  100OSM   H11B 9996   6.281   2.267  10.939  0.1425 -1.2298  0.7679
  100OSM      P 9997   6.533   2.088  11.032 -0.1147 -0.6639 -0.1086
  100OSM    O13 9998   6.645   2.173  11.063 -0.3255  0.0892  0.1799
  100OSM    O14 9999   6.531   1.952  11.082 -0.7278  0.4083 -0.7744
  100OSM    O1110000   6.515   2.073  10.877 -0.4393 -0.0604 -0.0381
  100OSM    O1210001   6.399   2.158  11.075 -0.1730 -0.3295  0.1850
  100OSM    C1S10002   6.390   2.013  10.837 -0.7644  0.0658 -0.1234
  100OSM    H1S10003   6.310   2.072  10.886  0.5253  2.5012 -0.7936
  100OSM    H1T10004   6.389   1.906  10.868  1.2231 -0.5482 -1.8730
  100OSM     NF10005   6.235   1.978  10.653 -0.7080  0.2512 -0.4749
  100OSM    HNF10006   6.228   1.893  10.602 -2.4737  0.8463 -1.3521
  100OSM    C2S10007   6.370   2.028  10.680 -0.7832 -0.3376  0.3134
  100OSM    H2S10008   6.385   2.136  10.657 -1.2670  0.0131  1.5362
  100OSM    C3S10009   6.480   1.953  10.602 -0.0409  0.0323  0.0147
  100OSM    H3S10010   6.466   1.848  10.636  1.0944 -0.3985 -0.7812
  100OSM     O310011   6.616   1.996  10.629  0.3017 -0.2212 -0.0368
  100OSM    HO310012   6.597   2.030  10.717  0.2353  1.1752 -0.5688
  100OSM    C4S10013   6.458   1.968  10.455 -0.1484 -0.0203  0.5180
  100OSM    H4S10014   6.416   1.879  10.408  1.1115  0.4974 -1.7418
  100OSM    C5S10015   6.486   2.079  10.378 -0.0404  0.0689 -0.2810
  100OSM    H5S10016   6.534   2.159  10.436 -1.1985 -0.1557  1.0403
  100OSM    C6S10017   6.468   2.083  10.230 -0.5012  0.1751  0.5527
  100OSM    H6S10018   6.427   2.184  10.209 -0.3041  0.4824  1.5910
  100OSM    H6T10019   6.389   2.012  10.198 -0.1765 -0.6614  1.5411
  100OSM    C7S10020   6.600   2.074  10.148 -0.3173  0.4594  0.6712
  100OSM    H7S10021   6.677   2.002  10.183 -0.4180  0.7094  1.4328
  100OSM    H7T10022   6.656   2.167  10.168 -0.2065 -0.1989  3.9051
  100OSM    C8S10023   6.560   2.038  10.002  0.2805 -0.0087 -0.0447
  100OSM    H8S10024   6.476   2.105   9.975  1.0918  1.4274  0.8642
  100OSM    H8T10025   6.511   1.939  10.011 -2.0361  0.9831 -0.8814
  100OSM    C9S10026   6.677   2.042   9.900  0.1834 -0.4503 -0.2937
  100OSM    H9S10027   6.748   1.966   9.938 -0.5016 -0.9373  0.0313
  100OSM    H9T10028   6.735   2.136   9.910 -0.8834  0.0637  1.5664
  100OSM   C10S10029   6.639   2.014   9.752 -0.1044  0.6676 -0.2306
  100OSM   H10S10030   6.556   2.085   9.729 -1.4420 -0.8725 -0.3885
  100OSM   H10T10031   6.594   1.913   9.763 -0.9176  1.1105  0.6619
  100OSM   C11S10032   6.758   2.018   9.653  0.1925 -0.0736 -0.2359
  100OSM   H11S10033   6.837   1.941   9.670  0.8206  0.4241 -0.8303
  100OSM   H11T10034   6.807   2.117   9.658 -0.7330  0.3377  1.4755
  100OSM   C12S10035   6.708   1.994   9.511  0.8015  0.0872 -0.1011
  100OSM   H12S10036   6.628   2.067   9.487  1.4268  1.2213  1.0634
  100OSM   H12T10037   6.674   1.890   9.497 -0.0101  0.2745  0.4390
  100OSM   C13S10038   6.814   2.001   9.404  0.2783  0.2677  0.0011
  100OSM   H13S10039   6.894   1.926   9.421  0.5070  0.6307  0.5470
  100OSM   H13T10040   6.850   2.106   9.411  1.1972  0.1854 -2.3874
  100OSM   C14S10041   6.752   1.960   9.269  0.2360  0.2331 -0.3382
  100OSM   H14S10042   6.683   2.045   9.247  1.3363  0.6583 -2.3473
  100OSM   H14T10043   6.697   1.867   9.293  1.2951 -0.2416  0.2948
  100OSM   C15S10044   6.852   1.959   9.157  0.0836  0.6580  0.2508
  100OSM   H15S10045   6.936   1.888   9.177  0.2360  0.7636 -0.0038
  100OSM   H15T10046   6.878   2.067   9.159 -0.9745  0.9393  2.7888
  100OSM   C16S10047   6.795   1.920   9.010 -0.4374  0.3199 -0.0982
  100OSM   H16S10048   6.720   1.997   8.982  0.6088  0.8692 -1.5111
  100OSM   H16T10049   6.736   1.826   9.021 -1.8518  0.9651 -1.7703
  100OSM   C17S10050   6.901   1.893   8.904  0.1167 -0.3446  0.1872
  100OSM   H17S10051   6.978   1.834   8.958  0.4918  0.3653  0.4449
  100OSM   H17T10052   6.937   1.991   8.867 -1.4584 -0.8895 -3.1727
  100OSM   C18S10053   6.851   1.814   8.784  0.5746  0.3003 -0.1784
  100OSM   H18S10054   6.819   1.881   8.701  0.1506 -1.6934 -1.6731
  100OSM   H18T10055   6.773   1.741   8.812  0.4986 -0.5366 -2.4026
  100OSM   H18U10056   6.929   1.745   8.746 -0.5001 -1.9750  1.5018
  100OSM    C1F10057   6.118   2.037  10.679  0.5915  0.0105  0.1952
  100OSM     OF10058   6.122   2.154  10.716 -0.0488 -0.6160  0.1965
  100OSM    C2F10059   5.997   1.952  10.655 -0.0694  0.1549 -0.2430
  100OSM    H2F10060   5.934   1.956  10.746  0.8420 -0.6937  0.4388
  100OSM    H2G10061   6.030   1.848  10.635  0.9418  0.0527  1.7540
  100OSM    C3F10062   5.914   1.994  10.529 -0.1658 -0.1349 -0.1792
  100OSM    H3F10063   5.886   2.102  10.532 -0.7830 -0.3080  0.7607
  100OSM    H3G10064   5.814   1.946  10.520 -2.0411  3.2088  0.7163
  100OSM    C4F10065   5.991   1.975  10.397  0.7432 -0.1633 -0.2821
  100OSM    H4F10066   6.052   1.883  10.407 -0.4867 -0.9501  0.2328
  100OSM    H4G10067   6.063   2.059  10.385  2.6129 -1.7764 -0.7749
  100OSM    C5F10068   5.901   1.945  10.277 -0.0060 -0.8861 -0.9022
  100OSM    H5F10069   5.825   2.024  10.256  1.5710  0.1980 -2.9493
  100OSM    H5G10070   5.839   1.857  10.301 -2.4585  0.9269 -0.1713
  100OSM    C6F10071   5.978   1.906  10.150 -0.7764 -0.1530  0.3148
  100OSM    H6F10072   5.905   1.917  10.066 -1.1098 -1.3090  0.4439
  100OSM    H6G10073   6.023   1.805  10.156  0.2153  0.2861  0.5064
  100OSM    C7F10074   6.110   1.991  10.114 -0.4853  0.3431 -0.6749
  100OSM    H7F10075   6.187   1.975  10.193 -0.6702  0.8535 -0.3813
  100OSM    H7G10076   6.090   2.100  10.121  2.5927  0.9734 -0.4583
  100OSM    C8F10077   6.171   1.946   9.987 -0.3830  1.0878  0.5711
  100OSM    H8F10078   6.159   1.838   9.965  0.2080  1.0169  0.5883
  100OSM    H8G10079   6.276   1.981   9.987  0.0091 -0.0451  0.6725
  100OSM    C9F10080   6.099   2.005   9.874 -0.0688 -0.6879  0.3185
  100OSM    H9F10081   6.031   2.082   9.912 -1.3750 -0.6762 -1.8672
  100OSM   C10F10082   6.116   1.992   9.744 -0.8037  0.3755 -0.1150
  100OSM   H10F10083   6.051   2.038   9.668 -1.1651 -1.0463 -0.6983
  100OSM   C11F10084   6.234   1.894   9.692  0.4199  0.3136 -1.0338
  100OSM   H11F10085   6.182   1.798   9.672 -1.5646  1.0041  0.5398
  100OSM   H11G10086   6.309   1.864   9.768 -2.4392 -1.2463  1.3935
  100OSM   C12F10087   6.323   1.950   9.581 -0.3833  0.2568 -0.3548
  100OSM   H12F10088   6.399   1.875   9.549 -1.4938 -0.5726 -1.1062
  100OSM   H12G10089   6.366   2.047   9.614  0.0490  0.2561 -0.9055
  100OSM   C13F10090   6.252   1.975   9.447 -0.1601 -0.0956 -0.0296
  100OSM   H13F10091   6.187   2.064   9.458  1.1616  0.7719  1.2414
  100OSM   H13G10092   6.200   1.876   9.443  0.2918 -0.3960  1.1878
  100OSM   C14F10093   6.349   1.978   9.321  0.4984 -0.0802 -0.0461
  100OSM   H14F10094   6.418   1.892   9.334 -0.4348 -0.6458  1.3019
  100OSM   H14G10095   6.404   2.074   9.320  1.3587 -0.4943 -2.9547
  100OSM   C15F10096   6.268   1.969   9.189 -0.1658  0.2147  1.0860
  100OSM   H15F10097   6.189   2.045   9.175  1.0300  1.7061  2.0728
  100OSM   H15G10098   6.206   1.877   9.187 -1.0643  0.8175  0.2231
  100OSM   C16F10099   6.360   1.978   9.064  0.3892  0.1111  0.8190
  100OSM   H16F10100   6.442   1.902   9.071  0.7264  0.3630 -0.1471
  100OSM   H16G10101   6.414   2.074   9.076  0.7978 -0.1546  1.1668
  100OSM   C17F10102   6.287   1.964   8.926  0.1381 -0.2657 -0.6448
  100OSM   H17F10103   6.247   1.860   8.920  1.8158 -0.9883 -0.0070
  100OSM   H17G10104   6.368   1.977   8.851  1.3614 -1.4619  0.4097
  100OSM   C18F10105   6.185   2.070   8.889  0.3093 -1.1485 -0.2494
  100OSM   H18F10106   6.115   2.096   8.971  0.5265 -2.1249  0.2535
  100OSM   H18G10107   6.137   2.044   8.792 -0.7275  1.0630 -0.3867
  100OSM   H18H10108   6.234   2.166   8.861 -2.2269  0.9685  1.9817
  101OSM      N10109   1.354   1.431  11.102  0.2594  0.0117  0.0824
  101OSM    C1510110   1.390   1.521  10.990  0.6127 -0.2361 -0.3871
  101OSM   H15A10111   1.404   1.460  10.902  0.9686 -2.3460  1.0544
  101OSM   H15B10112   1.491   1.553  11.010  0.0686  1.5183 -0.2459
  101OSM   H15C10113   1.314   1.597  10.978  0.2396 -0.4425  0.5603
  101OSM    C1410114   1.361   1.516  11.221 -0.4333 -0.2653  0.1902
  101OSM   H14A10115   1.466   1.533  11.239 -0.0096 -3.1342  1.0431
  101OSM   H14B10116   1.334   1.465  11.313  0.4939 -1.8003 -0.3629
  101OSM   H14C10117   1.303   1.605  11.203 -1.2004 -1.0084 -1.1555
  101OSM    C1310118   1.217   1.375  11.068  0.2846  0.0526 -0.4323
  101OSM   H13A10119   1.191   1.303  11.144  2.7882 -1.0748 -0.5480
  101OSM   H13B10120   1.209   1.334  10.969 -1.2714 -1.4130  0.2561
  101OSM   H13C10121   1.154   1.462  11.079  0.3053  0.1295 -0.8980
  101OSM    C1210122   1.453   1.315  11.106  1.0853  0.7653  0.1674
  101OSM   H12A10123   1.453   1.258  11.015  1.0716 -1.3204  1.4062
  101OSM   H12B10124   1.427   1.249  11.188 -0.3388  0.5806 -0.4100
  101OSM    C1110125   1.600   1.348  11.134 -0.0955 -0.9958  0.7099
  101OSM   H11A10126   1.658   1.258  11.165  0.7243 -0.7718 -0.1215
  101OSM   H11B10127   1.598   1.416  11.222  2.5385 -0.3273  0.3540
  101OSM      P10128   1.754   1.533  11.021 -0.3655 -0.0767 -0.4771
  101OSM    O1310129   1.669   1.653  11.019  0.6339 -0.4471  0.0217
  101OSM    O1410130   1.857   1.527  11.131 -0.5182  0.1491 -0.4014
  101OSM    O1110131   1.823   1.525  10.881 -0.0620  0.1260  0.0693
  101OSM    O1210132   1.666   1.402  11.013  0.0255  0.2266 -0.4886
  101OSM    C1S10133   1.736   1.522  10.760  0.0396 -0.3306 -0.6409
  101OSM    H1S10134   1.656   1.600  10.764  0.9438  0.6300  3.2982
  101OSM    H1T10135   1.692   1.420  10.757  2.3510 -1.3624 -3.1778
  101OSM     NF10136   1.744   1.560  10.519 -0.5841 -0.2942 -0.5801
  101OSM    HNF10137   1.720   1.486  10.457 -0.1559  1.1119 -2.5291
  101OSM    C2S10138   1.820   1.527  10.639 -0.5616 -0.0297  0.0680
  101OSM    H2S10139   1.892   1.611  10.645 -0.0660 -0.3376 -1.2116
  101OSM    C3S10140   1.914   1.402  10.617 -0.0087 -0.0711  0.1723
  101OSM    H3S10141   1.842   1.320  10.597  1.3255 -0.6731 -2.7308
  101OSM     O310142   1.993   1.360  10.728 -0.2085  0.3114 -0.7682
  101OSM    HO310143   1.940   1.408  10.792 -0.2839  1.2722 -1.5166
  101OSM    C4S10144   2.004   1.428  10.494  0.1140 -0.6145 -0.2384
  101OSM    H4S10145   1.992   1.354  10.413 -0.1875 -1.5068  0.5948
  101OSM    C5S10146   2.103   1.512  10.491  0.0088 -0.9148 -0.1210
  101OSM    H5S10147   2.130   1.571  10.580  0.9857 -1.1699 -0.2319
  101OSM    C6S10148   2.181   1.531  10.365 -0.5342 -0.3702 -0.5411
  101OSM    H6S10149   2.279   1.480  10.378 -0.3225 -0.1401 -1.2205
  101OSM    H6T10150   2.208   1.637  10.345  1.0865 -0.7055 -0.3023
  101OSM    C7S10151   2.115   1.478  10.237 -0.6754 -0.0386  0.7911
  101OSM    H7S10152   2.004   1.479  10.243 -0.6458 -1.5261  2.1086
  101OSM    H7T10153   2.155   1.375  10.226 -0.7662 -0.1528  1.5012
  101OSM    C8S10154   2.152   1.562  10.113 -0.2511  0.1850 -0.2625
  101OSM    H8S10155   2.263   1.565  10.105 -0.3059 -0.0141 -1.2679
  101OSM    H8T10156   2.129   1.669  10.131  0.9694  0.3681  0.3270
  101OSM    C9S10157   2.094   1.508   9.980  0.3730  0.6013 -0.3714
  101OSM    H9S10158   1.983   1.508   9.982  0.3289  3.2396  0.3465
  101OSM    H9T10159   2.118   1.400   9.967  1.4168  0.9145 -1.0926
  101OSM   C10S10160   2.143   1.583   9.860 -0.4135 -0.0222 -0.1499
  101OSM   H10S10161   2.254   1.586   9.864 -0.4360  1.0954 -0.0776
  101OSM   H10T10162   2.117   1.691   9.857 -1.4467 -0.2719 -1.3253
  101OSM   C11S10163   2.097   1.519   9.722 -0.0853 -0.7900  1.2265
  101OSM   H11S10164   1.988   1.539   9.717  0.3330  1.7079  0.8376
  101OSM   H11T10165   2.123   1.411   9.719  2.8711 -0.1424 -0.4687
  101OSM   C12S10166   2.177   1.585   9.606  1.1306  0.0099  0.3151
  101OSM   H12S10167   2.287   1.571   9.616  1.5593  3.3263  1.8206
  101OSM   H12T10168   2.158   1.695   9.606 -0.6896 -0.2611  0.6235
  101OSM   C13S10169   2.119   1.525   9.476 -0.5633 -0.7815 -0.2515
  101OSM   H13S10170   2.011   1.546   9.462  0.0648  2.4468 -1.0485
  101OSM   H13T10171   2.132   1.415   9.474  1.0471 -0.6565  0.8375
  101OSM   C14S10172   2.206   1.584   9.360  0.8735 -0.0351  0.2374
  101OSM   H14S10173   2.306   1.538   9.349 -0.0290 -1.5075 -2.7564
  101OSM   H14T10174   2.225   1.692   9.377 -1.5200  0.8225 -1.9028
  101OSM   C15S10175   2.129   1.567   9.227  0.0578  0.6486 -0.3023
  101OSM   H15S10176   2.035   1.625   9.236 -0.7050 -0.5374 -0.4379
  101OSM   H15T10177   2.098   1.462   9.211  1.2127  0.0771  0.9729
  101OSM   C16S10178   2.217   1.606   9.104  0.1387  0.3591  0.0753
  101OSM   H16S10179   2.308   1.542   9.102 -0.4682 -0.5123 -0.0421
  101OSM   H16T10180   2.246   1.712   9.120  0.4403  0.1517  0.9608
  101OSM   C17S10181   2.145   1.608   8.972  0.5098  0.4410 -0.5636
  101OSM   H17S10182   2.064   1.684   8.981  0.7861  0.7417 -0.5908
  101OSM   H17T10183   2.093   1.513   8.948  1.4790  0.1315 -1.5002
  101OSM   C18S10184   2.246   1.653   8.868  0.9704 -0.2334  0.3629
  101OSM   H18S10185   2.268   1.760   8.890  1.8448 -0.0570 -1.2253
  101OSM   H18T10186   2.198   1.651   8.768  0.5439  1.3376  0.5147
  101OSM   H18U10187   2.338   1.591   8.864 -1.2739 -3.9346  1.4119
  101OSM    C1F10188   1.677   1.678  10.504 -0.7250 -0.0828  0.7037
  101OSM     OF10189   1.649   1.760  10.587 -0.3543  0.0594 -0.2017
  101OSM    C2F10190   1.644   1.715  10.361  0.0613  0.0461 -0.6539
  101OSM    H2F10191   1.693   1.811  10.332  1.9475 -1.2559 -2.1415
  101OSM    H2G10192   1.535   1.727  10.344 -0.1871  1.4327  1.5697
  101OSM    C3F10193   1.700   1.614  10.256  0.6914  0.0272 -0.0939
  101OSM    H3F10194   1.668   1.512  10.288  2.6457 -0.2861  0.9831
  101OSM    H3G10195   1.810   1.608  10.263  0.7811  0.3962 -1.0766
  101OSM    C4F10196   1.645   1.634  10.111 -0.6899  0.1737  0.0780
  101OSM    H4F10197   1.535   1.628  10.101 -0.7671 -0.4273  1.2292
  101OSM    H4G10198   1.685   1.546  10.057 -0.4229 -0.1419  0.7834
  101OSM    C5F10199   1.686   1.760  10.036  0.4914 -0.5470  0.0848
  101OSM    H5F10200   1.794   1.781  10.048  0.5749 -1.8067  1.9507
  101OSM    H5G10201   1.630   1.842  10.085  0.8267 -0.2031 -0.1016
  101OSM    C6F10202   1.641   1.743   9.886  0.4974 -0.1307 -0.7712
  101OSM    H6F10203   1.677   1.645   9.849  1.9631 -0.4908  1.4745
  101OSM    H6G10204   1.531   1.745   9.872  0.3055 -0.6148  0.5599
  101OSM    C7F10205   1.701   1.840   9.787  0.1312 -0.0508 -0.3886
  101OSM    H7F10206   1.810   1.854   9.807 -0.3154  1.1003  1.4782
  101OSM    H7G10207   1.653   1.940   9.799 -1.0179 -0.5562 -0.7111
  101OSM    C8F10208   1.677   1.800   9.637 -0.0811 -0.4246 -0.5072
  101OSM    H8F10209   1.583   1.839   9.591 -0.1699  0.6883  0.5820
  101OSM    H8G10210   1.660   1.691   9.652  0.8352 -0.3783  0.9781
  101OSM    C9F10211   1.795   1.801   9.537  0.0221  0.5258  0.2920
  101OSM    H9F10212   1.877   1.872   9.557  0.8627  0.3121 -2.0736
  101OSM   C10F10213   1.801   1.728   9.421 -0.4116 -0.4303 -0.2101
  101OSM   H10F10214   1.888   1.747   9.357 -0.4820  0.9556  0.0854
  101OSM   C11F10215   1.699   1.631   9.363  0.5892  0.3447  0.0022
  101OSM   H11F10216   1.599   1.670   9.392  0.5658  1.0977 -1.0454
  101OSM   H11G10217   1.700   1.528   9.405 -2.0012  0.8675  1.5348
  101OSM   C12F10218   1.717   1.617   9.208  0.3013 -0.2647 -0.4736
  101OSM   H12F10219   1.626   1.555   9.193 -1.1682  1.2565  1.6453
  101OSM   H12G10220   1.805   1.551   9.190  2.0704  1.9442 -0.3138
  101OSM   C13F10221   1.715   1.734   9.109 -0.3711 -0.3649  0.1695
  101OSM   H13F10222   1.812   1.788   9.099 -0.8338  0.5162  0.3923
  101OSM   H13G10223   1.644   1.814   9.138  2.0311  1.6653  0.7964
  101OSM   C14F10224   1.672   1.699   8.961 -0.4029 -0.0108  0.4127
  101OSM   H14F10225   1.581   1.635   8.960 -0.0460 -0.5269 -0.9201
  101OSM   H14G10226   1.750   1.639   8.908 -0.4823  0.1344  0.1299
  101OSM   C15F10227   1.658   1.820   8.864 -0.2044  0.7960  0.1785
  101OSM   H15F10228   1.763   1.857   8.866  0.8353 -1.8805  0.4319
  101OSM   H15G10229   1.590   1.880   8.927 -1.5195 -0.2044 -0.2469
  101OSM   C16F10230   1.614   1.790   8.721  1.5377 -0.1874  0.6606
  101OSM   H16F10231   1.554   1.697   8.719 -1.4247  1.5640  0.9664
  101OSM   H16G10232   1.705   1.788   8.658  0.1993  1.4478 -1.4836
  101OSM   C17F10233   1.521   1.898   8.667  0.3696 -0.5674 -0.0199
  101OSM   H17F10234   1.568   1.998   8.671 -1.4190  0.4125 -1.8898
  101OSM   H17G10235   1.436   1.916   8.736  0.3482  0.7366 -0.3644
  101OSM   C18F10236   1.468   1.870   8.531  0.4597  0.1775  0.2297
  101OSM   H18F10237   1.415   1.962   8.498 -0.5194  0.1753  1.6929
  101OSM   H18G10238   1.405   1.779   8.523  1.3110 -0.5271  1.3019
  101OSM   H18H10239   1.551   1.855   8.459  1.6632 -1.2495  1.8517
  102OSM      N10240   5.797   2.912  10.788 -0.2482  0.2690  0.7909
  102OSM    C1510241   5.897   2.867  10.884  0.4093 -0.2933  0.0740
  102OSM   H15A10242   5.975   2.940  10.897  0.1743 -0.0564  0.1520
  102OSM   H15B10243   5.946   2.778  10.847 -3.0768 -2.5193  0.3472
  102OSM   H15C10244   5.850   2.840  10.977 -3.8402  0.2786 -1.6701
  102OSM    C1410245   5.708   2.793  10.743 -0.8264 -0.4768  0.0005
  102OSM   H14A10246   5.766   2.708  10.712  1.9289  1.4035 -0.4056
  102OSM   H14B10247   5.648   2.821  10.657 -0.0600 -1.2781 -0.8139
  102OSM   H14C10248   5.637   2.772  10.821  0.7303 -0.3224  1.5326
  102OSM    C1310249   5.706   3.009  10.853  0.1540 -0.1672  0.0102
  102OSM   H13A10250   5.765   3.097  10.877  1.2438 -1.2132  1.3974
  102OSM   H13B10251   5.657   2.972  10.942  1.0173  1.6605  1.3357
  102OSM   H13C10252   5.627   3.033  10.784  0.2480 -0.8810 -0.3442
  102OSM    C1210253   5.878   2.972  10.668 -0.2253  0.3129 -0.6693
  102OSM   H12A10254   5.809   3.006  10.592 -0.7958  3.1051  0.9364
  102OSM   H12B10255   5.939   2.897  10.620 -0.2596  1.7133 -3.0567
  102OSM    C1110256   5.973   3.095  10.700  0.6231 -0.9110 -0.9270
  102OSM   H11A10257   5.921   3.146  10.784  0.5549  1.4442 -2.3062
  102OSM   H11B10258   5.990   3.162  10.612  1.0555 -0.6302 -0.6332
  102OSM      P10259   6.185   3.150  10.826 -0.3913 -0.0632 -0.0184
  102OSM    O1310260   6.115   3.192  10.945  0.4554 -0.4318 -0.6128
  102OSM    O1410261   6.318   3.087  10.852  0.6655 -0.3734  0.2953
  102OSM    O1110262   6.190   3.272  10.733  0.0164 -0.0949 -0.1992
  102OSM    O1210263   6.098   3.043  10.743 -0.1086 -0.3807  0.2974
  102OSM    C1S10264   6.296   3.289  10.635  0.4975  0.3216 -0.2328
  102OSM    H1S10265   6.336   3.191  10.601  0.2496 -0.2876  1.1696
  102OSM    H1T10266   6.384   3.335  10.686  0.1255 -0.4383  1.1480
  102OSM     NF10267   6.316   3.350  10.395  0.6503  0.1850  0.4083
  102OSM    HNF10268   6.380   3.418  10.359  1.6177 -0.3255  1.0973
  102OSM    C2S10269   6.242   3.370  10.511 -0.3924 -0.0534 -1.2244
  102OSM    H2S10270   6.138   3.333  10.504 -0.7640  0.4980  0.8777
  102OSM    C3S10271   6.224   3.519  10.552 -0.4987 -0.3628 -0.1302
  102OSM    H3S10272   6.325   3.564  10.538 -1.0638  1.1657  0.5285
  102OSM     O310273   6.194   3.540  10.694  0.1024  0.0365 -0.3275
  102OSM    HO310274   6.186   3.448  10.722  0.0547  0.6440  1.8838
  102OSM    C4S10275   6.128   3.594  10.459  0.3329 -0.0181  0.1121
  102OSM    H4S10276   6.023   3.591  10.491 -0.4354  2.6193 -1.8470
  102OSM    C5S10277   6.167   3.684  10.371  0.0078  0.0776 -0.0369
  102OSM    H5S10278   6.274   3.704  10.356 -0.2581  1.0598 -0.8064
  102OSM    C6S10279   6.070   3.778  10.301 -0.8518 -0.0509 -0.2758
  102OSM    H6S10280   5.966   3.741  10.316 -0.6046 -0.8575 -0.5154
  102OSM    H6T10281   6.088   3.775  10.191 -2.2937  2.1217 -0.6364
  102OSM    C7S10282   6.089   3.924  10.354  0.1307  0.4361  0.1873
  102OSM    H7S10283   6.072   3.932  10.464  1.6236  2.6397  0.3276
  102OSM    H7T10284   6.012   3.998  10.323 -2.7392 -0.3798  4.4119
  102OSM    C8S10285   6.229   3.986  10.320  0.2910  0.2132 -0.0241
  102OSM    H8S10286   6.283   3.939  10.234 -0.4050 -0.0298 -0.3369
  102OSM    H8T10287   6.285   3.967  10.414  0.3682 -1.5144 -0.3776
  102OSM    C9S10288   6.218   4.137  10.302 -0.1715 -0.0347  0.2775
  102OSM    H9S10289   6.322   4.172  10.321  0.5915 -0.8714 -2.0508
  102OSM    H9T10290   6.148   4.186  10.374 -1.8739 -0.7607 -0.8186
  102OSM   C10S10291   6.184   4.177  10.156 -0.3502 -0.2245  0.0511
  102OSM   H10S10292   6.098   4.118  10.119 -0.2592  0.1944 -0.8425
  102OSM   H10T10293   6.265   4.146  10.086 -0.5953  0.0209 -0.3439
  102OSM   C11S10294   6.162   4.331  10.144 -0.5628  0.4896  0.1970
  102OSM   H11S10295   6.256   4.373  10.186 -0.1588  0.4569 -0.6725
  102OSM   H11T10296   6.072   4.361  10.203 -2.0407 -0.2801 -1.5564
  102OSM   C12S10297   6.124   4.378  10.004  0.1325  0.3145  0.5701
  102OSM   H12S10298   6.123   4.489  10.008 -0.8426  0.4374 -1.8282
  102OSM   H12T10299   6.026   4.342   9.966 -0.0849  1.6833 -0.2554
  102OSM   C13S10300   6.224   4.340   9.891  0.1037  0.2710 -0.0035
  102OSM   H13S10301   6.220   4.230   9.875 -0.7130  0.4137 -0.8819
  102OSM   H13T10302   6.329   4.373   9.911  0.3017 -0.3727  0.0465
  102OSM   C14S10303   6.180   4.409   9.761 -0.1766 -0.3511 -0.0674
  102OSM   H14S10304   6.275   4.438   9.711  0.4375 -0.0758  1.2252
  102OSM   H14T10305   6.135   4.510   9.772 -0.1096 -0.2560 -0.6366
  102OSM   C15S10306   6.095   4.329   9.658 -0.6323 -0.0950 -0.9974
  102OSM   H15S10307   5.990   4.329   9.694 -0.1615 -1.4794  0.5278
  102OSM   H15T10308   6.121   4.222   9.671 -2.2865 -0.6876 -2.2637
  102OSM   C16S10309   6.098   4.360   9.510 -0.0878  0.6105  0.2907
  102OSM   H16S10310   6.051   4.286   9.442  0.2192  1.0286 -0.3865
  102OSM   H16T10311   6.204   4.380   9.482 -0.9089  1.6794 -2.3736
  102OSM   C17S10312   6.035   4.494   9.469 -0.4136  0.3042 -1.1300
  102OSM   H17S10313   6.072   4.560   9.551 -0.5562 -1.3696  0.3461
  102OSM   H17T10314   5.928   4.498   9.497  0.0190 -1.0654  1.0051
  102OSM   C18S10315   6.071   4.551   9.331  0.0668  0.7906 -0.1674
  102OSM   H18S10316   6.042   4.656   9.308  0.6652  0.3500 -3.4155
  102OSM   H18T10317   6.020   4.491   9.253  0.1369 -0.5743  0.8037
  102OSM   H18U10318   6.179   4.554   9.307  0.5693  2.3737  1.9864
  102OSM    C1F10319   6.310   3.235  10.329 -0.3688 -0.0133 -0.3671
  102OSM     OF10320   6.230   3.150  10.367 -0.2524  0.1379  0.8084
  102OSM    C2F10321   6.405   3.209  10.217 -0.5461 -0.0283  0.3411
  102OSM    H2F10322   6.509   3.213  10.256 -0.2061  0.9412 -0.6210
  102OSM    H2G10323   6.383   3.271  10.128 -0.0193 -0.6029 -0.1991
  102OSM    C3F10324   6.393   3.064  10.162 -0.3250  0.6409  0.3322
  102OSM    H3F10325   6.288   3.039  10.135  0.3489  0.9464 -3.0640
  102OSM    H3G10326   6.430   2.999  10.244 -1.2633  0.6106  0.7347
  102OSM    C4F10327   6.487   3.021  10.044  0.7027  0.0693  0.4962
  102OSM    H4F10328   6.491   2.911  10.030  1.6614  0.1465  0.1168
  102OSM    H4G10329   6.591   3.058  10.051  1.8186 -2.4257 -1.3674
  102OSM    C5F10330   6.425   3.074   9.908  0.0533 -0.1663 -0.3898
  102OSM    H5F10331   6.419   3.185   9.907  2.0136 -0.0291 -2.3272
  102OSM    H5G10332   6.322   3.035   9.894 -1.4543  2.3876  2.3214
  102OSM    C6F10333   6.516   3.023   9.804  0.0655  0.2407  0.8717
  102OSM    H6F10334   6.511   2.912   9.806 -0.7555  0.2149 -0.6131
  102OSM    H6G10335   6.618   3.060   9.824  0.8499  0.2326 -2.4667
  102OSM    C7F10336   6.462   3.067   9.666 -0.3547 -0.8706  0.0264
  102OSM    H7F10337   6.459   3.178   9.670 -1.7112 -0.9294  1.5830
  102OSM    H7G10338   6.354   3.041   9.661 -0.7234  0.7558 -0.9568
  102OSM    C8F10339   6.537   3.008   9.548  0.0421  0.0030  0.5576
  102OSM    H8F10340   6.527   2.898   9.562  1.0052 -0.3405 -1.2187
  102OSM    H8G10341   6.643   3.041   9.547 -0.6938  2.5882 -0.1020
  102OSM    C9F10342   6.459   3.053   9.430  0.5392  0.1514  0.1804
  102OSM    H9F10343   6.363   3.002   9.414  0.0080  0.9771  0.6370
  102OSM   C10F10344   6.489   3.145   9.341 -0.4813  0.3768 -0.1479
  102OSM   H10F10345   6.411   3.161   9.265  0.5902 -4.7698 -2.8526
  102OSM   C11F10346   6.614   3.214   9.345 -0.3267 -0.1022  0.2154
  102OSM   H11F10347   6.688   3.160   9.408  1.7803  0.4054 -1.6743
  102OSM   H11G10348   6.594   3.312   9.392  1.7930  1.7983 -2.4888
  102OSM   C12F10349   6.680   3.240   9.208  0.5539 -0.4067 -0.0935
  102OSM   H12F10350   6.695   3.146   9.152 -0.1681 -0.6711  0.1424
  102OSM   H12G10351   6.774   3.295   9.230 -1.1246  2.6496  0.0052
  102OSM   C13F10352   6.605   3.334   9.115 -0.1621  0.2112 -0.0585
  102OSM   H13F10353   6.570   3.429   9.162  2.4349  0.0224  2.5834
  102OSM   H13G10354   6.521   3.280   9.067  0.7997 -1.5122  0.0968
  102OSM   C14F10355   6.696   3.362   8.990  0.3123  0.0592 -0.5083
  102OSM   H14F10356   6.713   3.267   8.935  1.7624 -0.2447  0.4272
  102OSM   H14G10357   6.794   3.408   9.016  0.2314 -0.3444  0.5520
  102OSM   C15F10358   6.638   3.461   8.888  0.0709  0.2106  0.0674
  102OSM   H15F10359   6.607   3.549   8.947 -1.5331  0.2307 -0.7491
  102OSM   H15G10360   6.547   3.429   8.833  0.2803 -0.2458 -0.0229
  102OSM   C16F10361   6.739   3.504   8.784 -0.3387  0.2061  0.1722
  102OSM   H16F10362   6.754   3.428   8.704  0.5646  0.8410 -0.2804
  102OSM   H16G10363   6.836   3.522   8.835 -0.3370 -0.8023  0.5445
  102OSM   C17F10364   6.718   3.639   8.718 -0.3680 -0.1783 -0.1159
  102OSM   H17F10365   6.719   3.707   8.806 -0.1283 -0.3567  0.0184
  102OSM   H17G10366   6.619   3.653   8.668  0.6508  1.9023 -1.6599
  102OSM   C18F10367   6.820   3.680   8.603  0.2836  0.1239  0.2962
  102OSM   H18F10368   6.795   3.619   8.514  0.8680  0.8565 -0.3827
  102OSM   H18G10369   6.927   3.660   8.624  0.1362 -0.1639  0.7892
  102OSM   H18H10370   6.804   3.788   8.581  0.7727 -0.0783 -1.1489
  103OSM      N10371   3.455   0.787  11.342 -0.3921  0.0598  0.0568
  103OSM    C1510372   3.581   0.753  11.411 -0.6762  0.2334  0.3484
  103OSM   H15A10373   3.621   0.849  11.441  0.5258  0.6366 -2.3073
  103OSM   H15B10374   3.650   0.717  11.336 -1.0452 -1.3242  0.7296
  103OSM   H15C10375   3.567   0.692  11.499 -1.6138  1.1783  0.8831
  103OSM    C1410376   3.357   0.817  11.453  0.0350  0.4745  0.3649
  103OSM   H14A10377   3.330   0.723  11.499  1.0723  0.3309  0.7064
  103OSM   H14B10378   3.264   0.851  11.410  0.2944 -1.0323 -1.5249
  103OSM   H14C10379   3.395   0.896  11.515 -0.1637  1.5826 -0.8836
  103OSM    C1310380   3.482   0.902  11.252  0.0360 -0.0609 -0.7824
  103OSM   H13A10381   3.514   0.990  11.306 -1.4315 -0.1780  0.3263
  103OSM   H13B10382   3.389   0.928  11.204  0.3581 -2.2812 -2.8289
  103OSM   H13C10383   3.558   0.878  11.179  0.8256  1.4207 -0.4966
  103OSM    C1210384   3.406   0.667  11.249  0.5861  0.1640  0.0025
  103OSM   H12A10385   3.307   0.687  11.210  0.2420 -0.9736  0.2550
  103OSM   H12B10386   3.396   0.579  11.310 -1.6198  1.3562  1.5147
  103OSM    C1110387   3.496   0.637  11.127 -0.2640  0.0552  0.5082
  103OSM   H11A10388   3.491   0.725  11.060 -2.2291 -0.2822  0.1563
  103OSM   H11B10389   3.454   0.554  11.065  1.9452  0.5351 -1.7818
  103OSM      P10390   3.681   0.449  11.137 -0.0777  0.3222 -0.1899
  103OSM    O1310391   3.818   0.431  11.178  0.6264 -0.1508  0.7651
  103OSM    O1410392   3.583   0.359  11.194  0.3264  0.4367 -0.2203
  103OSM    O1110393   3.663   0.425  10.982 -0.2785  0.5211  0.1873
  103OSM    O1210394   3.636   0.603  11.161 -0.2444 -0.1227  0.1210
  103OSM    C1S10395   3.729   0.514  10.893  0.6691 -0.7144  0.0486
  103OSM    H1S10396   3.838   0.495  10.898  0.5176 -1.3862  1.4853
  103OSM    H1T10397   3.695   0.618  10.908  1.0554 -0.2947 -1.7668
  103OSM     NF10398   3.767   0.569  10.655 -0.1005  0.0212  0.2856
  103OSM    HNF10399   3.729   0.650  10.611 -0.0664  0.0765  0.3561
  103OSM    C2S10400   3.684   0.493  10.744 -0.3499  0.9117  0.0883
  103OSM    H2S10401   3.715   0.389  10.719  2.2985  1.7030 -0.2451
  103OSM    C3S10402   3.527   0.508  10.721 -0.3694 -0.1113  0.7095
  103OSM    H3S10403   3.504   0.616  10.733  1.4539  0.2173  1.4165
  103OSM     O310404   3.447   0.436  10.817  0.2224  0.0808  0.3494
  103OSM    HO310405   3.512   0.413  10.884  1.4291 -0.1368 -0.8477
  103OSM    C4S10406   3.489   0.478  10.572 -0.6408 -0.6883 -0.2427
  103OSM    H4S10407   3.519   0.554  10.499 -1.0544  0.7980  1.0663
  103OSM    C5S10408   3.436   0.363  10.533  0.0634 -0.0281  0.9750
  103OSM    H5S10409   3.423   0.282  10.605  0.7558 -0.8737  0.1761
  103OSM    C6S10410   3.404   0.322  10.390 -0.2612  0.4196 -0.2606
  103OSM    H6S10411   3.302   0.280  10.381 -0.5027  1.0267 -0.4396
  103OSM    H6T10412   3.475   0.240  10.369  0.0037  0.6527 -0.2784
  103OSM    C7S10413   3.409   0.424  10.276  0.1036 -1.0463 -0.4920
  103OSM    H7S10414   3.495   0.494  10.287 -0.8766  0.1760 -0.3645
  103OSM    H7T10415   3.314   0.481  10.270 -0.3148 -1.5742  0.8394
  103OSM    C8S10416   3.412   0.360  10.130  0.3789  0.0659  0.3510
  103OSM    H8S10417   3.317   0.304  10.114 -0.0391  1.1411 -1.0685
  103OSM    H8T10418   3.493   0.284  10.126 -1.1334 -1.5526 -2.0504
  103OSM    C9S10419   3.432   0.463  10.023 -0.3841  0.2890  0.4541
  103OSM    H9S10420   3.530   0.513  10.043  0.3641 -0.2601 -1.5850
  103OSM    H9T10421   3.356   0.544  10.030  1.6478  2.1929  3.1250
  103OSM   C10S10422   3.439   0.401   9.882  0.2329 -0.6404 -0.4469
  103OSM   H10S10423   3.355   0.329   9.878 -0.2432 -0.0388 -1.9556
  103OSM   H10T10424   3.532   0.340   9.884  0.8374  0.2618  0.0071
  103OSM   C11S10425   3.425   0.492   9.771  0.2205  0.5741 -0.5553
  103OSM   H11S10426   3.493   0.579   9.774  0.6064  0.2862 -0.8066
  103OSM   H11T10427   3.323   0.536   9.774 -0.5049 -1.0074 -0.7686
  103OSM   C12S10428   3.425   0.415   9.640 -0.6116  0.6375 -0.1035
  103OSM   H12S10429   3.344   0.339   9.648  0.0848 -0.0485  0.6352
  103OSM   H12T10430   3.528   0.374   9.635 -0.5255  0.9238 -0.7843
  103OSM   C13S10431   3.419   0.508   9.511 -0.2986  0.2763 -0.4775
  103OSM   H13S10432   3.459   0.611   9.522  0.9691 -0.1220 -1.1596
  103OSM   H13T10433   3.312   0.519   9.485 -0.4860 -1.5009 -0.6341
  103OSM   C14S10434   3.485   0.426   9.394  0.3538 -0.4074 -0.7661
  103OSM   H14S10435   3.451   0.321   9.412 -0.0534 -0.6270 -2.5615
  103OSM   H14T10436   3.594   0.440   9.404  0.2123 -0.2195  0.7396
  103OSM   C15S10437   3.444   0.476   9.255 -0.5009  0.2954 -0.4098
  103OSM   H15S10438   3.333   0.473   9.254 -0.5075 -2.7003 -1.1608
  103OSM   H15T10439   3.493   0.402   9.189 -0.5860 -1.5094  1.4477
  103OSM   C16S10440   3.487   0.619   9.221  0.2165  0.7224 -0.0496
  103OSM   H16S10441   3.598   0.610   9.211  0.2308 -1.8086  1.5299
  103OSM   H16T10442   3.466   0.688   9.306 -0.2676 -2.5903  2.7663
  103OSM   C17S10443   3.425   0.664   9.091 -0.9314 -0.4257  0.9195
  103OSM   H17S10444   3.322   0.693   9.120 -1.4616 -2.7032  1.5073
  103OSM   H17T10445   3.411   0.573   9.030  1.8908 -0.0634 -0.4380
  103OSM   C18S10446   3.505   0.781   9.022  0.5023  0.3235 -0.2925
  103OSM   H18S10447   3.511   0.874   9.082 -0.1910  0.0368  0.2372
  103OSM   H18T10448   3.457   0.813   8.927  2.5650 -0.0798 -1.5157
  103OSM   H18U10449   3.612   0.763   8.998  0.5322  0.3824 -0.2054
  103OSM    C1F10450   3.893   0.542  10.632  0.0109 -0.6222  0.4924
  103OSM     OF10451   3.936   0.429  10.645 -0.0153 -0.3161 -0.4227
  103OSM    C2F10452   3.983   0.649  10.586 -0.6438  0.2531  0.2581
  103OSM    H2F10453   4.069   0.663  10.655  1.5309  1.0377 -2.4679
  103OSM    H2G10454   3.934   0.748  10.573 -1.0636 -0.1174 -1.0928
  103OSM    C3F10455   4.040   0.610  10.445  0.8637 -0.5033  0.2460
  103OSM    H3F10456   3.953   0.573  10.388  0.9146 -1.9831  1.0813
  103OSM    H3G10457   4.114   0.528  10.460  1.1314 -0.6993 -1.8893
  103OSM    C4F10458   4.085   0.739  10.379 -0.6435 -0.4998  0.5373
  103OSM    H4F10459   4.148   0.802  10.445  0.5036  0.9761 -1.8510
  103OSM    H4G10460   3.987   0.792  10.372 -0.3089 -0.0784 -1.6693
  103OSM    C5F10461   4.151   0.723  10.241  0.1409 -0.2637  0.0504
  103OSM    H5F10462   4.101   0.639  10.188 -0.0431  0.6467 -1.2638
  103OSM    H5G10463   4.256   0.692  10.258 -0.5321 -1.7711  1.7102
  103OSM    C6F10464   4.153   0.848  10.150 -1.0834  0.9864 -0.6170
  103OSM    H6F10465   4.211   0.933  10.193 -0.1922 -0.8145  2.0037
  103OSM    H6G10466   4.047   0.869  10.125 -1.8163 -1.6131  0.0242
  103OSM    C7F10467   4.221   0.820  10.013  0.3689  0.6935  0.3276
  103OSM    H7F10468   4.204   0.714   9.985  3.4024  0.2039 -0.0038
  103OSM    H7G10469   4.330   0.820  10.031  0.2313  0.4614  1.1642
  103OSM    C8F10470   4.178   0.921   9.906  0.1883 -0.5927 -0.1365
  103OSM    H8F10471   4.207   1.026   9.923  1.5257 -0.9049 -0.3701
  103OSM    H8G10472   4.067   0.928   9.908  0.0887 -1.4377  2.6085
  103OSM    C9F10473   4.230   0.892   9.773 -0.1002 -0.0336  0.4843
  103OSM    H9F10474   4.270   0.791   9.758 -1.0093 -0.4080  0.5167
  103OSM   C10F10475   4.224   0.972   9.661 -0.8597  0.3748  0.1967
  103OSM   H10F10476   4.259   0.934   9.565  1.8644  0.4524  1.0694
  103OSM   C11F10477   4.174   1.112   9.673  0.0646 -0.1484  0.1391
  103OSM   H11F10478   4.266   1.173   9.681  1.0081 -1.2892 -1.4481
  103OSM   H11G10479   4.115   1.122   9.767  2.2189 -0.4301  1.5974
  103OSM   C12F10480   4.084   1.177   9.566  0.2969 -0.3452 -0.2605
  103OSM   H12F10481   4.038   1.273   9.597  1.0102  0.2643 -1.0380
  103OSM   H12G10482   3.994   1.116   9.545 -0.1512  0.4390 -0.6460
  103OSM   C13F10483   4.153   1.185   9.432 -0.0948 -0.1928  0.3959
  103OSM   H13F10484   4.192   1.084   9.409  0.9796  0.2967 -0.0075
  103OSM   H13G10485   4.235   1.261   9.437 -1.0488  1.1007 -2.0067
  103OSM   C14F10486   4.053   1.231   9.323 -0.1949 -0.5116 -0.1531
  103OSM   H14F10487   3.992   1.317   9.360  0.5583  1.5468 -3.3009
  103OSM   H14G10488   3.980   1.147   9.322  0.1556 -0.8082 -0.6154
  103OSM   C15F10489   4.123   1.262   9.188  0.1418 -0.6201  0.1812
  103OSM   H15F10490   4.182   1.178   9.145  1.2119  0.1055  0.1803
  103OSM   H15G10491   4.206   1.332   9.212  0.9893 -0.3230 -3.1554
  103OSM   C16F10492   4.039   1.341   9.085  0.1190  0.0568  0.3844
  103OSM   H16F10493   3.987   1.414   9.150 -0.5089  0.0695 -0.1235
  103OSM   H16G10494   3.954   1.282   9.044 -1.2820  2.9344 -1.1533
  103OSM   C17F10495   4.123   1.403   8.978 -0.1325  0.5064  0.3922
  103OSM   H17F10496   4.201   1.456   9.036  1.9296 -2.4669  0.6140
  103OSM   H17G10497   4.055   1.470   8.922  0.1425 -0.6457 -1.4323
  103OSM   C18F10498   4.188   1.303   8.883  0.4373  1.1332 -0.1406
  103OSM   H18F10499   4.265   1.232   8.922  0.3296  1.1489  0.0976
  103OSM   H18G10500   4.249   1.367   8.815  2.3574 -0.2495  0.1796
  103OSM   H18H10501   4.118   1.255   8.811  1.9461 -0.0557 -0.8992
  104OSM      N10502   6.663   0.587  11.208 -0.4557 -0.0193  1.0607
  104OSM    C1510503   6.603   0.717  11.263 -0.0753 -0.9087  0.3433
  104OSM   H15A10504   6.495   0.708  11.266 -0.3322  1.4093  0.4478
  104OSM   H15B10505   6.619   0.795  11.190 -0.9879 -0.2008  0.8655
  104OSM   H15C10506   6.660   0.747  11.350  2.1695  0.0576 -1.3807
  104OSM    C1410507   6.811   0.594  11.210 -0.5006  0.1664  0.6728
  104OSM   H14A10508   6.856   0.513  11.155 -1.5033  1.6575 -2.5986
  104OSM   H14B10509   6.855   0.585  11.308  0.8761  0.3215  0.0983
  104OSM   H14C10510   6.843   0.688  11.167 -2.3876  0.6091  0.1430
  104OSM    C1310511   6.619   0.491  11.303 -0.0067  0.3674 -0.3115
  104OSM   H13A10512   6.669   0.500  11.398  0.0527 -3.1652  0.1247
  104OSM   H13B10513   6.639   0.387  11.282 -0.0930 -0.4195  2.8781
  104OSM   H13C10514   6.512   0.497  11.320  0.0537 -0.7149  0.6057
  104OSM    C1210515   6.603   0.576  11.071 -0.2559  0.5243  0.8407
  104OSM   H12A10516   6.654   0.649  11.011  3.0251 -1.7351  0.6255
  104OSM   H12B10517   6.496   0.586  11.075 -0.2091  0.7421  1.7002
  104OSM    C1110518   6.631   0.450  10.987  0.8285 -0.6020 -0.1749
  104OSM   H11A10519   6.741   0.452  10.968  0.8196 -0.4368 -0.2119
  104OSM   H11B10520   6.598   0.456  10.881  3.1023  1.6786 -0.8670
  104OSM      P10521   6.459   0.259  11.023  0.6111 -0.0012 -0.3156
  104OSM    O1310522   6.465   0.133  11.098  0.6319  0.0407 -0.5470
  104OSM    O1410523   6.354   0.359  11.050  0.2732  0.3443 -0.7105
  104OSM    O1110524   6.456   0.223  10.866  0.1842 -0.0723 -0.0609
  104OSM    O1210525   6.597   0.334  11.055  0.0805  0.9136  0.4670
  104OSM    C1S10526   6.372   0.117  10.823 -0.1404  0.0921  0.6363
  104OSM    H1S10527   6.272   0.126  10.871 -0.0652  0.8240  0.6656
  104OSM    H1T10528   6.410   0.016  10.848  0.4358 -0.8231 -3.2212
  104OSM     NF10529   6.290  -0.002  10.618 -0.1183  0.0130 -0.1541
  104OSM    HNF10530   6.340  -0.084  10.592 -1.3586 -0.4304 -1.2520
  104OSM    C2S10531   6.363   0.113  10.665 -0.1222 -0.5797 -0.0217
  104OSM    H2S10532   6.312   0.206  10.630  1.4866  0.5097  0.3910
  104OSM    C3S10533   6.502   0.111  10.596 -0.0591 -0.5072  0.2443
  104OSM    H3S10534   6.564   0.024  10.626  2.5651  1.0226 -0.3471
  104OSM     O310535   6.590   0.219  10.629  0.1270 -0.4530  0.7400
  104OSM    HO310536   6.541   0.263  10.699  0.2013  1.6368 -0.4302
  104OSM    C4S10537   6.483   0.090  10.451 -0.2225 -0.0942 -0.5370
  104OSM    H4S10538   6.482  -0.015  10.418  1.3721 -0.2862 -0.0497
  104OSM    C5S10539   6.481   0.185  10.353 -0.1706  0.0709  0.0900
  104OSM    H5S10540   6.494   0.290  10.382 -1.0188 -0.0997  1.1457
  104OSM    C6S10541   6.455   0.152  10.208  0.1467 -0.3191 -0.1993
  104OSM    H6S10542   6.475   0.044  10.189  2.0706 -0.2249  1.0645
  104OSM    H6T10543   6.520   0.215  10.144 -1.7310  0.7414 -1.1407
  104OSM    C7S10544   6.308   0.201  10.175 -0.1108 -0.2575 -0.8228
  104OSM    H7S10545   6.315   0.310  10.193  1.5402 -0.3421 -0.7432
  104OSM    H7T10546   6.235   0.160  10.248 -2.7525  0.2049 -3.0794
  104OSM    C8S10547   6.263   0.185  10.031  0.1269  0.3903  0.7903
  104OSM    H8S10548   6.165   0.236  10.017 -1.0533 -1.8175  0.6347
  104OSM    H8T10549   6.234   0.078  10.019 -0.2165  0.6972 -1.6024
  104OSM    C9S10550   6.373   0.221   9.933  0.2406  0.0938  0.5074
  104OSM    H9S10551   6.449   0.141   9.921 -0.4347 -0.5128  0.2053
  104OSM    H9T10552   6.419   0.313   9.974  1.0190 -0.0607  0.0092
  104OSM   C10S10553   6.308   0.253   9.796  0.2386 -0.4271  0.1910
  104OSM   H10S10554   6.380   0.315   9.739  2.1043 -3.1587 -0.6001
  104OSM   H10T10555   6.206   0.297   9.804  0.9110  1.3218 -0.4024
  104OSM   C11S10556   6.297   0.132   9.699  0.2877 -0.5573  0.2851
  104OSM   H11S10557   6.220   0.063   9.740  1.1505 -1.3488  0.6423
  104OSM   H11T10558   6.394   0.077   9.694 -0.6306 -2.2258 -0.1128
  104OSM   C12S10559   6.261   0.178   9.560 -0.3604  0.2520  0.7183
  104OSM   H12S10560   6.331   0.258   9.528  0.8361 -1.2887 -0.6757
  104OSM   H12T10561   6.165   0.234   9.562 -0.3223  0.3239  0.5318
  104OSM   C13S10562   6.251   0.077   9.450  0.0448 -0.9287 -0.0802
  104OSM   H13S10563   6.185  -0.008   9.480 -0.7387 -0.3944 -0.2512
  104OSM   H13T10564   6.352   0.035   9.431  0.1674  0.3381 -2.6552
  104OSM   C14S10565   6.208   0.133   9.313 -0.1028  0.4426  0.3713
  104OSM   H14S10566   6.103   0.167   9.320 -0.0610  0.3093  2.4597
  104OSM   H14T10567   6.195   0.045   9.246 -3.8671  1.0429  0.0688
  104OSM   C15S10568   6.318   0.224   9.258 -0.5423 -0.0162 -1.0351
  104OSM   H15S10569   6.420   0.182   9.273 -0.2474  1.3494  1.2750
  104OSM   H15T10570   6.323   0.326   9.303 -0.7978  0.6108 -2.3899
  104OSM   C16S10571   6.311   0.251   9.105 -0.5448  0.2824 -0.6038
  104OSM   H16S10572   6.330   0.157   9.048 -0.4869 -0.4876  0.6497
  104OSM   H16T10573   6.388   0.325   9.072  0.4640 -0.2356  0.5241
  104OSM   C17S10574   6.180   0.305   9.056  0.1178 -0.0461 -0.0224
  104OSM   H17S10575   6.129   0.345   9.145  0.4751 -0.0575  0.1879
  104OSM   H17T10576   6.124   0.225   9.002 -1.2902  0.5194  0.5665
  104OSM   C18S10577   6.194   0.416   8.945 -0.3393 -0.4358 -0.2303
  104OSM   H18S10578   6.100   0.468   8.918  0.6021  2.4286  1.5841
  104OSM   H18T10579   6.248   0.371   8.859  0.0745 -0.9161  0.2773
  104OSM   H18U10580   6.253   0.498   8.991 -1.9599  0.2632  0.6934
  104OSM    C1F10581   6.160  -0.016  10.658 -0.3490 -0.2372 -0.2039
  104OSM     OF10582   6.094   0.078  10.698  0.7528 -0.5563 -0.4298
  104OSM    C2F10583   6.107  -0.154  10.659  0.3633  0.3133  0.0819
  104OSM    H2F10584   6.040  -0.159  10.748 -1.2900  2.0233 -0.9916
  104OSM    H2G10585   6.184  -0.235  10.664 -2.7521 -3.2179 -2.8457
  104OSM    C3F10586   6.024  -0.182  10.540  0.4049 -0.3288  0.8838
  104OSM    H3F10587   5.947  -0.101  10.536 -0.4903 -1.0682  2.3061
  104OSM    H3G10588   5.983  -0.285  10.549 -0.1864 -0.2786 -0.9040
  104OSM    C4F10589   6.091  -0.167  10.404 -0.7026  0.0673  0.0221
  104OSM    H4F10590   6.150  -0.073  10.391 -0.7052  0.2370  1.1166
  104OSM    H4G10591   6.017  -0.176  10.322  1.4187 -0.4154 -1.9605
  104OSM    C5F10592   6.180  -0.294  10.366 -0.1078 -0.4266  0.4327
  104OSM    H5F10593   6.120  -0.380  10.400  1.5301 -0.6709  2.9837
  104OSM    H5G10594   6.267  -0.290  10.435  0.9361 -1.7269 -0.7480
  104OSM    C6F10595   6.220  -0.284  10.220 -0.4127  0.0918  0.5411
  104OSM    H6F10596   6.148  -0.228  10.156  0.0310  0.7220  0.5876
  104OSM    H6G10597   6.211  -0.391  10.194 -1.5983 -0.1302  1.7384
  104OSM    C7F10598   6.354  -0.210  10.192  0.0782  0.3570 -0.0176
  104OSM    H7F10599   6.436  -0.241  10.259  2.7509  2.4704 -2.0989
  104OSM    H7G10600   6.338  -0.101  10.211  1.5680  0.9895 -2.0663
  104OSM    C8F10601   6.402  -0.211  10.044  0.1525  0.0570 -0.6992
  104OSM    H8F10602   6.494  -0.149  10.049  0.5026 -0.5023 -0.1242
  104OSM    H8G10603   6.327  -0.149   9.991  0.4466  0.2922 -0.8448
  104OSM    C9F10604   6.421  -0.351   9.997 -0.5560  0.5148 -0.4994
  104OSM    H9F10605   6.397  -0.433  10.066 -0.4931 -0.5582 -1.7074
  104OSM   C10F10606   6.453  -0.379   9.867  0.4533  0.5270  0.1165
  104OSM   H10F10607   6.465  -0.486   9.847 -0.0787  0.2095  1.3729
  104OSM   C11F10608   6.484  -0.284   9.758  0.3868 -0.2737  0.2096
  104OSM   H11F10609   6.571  -0.217   9.776  0.1860 -0.1911  0.8784
  104OSM   H11G10610   6.394  -0.218   9.755  0.0272 -0.7854 -0.5422
  104OSM   C12F10611   6.510  -0.343   9.619  0.0774 -0.6714 -0.0114
  104OSM   H12F10612   6.426  -0.410   9.592 -1.4235  1.2400 -0.2964
  104OSM   H12G10613   6.605  -0.398   9.631  1.6352  1.7281 -0.6450
  104OSM   C13F10614   6.528  -0.232   9.513  0.5545 -0.3154 -0.6643
  104OSM   H13F10615   6.621  -0.172   9.523  1.1269 -0.8734 -2.3251
  104OSM   H13G10616   6.438  -0.167   9.525 -2.5054 -3.8120 -2.5385
  104OSM   C14F10617   6.509  -0.292   9.379  0.2384 -0.7864 -0.1436
  104OSM   H14F10618   6.408  -0.337   9.381  0.5452 -1.5260 -0.6237
  104OSM   H14G10619   6.576  -0.378   9.355  0.3542 -0.0710 -2.6318
  104OSM   C15F10620   6.524  -0.193   9.265 -0.0613 -0.2953  0.0344
  104OSM   H15F10621   6.619  -0.136   9.257  1.4230 -2.8802 -4.0464
  104OSM   H15G10622   6.449  -0.116   9.293 -0.7064 -1.0775  0.4996
  104OSM   C16F10623   6.484  -0.254   9.131  0.2113  0.0350 -0.1316
  104OSM   H16F10624   6.399  -0.323   9.146 -0.3308  1.0735  2.0771
  104OSM   H16G10625   6.573  -0.318   9.112  0.9581  0.8797  0.4294
  104OSM   C17F10626   6.471  -0.149   9.018  0.2867  0.6932 -0.2961
  104OSM   H17F10627   6.570  -0.127   8.972 -1.0470  1.8282 -2.8435
  104OSM   H17G10628   6.428  -0.062   9.073  1.8705  0.2038  1.8846
  104OSM   C18F10629   6.367  -0.185   8.912 -0.4255 -0.4607 -0.4742
  104OSM   H18F10630   6.264  -0.178   8.953 -1.3658 -2.9066 -2.1988
  104OSM   H18G10631   6.385  -0.278   8.854  1.0990  0.0344 -0.8445
  104OSM   H18H10632   6.366  -0.099   8.842 -0.7565 -0.4320 -0.4341
  105OSM      N10633   1.880   2.082  10.955 -0.0522 -0.2425 -0.6258
  105OSM    C1510634   1.778   1.999  10.879 -0.3427 -0.2945 -0.7231
  105OSM   H15A10635   1.703   1.967  10.949 -0.2991  2.3056  0.6381
  105OSM   H15B10636   1.824   1.913  10.832  1.2857  1.8981 -3.5024
  105OSM   H15C10637   1.735   2.051  10.795 -0.5573  0.5555 -0.1056
  105OSM    C1410638   1.926   1.996  11.065  0.4677  0.1760 -0.2626
  105OSM   H14A10639   1.985   1.912  11.033  0.0988  0.7199 -2.5735
  105OSM   H14B10640   1.848   1.948  11.123  0.9448  0.7594  0.8834
  105OSM   H14C10641   1.989   2.059  11.126  2.2550 -1.7227 -0.0373
  105OSM    C1310642   1.993   2.112  10.858 -0.1717  0.3700 -0.4758
  105OSM   H13A10643   1.969   2.181  10.778 -0.6670 -2.2377 -2.7177
  105OSM   H13B10644   2.026   2.024  10.804  0.9198 -0.6646  1.7334
  105OSM   H13C10645   2.080   2.162  10.898  0.0120 -0.1363 -0.2365
  105OSM    C1210646   1.809   2.213  11.006  0.2521 -0.1599  0.1807
  105OSM   H12A10647   1.793   2.276  10.920  1.9970 -0.1580 -0.1719
  105OSM   H12B10648   1.876   2.263  11.074  2.2585  1.8256 -2.9928
  105OSM    C1110649   1.672   2.198  11.059  0.9291 -0.2070 -0.0290
  105OSM   H11A10650   1.663   2.139  11.152  2.0125 -1.5107 -0.7237
  105OSM   H11B10651   1.605   2.152  10.984  0.1853  0.7478  0.0324
  105OSM      P10652   1.525   2.413  10.988  0.1449 -0.1516  0.4205
  105OSM    O1310653   1.517   2.345  10.854  0.1138  0.4536 -0.0158
  105OSM    O1410654   1.398   2.432  11.060 -0.2695  0.1964  0.4238
  105OSM    O1110655   1.598   2.551  10.960 -0.4872  0.0488  0.1949
  105OSM    O1210656   1.626   2.341  11.080 -0.0199  0.7708 -0.5144
  105OSM    C1S10657   1.728   2.558  10.899  0.9911 -0.2150  0.1927
  105OSM    H1S10658   1.779   2.467  10.935 -0.2797 -0.9691  0.1389
  105OSM    H1T10659   1.780   2.645  10.946 -1.2278  0.8736  0.7867
  105OSM     NF10660   1.865   2.591  10.696 -0.1989  0.3964  0.3399
  105OSM    HNF10661   1.891   2.685  10.675 -1.7533  1.5568  3.0821
  105OSM    C2S10662   1.729   2.575  10.741  0.0738 -0.4525  0.2444
  105OSM    H2S10663   1.688   2.485  10.691  3.0315 -0.5731 -2.2373
  105OSM    C3S10664   1.649   2.704  10.699  0.1703  0.1266 -0.3075
  105OSM    H3S10665   1.721   2.784  10.727  0.1530 -0.6719  2.2321
  105OSM     O310666   1.529   2.719  10.781  0.1699 -0.2783 -0.2008
  105OSM    HO310667   1.549   2.669  10.861 -0.4566  1.3236  1.0267
  105OSM    C4S10668   1.623   2.707  10.544 -0.2995 -0.5244  0.1829
  105OSM    H4S10669   1.709   2.751  10.490 -0.8880  0.0334 -0.3119
  105OSM    C5S10670   1.521   2.662  10.476  0.3241  0.0583 -0.4904
  105OSM    H5S10671   1.439   2.611  10.529  1.2001 -0.0921  0.7461
  105OSM    C6S10672   1.515   2.661  10.329  0.5233  0.0381 -0.1135
  105OSM    H6S10673   1.448   2.740  10.287 -1.3507 -2.1062 -1.3808
  105OSM    H6T10674   1.469   2.564  10.301  0.2555  0.2288 -0.3449
  105OSM    C7S10675   1.647   2.664  10.244 -0.3542  0.7120  0.1673
  105OSM    H7S10676   1.710   2.573  10.241 -1.2419  0.1122 -1.1063
  105OSM    H7T10677   1.716   2.741  10.284 -0.6014 -0.4028  2.9834
  105OSM    C8S10678   1.608   2.691  10.103 -0.3466  0.6670  0.2519
  105OSM    H8S10679   1.537   2.776  10.092 -1.5216 -0.2621  0.4920
  105OSM    H8T10680   1.578   2.594  10.059  0.6428 -0.8612  2.6848
  105OSM    C9S10681   1.730   2.728  10.016  0.4500  1.0832 -0.0268
  105OSM    H9S10682   1.812   2.656  10.037 -0.7534  0.0767  1.3706
  105OSM    H9T10683   1.768   2.830  10.040 -1.9207  2.0015  0.0998
  105OSM   C10S10684   1.702   2.713   9.865  0.4290 -0.1124 -0.3646
  105OSM   H10S10685   1.617   2.782   9.844 -0.0337 -1.2215 -2.4639
  105OSM   H10T10686   1.678   2.607   9.845  1.8805 -0.3110 -1.1909
  105OSM   C11S10687   1.818   2.766   9.778 -0.1239  0.0538 -0.0714
  105OSM   H11S10688   1.911   2.709   9.803  1.2730  2.0793 -0.3886
  105OSM   H11T10689   1.827   2.873   9.804 -2.5040  0.7962 -1.9540
  105OSM   C12S10690   1.791   2.750   9.627  0.2090 -0.0690  0.4987
  105OSM   H12S10691   1.713   2.675   9.604 -0.6270  0.7353  0.6659
  105OSM   H12T10692   1.883   2.726   9.569 -0.2811  1.8556 -1.1997
  105OSM   C13S10693   1.756   2.888   9.562  0.1584  0.8835  0.5585
  105OSM   H13S10694   1.842   2.958   9.563  2.2465 -1.5213  1.3806
  105OSM   H13T10695   1.686   2.948   9.623  2.4897  3.2160  1.1443
  105OSM   C14S10696   1.707   2.863   9.418  0.3041  0.0129 -0.3444
  105OSM   H14S10697   1.639   2.776   9.426 -1.6245  1.5874  1.8441
  105OSM   H14T10698   1.799   2.837   9.363 -0.7352 -1.3177 -1.5375
  105OSM   C15S10699   1.657   2.983   9.337  0.2174  0.3247 -0.4456
  105OSM   H15S10700   1.733   3.016   9.263  1.2517 -0.4488  0.2464
  105OSM   H15T10701   1.641   3.059   9.416 -0.4556 -1.7187  1.4979
  105OSM   C16S10702   1.518   2.941   9.283 -0.4828 -0.9416 -0.3043
  105OSM   H16S10703   1.459   3.031   9.258 -0.7068 -1.4011 -1.5194
  105OSM   H16T10704   1.458   2.906   9.370 -1.8442  1.2395 -0.3159
  105OSM   C17S10705   1.515   2.835   9.178  0.2787 -0.6576 -0.1550
  105OSM   H17S10706   1.584   2.750   9.196 -0.1095 -0.6894  1.2989
  105OSM   H17T10707   1.543   2.878   9.079 -1.4014  1.2147  0.1255
  105OSM   C18S10708   1.383   2.754   9.169 -0.1514  0.7057 -0.2366
  105OSM   H18S10709   1.358   2.703   9.264 -0.1353 -0.6410 -0.9409
  105OSM   H18T10710   1.399   2.669   9.101 -2.2108 -0.6761  0.8889
  105OSM   H18U10711   1.298   2.818   9.136 -2.4065 -2.4316 -0.9413
  105OSM    C1F10712   1.946   2.490  10.695 -0.3150 -0.0272  0.0615
  105OSM     OF10713   1.906   2.373  10.699 -0.0578 -0.6665 -0.3780
  105OSM    C2F10714   2.090   2.515  10.704 -0.3685  0.4268 -0.3933
  105OSM    H2F10715   2.114   2.472  10.804 -1.8569  0.5540  0.0479
  105OSM    H2G10716   2.105   2.625  10.712 -1.3234  0.5492 -0.0995
  105OSM    C3F10717   2.175   2.456  10.589 -0.3705 -0.5428  0.2763
  105OSM    H3F10718   2.109   2.458  10.500  0.4323 -0.7672 -0.3384
  105OSM    H3G10719   2.192   2.351  10.622 -1.7114 -0.3828  1.5374
  105OSM    C4F10720   2.309   2.527  10.576  0.9797  0.7143  0.5552
  105OSM    H4F10721   2.342   2.532  10.682 -1.1080  1.5910  1.1953
  105OSM    H4G10722   2.289   2.626  10.530  0.4681 -0.8692 -3.0236
  105OSM    C5F10723   2.421   2.455  10.507 -0.7495  0.0226  0.0961
  105OSM    H5F10724   2.482   2.395  10.577 -1.4240 -3.0550 -1.7683
  105OSM    H5G10725   2.478   2.532  10.451  2.0802 -1.0759  1.2646
  105OSM    C6F10726   2.396   2.353  10.393 -0.0199 -0.3084  0.3503
  105OSM    H6F10727   2.355   2.404  10.304 -1.4122 -0.6222  0.7915
  105OSM    H6G10728   2.325   2.277  10.431 -0.4494 -0.6161 -1.0272
  105OSM    C7F10729   2.532   2.288  10.350 -0.3335 -0.7037 -0.5209
  105OSM    H7F10730   2.583   2.258  10.444 -0.8372  2.0220  0.7349
  105OSM    H7G10731   2.609   2.360  10.313 -0.0891 -1.5346 -1.6722
  105OSM    C8F10732   2.528   2.172  10.251 -0.0036 -0.4344  0.2159
  105OSM    H8F10733   2.423   2.140  10.265 -0.3824  0.7570  0.2160
  105OSM    H8G10734   2.587   2.085  10.287  0.7790 -0.2420 -0.5654
  105OSM    C9F10735   2.550   2.218  10.108 -0.5578  0.9999  0.6249
  105OSM    H9F10736   2.478   2.296  10.081 -1.8187 -0.5475 -0.7148
  105OSM   C10F10737   2.648   2.176  10.018  0.4131 -0.7033  0.1152
  105OSM   H10F10738   2.641   2.222   9.918  1.0234 -0.1613  0.3156
  105OSM   C11F10739   2.752   2.073  10.035 -0.4364 -0.1327 -0.3233
  105OSM   H11F10740   2.729   1.983   9.975 -1.2333  0.5342 -1.0569
  105OSM   H11G10741   2.761   2.034  10.138  1.4439  0.8350 -0.0755
  105OSM   C12F10742   2.885   2.136   9.995 -0.5777  0.0161  0.0854
  105OSM   H12F10743   2.918   2.211  10.070 -2.5646  1.1652 -0.1300
  105OSM   H12G10744   2.884   2.188   9.897  0.0836 -0.9084 -0.4295
  105OSM   C13F10745   3.005   2.034   9.966  0.5397  0.4900 -0.3192
  105OSM   H13F10746   3.020   1.986  10.065 -0.2886 -1.4223 -1.0752
  105OSM   H13G10747   3.095   2.091   9.935  0.0995  1.5636  0.3013
  105OSM   C14F10748   2.962   1.929   9.857  0.0556 -0.3931  0.0533
  105OSM   H14F10749   2.869   1.878   9.889  0.1112  1.3605  3.5300
  105OSM   H14G10750   3.051   1.862   9.853 -0.4261 -1.0674  0.4203
  105OSM   C15F10751   2.945   1.999   9.724  0.3002  0.1813  0.9296
  105OSM   H15F10752   3.017   2.084   9.715  0.2708  0.0352 -1.1718
  105OSM   H15G10753   2.852   2.059   9.723  1.4713  2.1513 -1.8706
  105OSM   C16F10754   2.948   1.898   9.605 -0.2956 -0.1067 -0.0226
  105OSM   H16F10755   2.872   1.818   9.619  0.0871 -0.6333 -0.8490
  105OSM   H16G10756   3.049   1.853   9.597 -0.4124 -0.0768 -2.1173
  105OSM   C17F10757   2.916   1.951   9.463  0.5347  0.6133  0.3451
  105OSM   H17F10758   2.828   2.018   9.461  0.6482  0.7695 -1.1723
  105OSM   H17G10759   2.884   1.863   9.402  2.5797 -1.1783  1.6964
  105OSM   C18F10760   3.034   2.005   9.380 -1.0165 -0.3471 -0.2675
  105OSM   H18F10761   3.105   1.922   9.357 -0.2129  0.9845 -2.9297
  105OSM   H18G10762   3.097   2.078   9.436 -2.1764  1.1818 -0.9019
  105OSM   H18H10763   3.001   2.048   9.284 -0.4643 -2.0050 -1.2407
  106OSM      N10764   0.329   1.751  10.962 -0.8238 -0.1802 -0.3071
  106OSM    C1510765   0.279   1.879  11.020  0.2734 -0.3084 -0.4573
  106OSM   H15A10766   0.230   1.878  11.116  0.1529  0.6076 -0.4964
  106OSM   H15B10767   0.219   1.937  10.951 -0.7611 -1.2812 -0.3891
  106OSM   H15C10768   0.363   1.946  11.036 -2.3855  3.8413 -2.0922
  106OSM    C1410769   0.401   1.687  11.075 -0.1831 -0.0189 -0.4679
  106OSM   H14A10770   0.326   1.678  11.153  0.2392  0.4712  0.0008
  106OSM   H14B10771   0.483   1.751  11.106 -0.6352  1.0475 -1.4083
  106OSM   H14C10772   0.436   1.592  11.038 -2.0559 -0.4398 -1.2529
  106OSM    C1310773   0.208   1.664  10.935  0.6337 -0.3727 -0.6344
  106OSM   H13A10774   0.158   1.633  11.026  0.7984 -1.4688 -0.9083
  106OSM   H13B10775   0.239   1.566  10.901  0.2126 -1.0008  0.7022
  106OSM   H13C10776   0.129   1.702  10.872 -0.8335 -0.6831  0.9275
  106OSM    C1210777   0.417   1.773  10.836  0.2963  0.0688 -0.3776
  106OSM   H12A10778   0.509   1.815  10.872  0.8067 -1.1707 -0.1716
  106OSM   H12B10779   0.376   1.847  10.769  1.1603  0.4143 -0.5396
  106OSM    C1110780   0.434   1.650  10.737 -0.6526  0.3736  0.5206
  106OSM   H11A10781   0.489   1.687  10.648  0.1547  0.9721  1.2542
  106OSM   H11B10782   0.332   1.629  10.700  0.4965 -0.4463 -2.4631
  106OSM      P10783   0.659   1.514  10.803  0.2032  0.0815 -0.1360
  106OSM    O1310784   0.703   1.526  10.943 -0.0822  0.1899  0.0352
  106OSM    O1410785   0.679   1.386  10.742  0.0726  0.1769  0.1958
  106OSM    O1110786   0.729   1.628  10.715  0.0038  0.3628 -0.2210
  106OSM    O1210787   0.500   1.537  10.805 -0.3602 -0.0574  0.3541
  106OSM    C1S10788   0.876   1.628  10.703  0.8661 -0.2762 -0.4831
  106OSM    H1S10789   0.931   1.543  10.750 -0.1486 -0.1085  1.0564
  106OSM    H1T10790   0.920   1.723  10.739 -3.8557  2.8157 -1.9656
  106OSM     NF10791   1.066   1.648  10.521 -0.3612  0.1435 -0.0238
  106OSM    HNF10792   1.093   1.741  10.498 -0.5078 -0.3674 -2.6510
  106OSM    C2S10793   0.919   1.637  10.550 -0.1144 -0.7475  0.5767
  106OSM    H2S10794   0.887   1.541  10.503  1.7921 -0.4605 -1.4941
  106OSM    C3S10795   0.846   1.757  10.475  1.1519 -1.0108 -0.6166
  106OSM    H3S10796   0.900   1.848  10.509  1.7549 -2.1311  1.5783
  106OSM     O310797   0.710   1.779  10.505  0.3626 -0.2639  0.0410
  106OSM    HO310798   0.701   1.723  10.583  0.9749 -0.0647  0.2562
  106OSM    C4S10799   0.858   1.749  10.326 -0.3420  0.2007 -0.4484
  106OSM    H4S10800   0.873   1.649  10.284 -2.5895 -0.3033 -0.1926
  106OSM    C5S10801   0.886   1.855  10.250 -0.0330 -0.0785  0.4539
  106OSM    H5S10802   0.923   1.944  10.304  2.5290 -2.2066  2.4875
  106OSM    C6S10803   0.916   1.863  10.105 -0.0898  0.2863 -0.1607
  106OSM    H6S10804   0.949   1.763  10.068 -0.5919 -0.1159  0.4610
  106OSM    H6T10805   1.008   1.922  10.091  0.5091 -0.0555  1.9683
  106OSM    C7S10806   0.796   1.908  10.022 -0.1447 -0.1407 -0.1360
  106OSM    H7S10807   0.753   1.993  10.079  1.6386  1.4193 -1.0220
  106OSM    H7T10808   0.719   1.828  10.025 -0.5798  0.2853  2.2422
  106OSM    C8S10809   0.834   1.959   9.879  0.5022  0.5783 -0.1976
  106OSM    H8S10810   0.902   2.043   9.901 -0.4145  1.1936  0.3360
  106OSM    H8T10811   0.743   1.997   9.829  0.3141  1.3894  0.7428
  106OSM    C9S10812   0.903   1.851   9.785  1.1355  0.0927 -0.5733
  106OSM    H9S10813   0.821   1.783   9.755 -0.5389  0.3149  2.9218
  106OSM    H9T10814   0.984   1.798   9.838  2.7880 -0.1736 -3.2000
  106OSM   C10S10815   0.960   1.897   9.655 -0.5315 -0.0067  0.5678
  106OSM   H10S10816   1.031   1.821   9.615 -1.7347 -0.6276 -0.4741
  106OSM   H10T10817   1.023   1.981   9.689  0.4277 -0.4496 -0.0712
  106OSM   C11S10818   0.850   1.942   9.562 -0.5319 -0.4338 -0.1572
  106OSM   H11S10819   0.790   2.021   9.613  1.0930  0.7942 -0.0756
  106OSM   H11T10820   0.778   1.870   9.519  0.1168  0.9856 -3.9590
  106OSM   C12S10821   0.912   1.997   9.425  1.0746  0.1795  0.3075
  106OSM   H12S10822   0.962   2.096   9.433  0.3371  0.4906  1.4647
  106OSM   H12T10823   0.826   2.014   9.357  0.6305 -0.5374  0.6673
  106OSM   C13S10824   0.988   1.902   9.349 -0.0057  0.4689  0.4393
  106OSM   H13S10825   0.938   1.806   9.325  0.7336 -0.0491  0.9305
  106OSM   H13T10826   1.072   1.874   9.416  0.5742  1.7670  0.2838
  106OSM   C14S10827   1.040   1.961   9.224 -0.0541 -0.0645 -0.0319
  106OSM   H14S10828   1.084   2.061   9.243 -0.4612  0.2081 -0.4786
  106OSM   H14T10829   0.953   1.992   9.161  0.7815  0.6222 -0.8888
  106OSM   C15S10830   1.138   1.875   9.146 -0.0195 -0.0744  0.1831
  106OSM   H15S10831   1.143   1.787   9.213 -0.9913  1.6587  2.6898
  106OSM   H15T10832   1.237   1.924   9.137 -0.4647  1.0232  0.9986
  106OSM   C16S10833   1.091   1.841   9.002 -0.1511 -0.7772  0.6512
  106OSM   H16S10834   1.036   1.930   8.965 -0.1653 -0.2618  1.8752
  106OSM   H16T10835   1.019   1.756   9.004 -0.1089 -0.8232  3.0067
  106OSM   C17S10836   1.199   1.812   8.900  0.3383 -0.4888 -0.3140
  106OSM   H17S10837   1.276   1.745   8.944 -0.2798 -0.9297  0.1163
  106OSM   H17T10838   1.254   1.905   8.876 -0.0358 -0.5638 -1.5121
  106OSM   C18S10839   1.151   1.725   8.780 -0.4591  0.0492 -0.2504
  106OSM   H18S10840   1.068   1.779   8.730 -2.8606 -1.3949  1.9127
  106OSM   H18T10841   1.114   1.624   8.808  1.5343 -1.9668 -4.1695
  106OSM   H18U10842   1.241   1.704   8.719  0.4756 -0.6233  1.2787
  106OSM    C1F10843   1.150   1.547  10.551  0.4603 -0.4931 -0.2900
  106OSM     OF10844   1.108   1.442  10.597 -1.0217  0.9844 -0.2147
  106OSM    C2F10845   1.296   1.571  10.520  0.0370  0.0550 -0.4698
  106OSM    H2F10846   1.349   1.555  10.617 -0.6333 -1.7521 -0.3682
  106OSM    H2G10847   1.319   1.674  10.483 -1.3476  1.3252  1.9612
  106OSM    C3F10848   1.362   1.463  10.423 -0.4163 -0.0342  0.0756
  106OSM    H3F10849   1.326   1.362  10.452  0.6609 -0.4494  0.0252
  106OSM    H3G10850   1.471   1.467  10.444 -0.2008 -1.2025 -0.6991
  106OSM    C4F10851   1.341   1.466  10.275 -0.1532 -0.4533  0.2201
  106OSM    H4F10852   1.419   1.402  10.229  1.0187 -0.0802  1.6210
  106OSM    H4G10853   1.354   1.571  10.243  2.6799 -1.0583 -0.9041
  106OSM    C5F10854   1.207   1.416  10.225 -0.0044 -0.2107  0.5397
  106OSM    H5F10855   1.121   1.455  10.283  0.4347  2.4843 -0.4515
  106OSM    H5G10856   1.204   1.305  10.228  0.5666 -0.3292 -1.3675
  106OSM    C6F10857   1.182   1.455  10.077 -0.0377  0.1762 -0.4084
  106OSM    H6F10858   1.157   1.563  10.069 -0.7211  0.0270 -0.2956
  106OSM    H6G10859   1.085   1.415  10.041 -1.5869  3.7396 -0.6067
  106OSM    C7F10860   1.294   1.423   9.977  0.2844  0.0693  0.6293
  106OSM    H7F10861   1.317   1.318  10.005 -2.7407 -1.0399 -0.5819
  106OSM    H7G10862   1.386   1.485   9.978 -0.0094  0.5405 -0.3039
  106OSM    C8F10863   1.234   1.430   9.831 -0.4753 -0.7858 -0.5594
  106OSM    H8F10864   1.151   1.357   9.828 -1.8410  0.6081  0.9195
  106OSM    H8G10865   1.313   1.381   9.771  0.1751  1.4472 -1.6188
  106OSM    C9F10866   1.197   1.567   9.780 -0.1174 -0.2286 -0.1545
  106OSM    H9F10867   1.112   1.610   9.835 -0.6466 -0.9226 -0.4115
  106OSM   C10F10868   1.256   1.621   9.676 -0.2379 -0.5794  0.2303
  106OSM   H10F10869   1.208   1.712   9.635  1.4870  0.3812  0.2616
  106OSM   C11F10870   1.364   1.561   9.589  0.1708 -0.3874  0.0194
  106OSM   H11F10871   1.426   1.487   9.644 -0.6254 -0.2849  1.0792
  106OSM   H11G10872   1.429   1.643   9.552  1.2307 -1.9011 -1.6261
  106OSM   C12F10873   1.305   1.488   9.466 -0.0037  0.0583  0.0056
  106OSM   H12F10874   1.254   1.397   9.503  1.4112 -0.2193  1.3630
  106OSM   H12G10875   1.400   1.461   9.414  0.9435  2.3880  0.3962
  106OSM   C13F10876   1.210   1.573   9.377  0.4750  0.3704 -0.3740
  106OSM   H13F10877   1.268   1.652   9.326 -0.2659  0.7113 -0.7091
  106OSM   H13G10878   1.118   1.610   9.428 -0.5256 -1.3825 -0.7872
  106OSM   C14F10879   1.164   1.480   9.261  0.4042  0.0909  0.1702
  106OSM   H14F10880   1.107   1.546   9.192  0.3657  0.3692  0.4641
  106OSM   H14G10881   1.092   1.405   9.299 -1.3552  0.8626 -1.5112
  106OSM   C15F10882   1.278   1.408   9.192  0.1204 -0.2627 -0.0248
  106OSM   H15F10883   1.292   1.312   9.245  2.7417  0.0013 -0.0909
  106OSM   H15G10884   1.372   1.467   9.181 -0.2401  0.6161  1.3227
  106OSM   C16F10885   1.248   1.388   9.043  0.3200 -0.0518 -1.2739
  106OSM   H16F10886   1.241   1.483   8.986 -2.5464 -0.0634 -1.0905
  106OSM   H16G10887   1.140   1.363   9.043 -0.5970  3.4362 -1.9510
  106OSM   C17F10888   1.335   1.281   8.966 -0.2728  0.2712 -0.1986
  106OSM   H17F10889   1.264   1.197   8.948 -1.2857  1.2175 -0.7737
  106OSM   H17G10890   1.421   1.238   9.021  0.3155  0.0862 -1.2415
  106OSM   C18F10891   1.379   1.330   8.826 -0.3245  0.7739 -0.2857
  106OSM   H18F10892   1.471   1.391   8.829 -0.1403  0.4618  1.9260
  106OSM   H18G10893   1.293   1.386   8.783 -2.7810 -1.5032  1.3325
  106OSM   H18H10894   1.404   1.245   8.760  0.7347  1.3798 -0.6800
  107OSM      N10895   4.601   0.444  11.195  0.3729 -0.6057  0.4475
  107OSM    C1510896   4.603   0.425  11.338  0.8549 -0.3208  0.6714
  107OSM   H15A10897   4.500   0.406  11.364  1.0988 -0.8080  1.3120
  107OSM   H15B10898   4.636   0.515  11.388  0.5588  0.3625 -0.3283
  107OSM   H15C10899   4.669   0.348  11.376  1.7400  0.7594  1.3749
  107OSM    C1410900   4.739   0.426  11.144  0.1648  0.0129 -0.2038
  107OSM   H14A10901   4.781   0.345  11.203 -1.0249 -0.1561  0.4532
  107OSM   H14B10902   4.792   0.516  11.171  0.9167  0.2252 -2.2360
  107OSM   H14C10903   4.741   0.402  11.039  1.6633 -0.5163 -0.0790
  107OSM    C1310904   4.519   0.333  11.127 -0.3218  0.0245  0.6237
  107OSM   H13A10905   4.417   0.338  11.162 -0.5510  1.1541 -0.1173
  107OSM   H13B10906   4.559   0.235  11.147 -0.8648 -0.2364  0.4518
  107OSM   H13C10907   4.512   0.347  11.020 -0.8110 -0.4344  0.5928
  107OSM    C1210908   4.538   0.578  11.170  0.4342  0.0250 -0.0558
  107OSM   H12A10909   4.600   0.653  11.218 -1.3235  2.6063 -1.5510
  107OSM   H12B10910   4.442   0.583  11.219  0.0624 -0.2688 -0.7432
  107OSM    C1110911   4.534   0.634  11.021  0.3986  0.7613 -0.8827
  107OSM   H11A10912   4.450   0.597  10.958  1.0685 -1.5479 -0.4860
  107OSM   H11B10913   4.625   0.597  10.970  0.9064 -0.2598  0.6955
  107OSM      P10914   4.643   0.864  10.978 -0.5275  0.0416 -0.1325
  107OSM    O1310915   4.615   1.009  11.011  0.1174 -0.1059  0.1656
  107OSM    O1410916   4.779   0.812  11.014  0.7308  0.2307 -0.1149
  107OSM    O1110917   4.609   0.841  10.828  0.1497  0.4318 -0.1977
  107OSM    O1210918   4.533   0.772  11.043  0.4274 -0.2098 -0.5043
  107OSM    C1S10919   4.685   0.915  10.726 -0.6403  0.1967  0.1842
  107OSM    H1S10920   4.789   0.944  10.753 -0.4921  0.7667 -0.9435
  107OSM    H1T10921   4.638   1.014  10.706 -0.8674  0.4985  2.0264
  107OSM     NF10922   4.763   0.924  10.489 -0.0912  0.0321 -0.3464
  107OSM    HNF10923   4.702   0.952  10.416  0.1807  2.5951  0.3116
  107OSM    C2S10924   4.709   0.838  10.596 -0.6204  0.3207  0.2535
  107OSM    H2S10925   4.791   0.763  10.600 -1.2391 -0.3166  1.9826
  107OSM    C3S10926   4.584   0.762  10.546  0.7958  0.3973 -0.7939
  107OSM    H3S10927   4.502   0.834  10.527 -1.4759 -1.9818 -0.4886
  107OSM     O310928   4.516   0.678  10.642 -0.1951 -0.2027  0.1589
  107OSM    HO310929   4.552   0.713  10.724 -0.8057 -0.5130  0.5707
  107OSM    C4S10930   4.609   0.692  10.414 -0.3040 -0.0287  0.3759
  107OSM    H4S10931   4.630   0.757  10.328 -0.9812 -1.3809 -0.8664
  107OSM    C5S10932   4.627   0.565  10.390 -0.0105  0.1069  0.0578
  107OSM    H5S10933   4.631   0.493  10.473  2.1019  0.9249  0.7506
  107OSM    C6S10934   4.664   0.508  10.254  0.0667  0.7406 -0.1311
  107OSM    H6S10935   4.636   0.401  10.257  1.0803  0.5001  1.5236
  107OSM    H6T10936   4.773   0.509  10.230  0.4422 -0.3525  1.4095
  107OSM    C7S10937   4.587   0.564  10.139  0.5906  0.1494  0.1541
  107OSM    H7S10938   4.585   0.674  10.131  2.1565  0.1528 -0.6833
  107OSM    H7T10939   4.481   0.534  10.154  1.0467 -1.1786  0.9712
  107OSM    C8S10940   4.632   0.516   9.997 -0.7190 -0.0450 -0.3860
  107OSM    H8S10941   4.625   0.406   9.993  2.5224 -0.3747  0.2119
  107OSM    H8T10942   4.740   0.537   9.979 -0.7980  1.2460  0.4987
  107OSM    C9S10943   4.558   0.597   9.901  0.7471 -1.0245  0.3852
  107OSM    H9S10944   4.582   0.705   9.902 -0.6684 -0.6434 -1.5056
  107OSM    H9T10945   4.451   0.596   9.931  0.6438  2.2491  0.4256
  107OSM   C10S10946   4.594   0.555   9.759  0.0699  0.3361  0.0416
  107OSM   H10S10947   4.576   0.447   9.742  1.0203 -0.2641  2.4808
  107OSM   H10T10948   4.702   0.575   9.743  0.3757  0.2302  1.7991
  107OSM   C11S10949   4.530   0.642   9.645  0.4697 -0.4614 -0.3463
  107OSM   H11S10950   4.556   0.744   9.680  1.1061 -0.1942 -1.5285
  107OSM   H11T10951   4.420   0.630   9.643  0.1506  1.9848 -1.4765
  107OSM   C12S10952   4.587   0.627   9.503 -0.3250  0.1262  0.1522
  107OSM   H12S10953   4.570   0.522   9.471  1.2161  0.2629 -1.2072
  107OSM   H12T10954   4.697   0.639   9.496 -0.2060 -0.8449  0.2205
  107OSM   C13S10955   4.498   0.704   9.403 -0.3151  0.5208  0.2171
  107OSM   H13S10956   4.484   0.812   9.427 -1.0371  0.2990  0.8272
  107OSM   H13T10957   4.399   0.654   9.398  1.4953 -3.2610 -1.4687
  107OSM   C14S10958   4.556   0.698   9.257 -0.0401  0.1879 -0.2569
  107OSM   H14S10959   4.550   0.589   9.236  0.1229  0.2570 -0.6542
  107OSM   H14T10960   4.653   0.751   9.251  1.0466 -1.5318  0.9533
  107OSM   C15S10961   4.476   0.765   9.145 -0.0105  0.3140 -0.6950
  107OSM   H15S10962   4.386   0.707   9.117  1.2524 -0.7345 -2.8006
  107OSM   H15T10963   4.536   0.750   9.053 -0.8343 -1.5304 -0.9798
  107OSM   C16S10964   4.458   0.916   9.177  0.5009  0.5487  0.5433
  107OSM   H16S10965   4.560   0.951   9.202  0.7612  2.5804 -2.8490
  107OSM   H16T10966   4.387   0.936   9.261  0.9201  5.1455  0.0383
  107OSM   C17S10967   4.401   1.002   9.053 -0.2196 -0.8893  0.7739
  107OSM   H17S10968   4.381   1.107   9.084 -2.8199  0.4592 -4.4325
  107OSM   H17T10969   4.301   0.963   9.027 -0.9364  0.1256  1.9008
  107OSM   C18S10970   4.493   1.006   8.925  0.0145  0.3608 -0.1760
  107OSM   H18S10971   4.598   1.020   8.956  0.0109  1.8242 -0.7249
  107OSM   H18T10972   4.461   1.086   8.855 -0.5664 -0.1528 -0.5080
  107OSM   H18U10973   4.472   0.910   8.874 -0.2183  1.3513 -2.0224
  107OSM    C1F10974   4.879   0.993  10.501  0.0456 -0.1508  0.0499
  107OSM     OF10975   4.950   0.983  10.599 -0.1354  0.1252 -0.1051
  107OSM    C2F10976   4.909   1.097  10.395  0.5201 -0.5751 -0.0066
  107OSM    H2F10977   4.828   1.171  10.380  0.8093 -0.3752 -0.6555
  107OSM    H2G10978   4.921   1.038  10.301 -0.3286 -2.5432  1.0530
  107OSM    C3F10979   5.035   1.174  10.418  0.3234 -0.3599  0.0390
  107OSM    H3F10980   5.114   1.098  10.433 -0.9953 -2.0200 -0.9366
  107OSM    H3G10981   5.031   1.221  10.518  0.8340 -1.3312  0.5329
  107OSM    C4F10982   5.080   1.267  10.308 -0.8941 -0.0494 -0.4654
  107OSM    H4F10983   5.161   1.332  10.349 -1.9024  1.4739 -0.7898
  107OSM    H4G10984   4.988   1.322  10.279 -0.7150  0.6522  0.2517
  107OSM    C5F10985   5.137   1.194  10.176  0.4107 -0.1947  0.1461
  107OSM    H5F10986   5.060   1.123  10.140  0.3151 -1.4751  2.6373
  107OSM    H5G10987   5.224   1.130  10.199 -0.6848 -1.4997  0.7789
  107OSM    C6F10988   5.190   1.295  10.072 -0.4908 -0.2849 -0.1886
  107OSM    H6F10989   5.270   1.365  10.103  0.3067 -0.4689 -1.7213
  107OSM    H6G10990   5.110   1.364  10.040  1.4019  1.5368 -1.2247
  107OSM    C7F10991   5.238   1.227   9.941 -0.3783 -0.5382  0.3143
  107OSM    H7F10992   5.149   1.162   9.923  0.2085 -1.0548 -0.8084
  107OSM    H7G10993   5.328   1.163   9.950 -1.0015 -1.7502 -1.4890
  107OSM    C8F10994   5.267   1.326   9.829  0.1042 -0.4731  0.3451
  107OSM    H8F10995   5.184   1.400   9.823 -0.2842 -1.0130 -1.3984
  107OSM    H8G10996   5.266   1.267   9.736 -2.2341 -1.3990  0.9038
  107OSM    C9F10997   5.400   1.396   9.837 -0.1683 -0.3945 -0.8206
  107OSM    H9F10998   5.429   1.431   9.937 -0.3050 -1.3207 -0.4456
  107OSM   C10F10999   5.490   1.406   9.733 -0.0589  0.1952 -0.1560
  107OSM   H10F11000   5.585   1.458   9.755  0.0220 -0.2908  0.7229
  107OSM   C11F11001   5.483   1.350   9.599  0.2757 -0.1562  0.3972
  107OSM   H11F11002   5.450   1.244   9.592 -0.2145  0.0751 -1.5619
  107OSM   H11G11003   5.590   1.348   9.567  0.3705  1.8915  0.4332
  107OSM   C12F11004   5.402   1.436   9.499  0.7611  0.2576  0.4460
  107OSM   H12F11005   5.429   1.544   9.498 -3.1081  1.3841 -0.6678
  107OSM   H12G11006   5.294   1.436   9.524  0.7795  0.4934  0.5333
  107OSM   C13F11007   5.430   1.387   9.354  0.5536  0.1579 -0.3398
  107OSM   H13F11008   5.392   1.284   9.340 -0.3363  0.6773 -1.9243
  107OSM   H13G11009   5.536   1.398   9.324  0.3401 -1.1048 -1.5948
  107OSM   C14F11010   5.342   1.466   9.252 -0.4959 -0.5907  0.8763
  107OSM   H14F11011   5.389   1.566   9.241  1.4958 -1.6375 -0.7380
  107OSM   H14G11012   5.233   1.476   9.274 -0.4184 -1.2384  1.5986
  107OSM   C15F11013   5.351   1.389   9.117 -0.4582  0.4127  0.5057
  107OSM   H15F11014   5.287   1.300   9.129 -0.0067 -0.0526 -0.4056
  107OSM   H15G11015   5.457   1.358   9.103 -1.2147 -4.4799  3.3869
  107OSM   C16F11016   5.306   1.477   8.998 -0.0847 -0.2439  0.0699
  107OSM   H16F11017   5.327   1.405   8.916  0.4005  2.1657 -2.0201
  107OSM   H16G11018   5.382   1.558   8.990  1.6006 -1.3924  2.8912
  107OSM   C17F11019   5.156   1.505   8.982  0.1607  0.2536 -0.3598
  107OSM   H17F11020   5.112   1.544   9.076 -0.9805 -0.6947 -0.4735
  107OSM   H17G11021   5.102   1.410   8.962 -0.0964  0.0181  1.3312
  107OSM   C18F11022   5.132   1.614   8.873  0.1847 -0.0685  0.2060
  107OSM   H18F11023   5.190   1.601   8.779 -2.5432 -0.2767 -1.5638
  107OSM   H18G11024   5.142   1.716   8.915 -1.9111 -0.4721  1.9068
  107OSM   H18H11025   5.027   1.610   8.837 -0.0314 -0.9126  0.8699
  108OSM      N11026   0.790   0.780  10.840 -0.8932 -0.0170 -0.6936
  108OSM    C1511027   0.729   0.727  10.968  0.8204 -0.4731 -0.9956
  108OSM   H15A11028   0.723   0.621  10.952 -0.9542 -0.7595  1.0016
  108OSM   H15B11029   0.633   0.777  10.977  1.3401  0.5312 -0.8032
  108OSM   H15C11030   0.788   0.760  11.052  1.3796 -0.6299 -1.3247
  108OSM    C1411031   0.760   0.932  10.832 -0.0544  0.1649  0.6104
  108OSM   H14A11032   0.781   0.985  10.741 -2.7507 -0.1279 -0.2637
  108OSM   H14B11033   0.821   0.987  10.902  0.4403  0.5911 -0.1411
  108OSM   H14C11034   0.655   0.942  10.856 -0.3412 -2.6350  0.8978
  108OSM    C1311035   0.938   0.770  10.855  0.0299 -0.1758  0.3499
  108OSM   H13A11036   0.965   0.666  10.856 -0.8164 -0.4055  0.0892
  108OSM   H13B11037   0.974   0.812  10.948 -1.0139 -1.0176  1.1696
  108OSM   H13C11038   0.993   0.815  10.775  0.9118  0.4087  1.2577
  108OSM    C1211039   0.728   0.719  10.722  0.3264  0.4527  0.5535
  108OSM   H12A11040   0.768   0.765  10.633 -0.0186 -1.5481 -0.6869
  108OSM   H12B11041   0.622   0.740  10.723  0.7212  2.9030 -0.8951
  108OSM    C1111042   0.757   0.569  10.702  0.2823 -0.4310 -0.4483
  108OSM   H11A11043   0.867   0.576  10.716  0.3610 -0.0663 -1.1836
  108OSM   H11B11044   0.720   0.538  10.601 -0.0419  2.0452 -1.1428
  108OSM      P11045   0.745   0.351  10.832 -0.0285  0.1199  0.3410
  108OSM    O1311046   0.889   0.345  10.847 -0.1834 -0.0731  0.0355
  108OSM    O1411047   0.656   0.310  10.944  0.2225  0.1603 -0.4708
  108OSM    O1111048   0.699   0.270  10.704  0.1569 -0.2943  0.1384
  108OSM    O1211049   0.698   0.501  10.801 -0.2901  0.7889  0.1070
  108OSM    C1S11050   0.561   0.231  10.687  0.0428 -1.2169 -0.1737
  108OSM    H1S11051   0.491   0.309  10.727  0.6969 -0.8094  0.1932
  108OSM    H1T11052   0.537   0.144  10.751  0.5317 -2.9059 -2.2032
  108OSM     NF11053   0.387   0.158  10.542 -0.3807  0.4941  0.6858
  108OSM    HNF11054   0.375   0.059  10.548  0.0203  0.4981  1.8898
  108OSM    C2S11055   0.530   0.195  10.540  0.4775  0.4868 -0.5314
  108OSM    H2S11056   0.543   0.277  10.467 -1.5058  3.2278  1.9351
  108OSM    C3S11057   0.618   0.073  10.505  0.5137  0.8322  0.0417
  108OSM    H3S11058   0.602  -0.000  10.587  0.8286  2.0649  1.2415
  108OSM     O311059   0.762   0.098  10.501 -0.1271  0.2202 -0.1810
  108OSM    HO311060   0.758   0.182  10.547 -0.7064 -0.2943  0.7585
  108OSM    C4S11061   0.566   0.011  10.378 -0.4610 -0.2777  0.2556
  108OSM    H4S11062   0.468  -0.036  10.389 -1.4001  1.9931  2.9704
  108OSM    C5S11063   0.617   0.028  10.256  0.1520 -0.5004 -0.0522
  108OSM    H5S11064   0.713   0.079  10.237  0.0778  0.2331  1.3858
  108OSM    C6S11065   0.545  -0.027  10.132  0.0881  0.3691 -0.1558
  108OSM    H6S11066   0.464  -0.097  10.162  0.3303 -0.4613 -1.4027
  108OSM    H6T11067   0.618  -0.080  10.068  0.8233  2.4153 -1.1060
  108OSM    C7S11068   0.495   0.092  10.052 -0.4151  0.3160  0.6383
  108OSM    H7S11069   0.572   0.171  10.044  0.1949  0.0323  3.0563
  108OSM    H7T11070   0.412   0.143  10.106  0.5835  2.2777  0.3925
  108OSM    C8S11071   0.470   0.050   9.901  1.7151 -0.1705 -1.8689
  108OSM    H8S11072   0.415   0.135   9.856 -0.1169 -1.3611 -2.0048
  108OSM    H8T11073   0.406  -0.041   9.912 -0.1257  1.2217 -0.5560
  108OSM    C9S11074   0.603   0.018   9.827 -0.1170  0.2719  0.4079
  108OSM    H9S11075   0.619  -0.081   9.874 -2.7998 -0.2115  0.5086
  108OSM    H9T11076   0.675   0.099   9.850  1.0284 -0.8552  0.9093
  108OSM   C10S11077   0.576  -0.007   9.678 -0.4113 -0.3122  0.8132
  108OSM   H10S11078   0.502  -0.090   9.667 -0.1338 -0.3306 -1.2988
  108OSM   H10T11079   0.673  -0.040   9.635 -0.0738  0.6015  0.8679
  108OSM   C11S11080   0.526   0.105   9.593  0.3248  0.4061  0.1721
  108OSM   H11S11081   0.602   0.187   9.595  2.1084 -1.1783 -0.0128
  108OSM   H11T11082   0.429   0.145   9.628  0.7565  1.3841  0.2909
  108OSM   C12S11083   0.508   0.062   9.445  0.1594  0.1751  0.6428
  108OSM   H12S11084   0.450  -0.031   9.429  0.5764  0.0454 -0.1698
  108OSM   H12T11085   0.612   0.039   9.413  0.3448  2.2281 -0.4306
  108OSM   C13S11086   0.458   0.181   9.369 -0.1968 -1.1120 -0.2235
  108OSM   H13S11087   0.534   0.261   9.374 -1.7301  0.4196 -0.4076
  108OSM   H13T11088   0.376   0.230   9.426  1.7281  0.0966  1.6256
  108OSM   C14S11089   0.418   0.147   9.222 -0.1115  0.4897  0.3441
  108OSM   H14S11090   0.390   0.245   9.179 -0.2732 -0.1948 -1.1934
  108OSM   H14T11091   0.337   0.073   9.205  0.3722  0.4253 -2.0421
  108OSM   C15S11092   0.533   0.084   9.142 -0.5965 -0.7317  0.7175
  108OSM   H15S11093   0.539  -0.024   9.165 -2.2960 -1.4668 -1.8680
  108OSM   H15T11094   0.631   0.134   9.158 -1.0334 -0.5635  3.3667
  108OSM   C16S11095   0.498   0.088   8.994 -0.1438  0.3680  0.8222
  108OSM   H16S11096   0.470   0.195   8.980 -0.0787  0.1479 -1.1809
  108OSM   H16T11097   0.417   0.018   8.965  0.5001 -0.3410  0.7067
  108OSM   C17S11098   0.622   0.056   8.912 -0.1124  0.4639 -0.4217
  108OSM   H17S11099   0.638  -0.054   8.919 -1.0716  0.2456 -1.3029
  108OSM   H17T11100   0.704   0.114   8.959 -1.4773  1.6052  0.6316
  108OSM   C18S11101   0.623   0.080   8.756  0.5165  0.0394  0.8258
  108OSM   H18S11102   0.644   0.187   8.733  1.1451  0.6227  3.7531
  108OSM   H18T11103   0.531   0.044   8.706  0.9371 -0.9754  0.7580
  108OSM   H18U11104   0.698   0.021   8.699 -1.7811 -1.9190 -0.3855
  108OSM    C1F11105   0.292   0.249  10.532 -0.2014 -0.1516  0.1779
  108OSM     OF11106   0.320   0.365  10.548 -0.5649 -0.5262  1.0982
  108OSM    C2F11107   0.148   0.205  10.516 -1.1466 -0.6336  0.3411
  108OSM    H2F11108   0.101   0.231  10.613 -1.4523  0.8175 -0.1796
  108OSM    H2G11109   0.140   0.094  10.505  0.4317 -0.6365 -1.2453
  108OSM    C3F11110   0.074   0.285  10.399  0.3983 -0.0812 -0.6773
  108OSM    H3F11111   0.089   0.394  10.408  1.0962 -0.2129 -0.1918
  108OSM    H3G11112  -0.034   0.258  10.402  0.1559  0.9709  0.6840
  108OSM    C4F11113   0.135   0.237  10.264 -0.3537 -0.4259 -0.1729
  108OSM    H4F11114   0.132   0.126  10.271 -0.5961 -0.4197 -0.1525
  108OSM    H4G11115   0.242   0.265  10.262 -0.6055  0.8687  1.7083
  108OSM    C5F11116   0.053   0.293  10.154 -0.8383  0.6313 -0.4260
  108OSM    H5F11117   0.035   0.401  10.168  0.9589  1.2208 -2.2205
  108OSM    H5G11118  -0.050   0.252  10.167 -0.3638 -0.0792  1.4938
  108OSM    C6F11119   0.109   0.254  10.021 -0.2344 -0.2092  0.3091
  108OSM    H6F11120   0.095   0.145  10.004 -4.8396  0.1985  0.0261
  108OSM    H6G11121   0.217   0.278  10.012  0.1733 -1.8822  0.5314
  108OSM    C7F11122   0.039   0.323   9.903 -0.0027 -0.0295 -0.7110
  108OSM    H7F11123   0.044   0.432   9.924  1.9340  0.0087 -1.2257
  108OSM    H7G11124  -0.069   0.298   9.907  0.2600 -1.1082  2.3797
  108OSM    C8F11125   0.107   0.273   9.777  0.0666 -0.7867 -0.8013
  108OSM    H8F11126   0.217   0.291   9.770  0.1281 -1.2014 -0.9431
  108OSM    H8G11127   0.079   0.337   9.691  0.2642 -1.4541 -1.3702
  108OSM    C9F11128   0.054   0.137   9.739  0.1351 -0.0202  0.5496
  108OSM    H9F11129   0.105   0.049   9.783  1.4428 -0.1241 -1.0736
  108OSM   C10F11130  -0.051   0.110   9.661  0.0162  0.0834  1.6141
  108OSM   H10F11131  -0.066   0.003   9.642  0.2356  0.5335 -1.4894
  108OSM   C11F11132  -0.139   0.213   9.599  0.6282  0.7416  0.3056
  108OSM   H11F11133  -0.172   0.303   9.656 -2.9156  0.6688 -1.3498
  108OSM   H11G11134  -0.236   0.162   9.578 -0.6131  2.3491  1.7682
  108OSM   C12F11135  -0.086   0.254   9.458  0.2779 -0.0621 -0.1696
  108OSM   H12F11136   0.006   0.315   9.466 -0.5817  1.3785 -0.7569
  108OSM   H12G11137  -0.163   0.321   9.414  0.7969 -0.8854 -2.5072
  108OSM   C13F11138  -0.072   0.139   9.359  0.0608  0.3798  0.6305
  108OSM   H13F11139  -0.164   0.077   9.354  1.8632 -2.5119  0.7588
  108OSM   H13G11140   0.006   0.065   9.385 -0.7167 -1.2127 -1.3545
  108OSM   C14F11141  -0.058   0.203   9.217  0.2812  0.2811 -0.3508
  108OSM   H14F11142   0.007   0.293   9.219  1.1776 -0.3097 -1.3226
  108OSM   H14G11143  -0.159   0.237   9.186  0.3308  0.3613 -0.4255
  108OSM   C15F11144  -0.002   0.099   9.117 -0.6002 -0.4208 -0.4349
  108OSM   H15F11145  -0.081   0.023   9.099 -1.0270 -0.0257 -0.2739
  108OSM   H15G11146   0.092   0.048   9.147 -0.1637 -1.1241 -2.8076
  108OSM   C16F11147   0.018   0.154   8.976 -1.1785 -0.5385  0.3969
  108OSM   H16F11148   0.098   0.104   8.917 -2.2016  0.6095 -2.1063
  108OSM   H16G11149   0.050   0.260   8.988 -1.5993 -0.5148  1.4461
  108OSM   C17F11150  -0.105   0.148   8.885 -0.6635 -0.4123  0.0755
  108OSM   H17F11151  -0.208   0.158   8.926 -0.6730 -1.2639  0.2834
  108OSM   H17G11152  -0.098   0.044   8.845 -2.2334  0.0540 -1.5259
  108OSM   C18F11153  -0.086   0.226   8.756 -0.6502 -0.3335  0.5573
  108OSM   H18F11154  -0.148   0.182   8.675  1.9854 -1.9570 -0.7478
  108OSM   H18G11155   0.014   0.219   8.708 -1.6854 -1.8711 -1.5320
  108OSM   H18H11156  -0.108   0.332   8.780  0.5639  0.3114 -0.9909
  109OSM      N11157   6.673   5.757  11.341 -0.1776 -0.0015  0.3099
  109OSM    C1511158   6.546   5.838  11.359 -0.3445 -0.3830 -1.1456
  109OSM   H15A11159   6.562   5.919  11.429 -0.5172 -2.5379  1.5510
  109OSM   H15B11160   6.471   5.779  11.409  1.2587 -1.4144  0.1476
  109OSM   H15C11161   6.505   5.879  11.268  1.2790  3.6024 -0.2915
  109OSM    C1411162   6.765   5.855  11.280 -0.2985 -0.1234  0.0609
  109OSM   H14A11163   6.862   5.821  11.249 -0.4648  0.8776 -1.7095
  109OSM   H14B11164   6.776   5.929  11.358 -1.7772 -1.0638  1.2177
  109OSM   H14C11165   6.715   5.906  11.199  1.7471  0.2845 -1.0272
  109OSM    C1311166   6.738   5.714  11.471  0.2215 -0.1059 -0.2995
  109OSM   H13A11167   6.688   5.636  11.527 -0.1631  0.9694  0.8916
  109OSM   H13B11168   6.756   5.798  11.536  1.5236  1.4360 -2.5204
  109OSM   H13C11169   6.836   5.677  11.441  1.1542  0.6530  1.6461
  109OSM    C1211170   6.662   5.632  11.250  0.0142 -0.1469 -0.5849
  109OSM   H12A11171   6.606   5.553  11.297  0.9824 -0.8587 -0.6043
  109OSM   H12B11172   6.762   5.593  11.252  0.5302  1.1344  2.0740
  109OSM    C1111173   6.603   5.650  11.110 -0.3142 -0.2772  0.1590
  109OSM   H11A11174   6.623   5.554  11.058  0.2631 -0.9794  1.6066
  109OSM   H11B11175   6.671   5.722  11.060  0.2426  0.8360  2.3814
  109OSM      P11176   6.429   5.814  11.019  0.1480 -0.0737  0.1065
  109OSM    O1311177   6.284   5.806  10.984  0.2863  0.2014 -0.5274
  109OSM    O1411178   6.482   5.946  11.056  0.2832  0.3349  0.2207
  109OSM    O1111179   6.509   5.766  10.889 -0.4303 -0.7818 -0.1554
  109OSM    O1211180   6.466   5.698  11.118  0.1447  0.2746  0.0700
  109OSM    C1S11181   6.451   5.663  10.810  0.1754 -0.2704  0.1647
  109OSM    H1S11182   6.341   5.672  10.801 -0.2779 -2.7519  1.8730
  109OSM    H1T11183   6.461   5.562  10.856 -2.7123 -1.1047 -0.8041
  109OSM     NF11184   6.431   5.578  10.574 -0.0408 -0.8872  0.2986
  109OSM    HNF11185   6.460   5.493  10.532  3.4273  1.1789 -2.0416
  109OSM    C2S11186   6.516   5.650  10.668  0.4832 -0.1312  0.0832
  109OSM    H2S11187   6.526   5.754  10.630 -2.5602 -0.1358 -1.0345
  109OSM    C3S11188   6.657   5.592  10.690  0.4218 -0.1172  0.1351
  109OSM    H3S11189   6.638   5.487  10.720 -0.1595 -0.6242 -1.8269
  109OSM     O311190   6.737   5.660  10.789  0.1946  0.0380 -0.1212
  109OSM    HO311191   6.670   5.715  10.828 -0.7868 -1.2041  0.0196
  109OSM    C4S11192   6.731   5.576  10.560  0.0557 -0.1768 -0.0785
  109OSM    H4S11193   6.726   5.471  10.529  0.0003 -0.7244  1.6525
  109OSM    C5S11194   6.808   5.664  10.490  0.2318  0.0988  0.0596
  109OSM    H5S11195   6.819   5.768  10.525 -0.4218  0.4129 -0.6339
  109OSM    C6S11196   6.890   5.637  10.363 -0.1195  0.8085  0.0039
  109OSM    H6S11197   6.946   5.544  10.383 -1.5739 -0.1722 -0.3178
  109OSM    H6T11198   6.963   5.714  10.330  1.2725 -0.0348  1.0047
  109OSM    C7S11199   6.813   5.614  10.225  0.7107  0.7510 -0.4401
  109OSM    H7S11200   6.740   5.692  10.194 -1.6992 -1.1150  0.1614
  109OSM    H7T11201   6.742   5.530  10.242 -1.3759  2.9827  3.2178
  109OSM    C8S11202   6.916   5.576  10.113 -0.7251  0.0945 -0.4145
  109OSM    H8S11203   6.966   5.481  10.141  0.0303  0.3668 -0.8269
  109OSM    H8T11204   6.995   5.654  10.122  0.0967 -0.6370 -1.1674
  109OSM    C9S11205   6.852   5.575   9.973  0.5674  0.3776  0.5936
  109OSM    H9S11206   6.815   5.679   9.963  2.1714  0.8362 -1.4202
  109OSM    H9T11207   6.764   5.506   9.971  1.7575 -1.1989 -0.8818
  109OSM   C10S11208   6.946   5.561   9.854 -0.1566 -0.4300 -0.0503
  109OSM   H10S11209   7.035   5.622   9.880  2.9902 -4.1862 -1.1513
  109OSM   H10T11210   6.892   5.600   9.765  0.0930 -3.0981 -1.4590
  109OSM   C11S11211   6.992   5.420   9.842  0.6348 -0.0234  0.3658
  109OSM   H11S11212   6.901   5.360   9.822  0.7704 -0.6821  1.6289
  109OSM   H11T11213   7.042   5.374   9.929  1.8708  0.1767 -0.2238
  109OSM   C12S11214   7.047   5.385   9.700  0.3949  0.3789 -0.6233
  109OSM   H12S11215   7.140   5.444   9.698  1.9454 -1.9178 -0.2002
  109OSM   H12T11216   6.979   5.425   9.621 -0.1675  1.0760  0.2028
  109OSM   C13S11217   7.061   5.238   9.685  0.0697  0.4554  0.3340
  109OSM   H13S11218   6.977   5.184   9.734 -1.6361 -0.7076 -3.4987
  109OSM   H13T11219   7.153   5.209   9.741 -0.5745 -0.1760  1.0908
  109OSM   C14S11220   7.065   5.196   9.535  0.2814 -0.2645 -0.1903
  109OSM   H14S11221   7.113   5.278   9.477 -1.6812  1.0159 -0.0816
  109OSM   H14T11222   6.963   5.186   9.491 -0.9020  0.2017  2.3018
  109OSM   C15S11223   7.145   5.064   9.513 -0.1821 -0.0541 -0.6903
  109OSM   H15S11224   7.089   4.977   9.552  0.5671 -0.3567 -0.2763
  109OSM   H15T11225   7.241   5.071   9.568 -0.9414  1.4497  0.5314
  109OSM   C16S11226   7.187   5.044   9.366 -0.2315  0.1067  0.3157
  109OSM   H16S11227   7.236   5.141   9.341  2.4118 -0.7543  1.7397
  109OSM   H16T11228   7.099   5.028   9.300  1.0709 -0.2382 -1.4099
  109OSM   C17S11229   7.287   4.927   9.345  0.4391 -0.3373 -0.7405
  109OSM   H17S11230   7.292   4.902   9.236 -1.3967  1.3311 -1.2769
  109OSM   H17T11231   7.232   4.848   9.400  2.0219 -0.7820  0.2510
  109OSM   C18S11232   7.422   4.948   9.394 -0.3519  0.6687 -0.2241
  109OSM   H18S11233   7.498   4.878   9.353 -0.1498  0.4886  0.4362
  109OSM   H18T11234   7.422   4.929   9.504 -0.6672 -1.1855 -0.5116
  109OSM   H18U11235   7.460   5.049   9.370 -1.3245  0.5953 -2.2114
  109OSM    C1F11236   6.316   5.633  10.535 -0.4408  0.2926 -0.5717
  109OSM     OF11237   6.311   5.754  10.541 -0.1543 -0.0389 -0.3911
  109OSM    C2F11238   6.204   5.544  10.489 -1.1449 -0.2156  0.2691
  109OSM    H2F11239   6.132   5.510  10.566 -1.2545 -2.9023 -0.8847
  109OSM    H2G11240   6.246   5.449  10.448 -1.7585 -0.1516 -0.5152
  109OSM    C3F11241   6.136   5.614  10.367 -0.1491 -0.5291 -0.4098
  109OSM    H3F11242   6.092   5.711  10.399  0.9173 -0.4377  0.8527
  109OSM    H3G11243   6.045   5.553  10.351  0.6540 -1.7716 -0.4369
  109OSM    C4F11244   6.209   5.637  10.237 -0.2417  0.2014 -0.2506
  109OSM    H4F11245   6.295   5.702  10.265  0.7679 -0.9990 -0.4279
  109OSM    H4G11246   6.145   5.704  10.176  1.9066  2.8815  0.2586
  109OSM    C5F11247   6.246   5.504  10.168  0.0115 -0.3921 -0.2329
  109OSM    H5F11248   6.149   5.451  10.168 -1.1038  1.3851  2.6920
  109OSM    H5G11249   6.320   5.448  10.228  0.0147  0.5016  0.6321
  109OSM    C6F11250   6.299   5.527  10.023 -0.2389 -0.3812  0.1776
  109OSM    H6F11251   6.392   5.587  10.026 -1.7913  2.1838  0.2652
  109OSM    H6G11252   6.219   5.572   9.961  0.2311 -0.8939 -0.8091
  109OSM    C7F11253   6.322   5.398   9.943 -0.0325 -0.2200 -0.3455
  109OSM    H7F11254   6.227   5.341   9.948 -0.1403 -0.0201 -0.0788
  109OSM    H7G11255   6.389   5.333  10.003 -0.7491 -1.4450 -0.8242
  109OSM    C8F11256   6.364   5.419   9.797 -0.1372 -0.2400  0.3991
  109OSM    H8F11257   6.285   5.467   9.736  2.0701  3.5960  0.2733
  109OSM    H8G11258   6.369   5.319   9.749  0.7563  0.5381 -1.2069
  109OSM    C9F11259   6.490   5.499   9.783  0.0309  0.3021  0.3941
  109OSM    H9F11260   6.481   5.599   9.828 -0.0198 -0.5155  2.3152
  109OSM   C10F11261   6.605   5.457   9.722  0.0288  0.4492  0.3739
  109OSM   H10F11262   6.693   5.523   9.721  1.4175 -1.3021 -0.2539
  109OSM   C11F11263   6.644   5.325   9.661 -0.3239  0.0952  1.0691
  109OSM   H11F11264   6.559   5.253   9.669  1.1624 -2.0684 -1.0164
  109OSM   H11G11265   6.736   5.283   9.708 -0.0249  0.5625  0.9036
  109OSM   C12F11266   6.680   5.357   9.515  0.7030 -0.3560 -0.5189
  109OSM   H12F11267   6.783   5.400   9.513  0.0933  1.1499 -0.5928
  109OSM   H12G11268   6.623   5.439   9.465 -0.0839  1.4406  2.9923
  109OSM   C13F11269   6.681   5.238   9.426 -0.0521  0.9292 -0.2909
  109OSM   H13F11270   6.573   5.213   9.435 -0.7683  3.8312  0.0780
  109OSM   H13G11271   6.746   5.156   9.465  0.2361  0.4546 -1.6976
  109OSM   C14F11272   6.739   5.273   9.291  0.4381  0.7206 -0.3036
  109OSM   H14F11273   6.846   5.300   9.283  0.8339 -0.6048  0.1341
  109OSM   H14G11274   6.677   5.347   9.237  1.2948  0.2141 -2.0537
  109OSM   C15F11275   6.709   5.154   9.197 -0.4206 -1.2501 -0.2998
  109OSM   H15F11276   6.741   5.191   9.098 -0.5019  2.6217  0.9715
  109OSM   H15G11277   6.602   5.123   9.201 -0.0053 -2.6886  0.4388
  109OSM   C16F11278   6.779   5.022   9.226 -0.6470 -0.2096 -0.4325
  109OSM   H16F11279   6.730   4.968   9.310 -1.0351 -1.5672 -1.4834
  109OSM   H16G11280   6.882   5.051   9.254 -0.4180 -1.5504  0.2197
  109OSM   C17F11281   6.783   4.927   9.107 -0.4680 -0.2351  0.2619
  109OSM   H17F11282   6.812   4.988   9.020  2.1788 -0.3749  0.9686
  109OSM   H17G11283   6.676   4.896   9.099 -0.4533 -1.0978  2.4599
  109OSM   C18F11284   6.874   4.809   9.130 -0.5589 -0.3502 -0.1796
  109OSM   H18F11285   6.979   4.833   9.155 -0.9729  1.7449 -0.2806
  109OSM   H18G11286   6.856   4.753   9.036  1.5510  1.4473 -1.7166
  109OSM   H18H11287   6.830   4.750   9.214 -0.5296  0.5805  0.4954
  110OSM      N11288   0.111   3.443  10.954 -0.4868  0.3788 -0.3748
  110OSM    C1511289   0.251   3.376  10.972 -0.2036 -0.3478  0.3031
  110OSM   H15A11290   0.313   3.418  11.050  1.0799  1.8430 -1.7558
  110OSM   H15B11291   0.301   3.387  10.877 -1.5172 -2.2633 -0.6849
  110OSM   H15C11292   0.237   3.269  10.980  0.0211 -0.2834  1.9058
  110OSM    C1411293   0.036   3.372  10.842 -0.5533  0.0595 -0.2548
  110OSM   H14A11294   0.088   3.386  10.748 -2.1003  0.2464 -1.1200
  110OSM   H14B11295  -0.063   3.408  10.818 -0.7786 -0.2004  0.2602
  110OSM   H14C11296   0.024   3.268  10.868  1.1182  0.0523  0.5926
  110OSM    C1311297   0.040   3.428  11.085  0.0537  0.0424  0.6521
  110OSM   H13A11298   0.042   3.323  11.110  0.0680 -0.2668 -0.5589
  110OSM   H13B11299  -0.063   3.460  11.085 -0.2618 -0.8098 -1.4837
  110OSM   H13C11300   0.097   3.472  11.166  1.6006 -0.4580 -0.1245
  110OSM    C1211301   0.119   3.594  10.930  0.0828  0.1226 -0.0927
  110OSM   H12A11302   0.143   3.651  11.018 -0.1903  0.6807 -0.3740
  110OSM   H12B11303   0.018   3.620  10.901  0.0989  0.1655 -0.1111
  110OSM    C1111304   0.216   3.640  10.819 -0.4092 -0.7842 -0.2929
  110OSM   H11A11305   0.182   3.740  10.784  0.7239 -0.5352 -0.6982
  110OSM   H11B11306   0.204   3.572  10.732 -1.9371 -0.6423 -0.2358
  110OSM      P11307   0.393   3.787  10.936 -0.0545 -0.0207  0.5398
  110OSM    O1311308   0.292   3.833  11.032  0.2373  0.3388 -0.4209
  110OSM    O1411309   0.532   3.779  10.988  0.2056  0.3747 -0.0309
  110OSM    O1111310   0.397   3.887  10.810  0.3679 -0.1647  0.0872
  110OSM    O1211311   0.346   3.656  10.868 -0.1800 -0.3708 -0.3039
  110OSM    C1S11312   0.500   3.889  10.710  0.0055  0.5031  0.6521
  110OSM    H1S11313   0.576   3.811  10.733 -0.5642  0.2079  1.6026
  110OSM    H1T11314   0.566   3.977  10.729  0.7042 -0.1534  1.3753
  110OSM     NF11315   0.559   3.857  10.475 -0.1736 -0.3682  0.6991
  110OSM    HNF11316   0.557   3.929  10.406 -2.3483 -0.3880  0.6907
  110OSM    C2S11317   0.448   3.857  10.565 -0.2575 -0.4229 -0.3222
  110OSM    H2S11318   0.403   3.755  10.574 -0.5162 -0.2149  1.0809
  110OSM    C3S11319   0.332   3.961  10.519 -0.5290 -0.4616 -0.0560
  110OSM    H3S11320   0.380   4.061  10.511  0.7988 -1.1395 -1.0268
  110OSM     O311321   0.229   3.985  10.613  0.3496 -0.2147  1.0717
  110OSM    HO311322   0.260   3.932  10.687 -0.0742 -1.3057  0.4819
  110OSM    C4S11323   0.286   3.928  10.384 -0.3340  0.5814 -0.3932
  110OSM    H4S11324   0.299   4.012  10.315  3.5205  0.7688  0.3018
  110OSM    C5S11325   0.220   3.813  10.346  0.0064 -0.2836 -0.2619
  110OSM    H5S11326   0.178   3.736  10.413 -0.1730 -0.2400 -0.3240
  110OSM    C6S11327   0.176   3.785  10.200  0.2227  0.1672 -1.0249
  110OSM    H6S11328   0.067   3.761  10.196  0.4772 -1.9407  1.7079
  110OSM    H6T11329   0.226   3.701  10.147  0.2679  1.1296 -2.5763
  110OSM    C7S11330   0.198   3.903  10.104 -0.6867  0.0549 -1.0922
  110OSM    H7S11331   0.306   3.930  10.113 -0.7164 -0.3875  1.8911
  110OSM    H7T11332   0.150   3.996  10.141 -0.6903  0.4484 -2.0669
  110OSM    C8S11333   0.168   3.865   9.960 -0.0875  0.2121 -0.2321
  110OSM    H8S11334   0.069   3.816   9.946 -1.2576  1.6198  2.4363
  110OSM    H8T11335   0.249   3.794   9.936  1.1450  0.9617  1.5242
  110OSM    C9S11336   0.171   3.984   9.861  0.3382  0.3548 -0.4106
  110OSM    H9S11337   0.261   4.046   9.884 -1.0456  1.8662  1.2773
  110OSM    H9T11338   0.081   4.049   9.868  0.1440  0.0382  0.0645
  110OSM   C10S11339   0.178   3.932   9.715 -0.2551 -0.5734  0.3264
  110OSM   H10S11340   0.081   3.883   9.692 -0.3579 -0.0308 -0.4113
  110OSM   H10T11341   0.264   3.862   9.704 -0.3892 -0.9015  1.2444
  110OSM   C11S11342   0.198   4.043   9.612  0.1987 -0.4314 -0.9745
  110OSM   H11S11343   0.291   4.098   9.639  0.1924 -0.6832 -0.4437
  110OSM   H11T11344   0.109   4.107   9.629  0.5584 -0.0698 -0.4203
  110OSM   C12S11345   0.216   3.997   9.463  0.1554 -0.1658  0.9240
  110OSM   H12S11346   0.123   3.945   9.432  1.0173 -0.6595 -0.9673
  110OSM   H12T11347   0.303   3.929   9.449  0.0506 -0.0086 -0.5882
  110OSM   C13S11348   0.226   4.116   9.361  0.3865 -1.1330 -0.8005
  110OSM   H13S11349   0.299   4.184   9.410 -0.1285 -2.0437  1.4038
  110OSM   H13T11350   0.136   4.179   9.347  1.2211 -0.2527 -2.3833
  110OSM   C14S11351   0.294   4.079   9.234 -0.3470 -0.1235 -0.4646
  110OSM   H14S11352   0.257   3.982   9.196  0.6397 -0.3382 -0.9195
  110OSM   H14T11353   0.401   4.072   9.263 -0.1884  1.2948 -0.6419
  110OSM   C15S11354   0.292   4.179   9.118 -0.2505 -0.4259  0.1159
  110OSM   H15S11355   0.355   4.149   9.031 -1.6384  2.5787 -2.0955
  110OSM   H15T11356   0.337   4.274   9.153 -2.1149  0.0378  1.3890
  110OSM   C16S11357   0.152   4.211   9.051 -0.9363 -0.4487  0.3926
  110OSM   H16S11358   0.092   4.248   9.136 -0.2152 -1.1261  1.2159
  110OSM   H16T11359   0.115   4.107   9.034 -1.1723 -0.8193  2.8385
  110OSM   C17S11360   0.150   4.298   8.930  0.1391  0.2998 -0.0780
  110OSM   H17S11361   0.049   4.306   8.885  0.3700  0.5513 -0.5605
  110OSM   H17T11362   0.221   4.251   8.859 -1.7314 -1.9074 -0.6048
  110OSM   C18S11363   0.208   4.432   8.955 -0.1154  0.2798  0.4167
  110OSM   H18S11364   0.223   4.489   8.861 -2.0390 -0.0866 -0.1614
  110OSM   H18T11365   0.312   4.417   8.993  0.0428 -0.4973 -0.2830
  110OSM   H18U11366   0.137   4.484   9.023 -0.3682 -0.8758  1.0709
  110OSM    C1F11367   0.661   3.777  10.468 -0.1052  0.7725  0.2670
  110OSM     OF11368   0.675   3.686  10.549 -0.2738 -0.6417  0.1537
  110OSM    C2F11369   0.772   3.824  10.375 -0.4469  0.4876  0.1590
  110OSM    H2F11370   0.832   3.900  10.430 -0.1678  0.8487 -0.6376
  110OSM    H2G11371   0.738   3.856  10.274 -1.9931 -0.7485  0.2393
  110OSM    C3F11372   0.877   3.710  10.342 -0.3140 -0.0203 -0.7154
  110OSM    H3F11373   0.827   3.623  10.294 -2.1135  0.4909  0.1542
  110OSM    H3G11374   0.920   3.676  10.439 -2.3107  0.5714  0.4307
  110OSM    C4F11375   0.991   3.757  10.248  0.0675  0.1650  0.5969
  110OSM    H4F11376   1.040   3.846  10.291  0.1536  1.2918 -1.6607
  110OSM    H4G11377   0.960   3.788  10.145 -0.7129 -0.3437  0.6708
  110OSM    C5F11378   1.108   3.657  10.248 -0.3347 -0.7124  0.4462
  110OSM    H5F11379   1.072   3.553  10.232  0.8524 -0.9354 -0.9812
  110OSM    H5G11380   1.151   3.654  10.351 -1.2197  2.4632  1.0060
  110OSM    C6F11381   1.218   3.690  10.149 -0.6146  0.0723 -0.3201
  110OSM    H6F11382   1.257   3.794  10.156 -1.5782  0.3629  1.0118
  110OSM    H6G11383   1.194   3.676  10.042  4.1258 -1.1916 -1.4615
  110OSM    C7F11384   1.344   3.605  10.165  0.1274  0.2834 -0.5955
  110OSM    H7F11385   1.303   3.503  10.175 -1.3034  0.9088  0.2959
  110OSM    H7G11386   1.403   3.639  10.253  1.5446 -0.8394 -1.0819
  110OSM    C8F11387   1.443   3.603  10.048  0.3410  0.0995  0.1463
  110OSM    H8F11388   1.386   3.573   9.957  2.1920 -1.0343 -0.6795
  110OSM    H8G11389   1.512   3.518  10.062  1.0158  0.5539 -0.3687
  110OSM    C9F11390   1.507   3.741  10.050  0.0288 -1.0793  1.0556
  110OSM    H9F11391   1.512   3.785  10.151  2.7380  0.2688  0.4229
  110OSM   C10F11392   1.533   3.819   9.943  0.3980  0.5804  0.7715
  110OSM   H10F11393   1.578   3.918   9.957 -1.0094  1.4072 -0.3117
  110OSM   C11F11394   1.510   3.775   9.805 -0.8987 -0.4020  0.0900
  110OSM   H11F11395   1.402   3.772   9.781 -0.8618  1.7661 -0.5385
  110OSM   H11G11396   1.548   3.671   9.793 -3.7243 -1.2673 -3.3483
  110OSM   C12F11397   1.571   3.871   9.704 -0.2326 -0.4721  0.0126
  110OSM   H12F11398   1.681   3.878   9.716 -0.2414  1.3425 -0.6442
  110OSM   H12G11399   1.535   3.975   9.715 -1.1170 -0.7609 -0.0244
  110OSM   C13F11400   1.548   3.834   9.559  0.0201  0.7369  0.3566
  110OSM   H13F11401   1.439   3.818   9.545  0.1774 -3.2084  2.1484
  110OSM   H13G11402   1.574   3.726   9.556 -1.6670  0.2976  0.6788
  110OSM   C14F11403   1.617   3.927   9.452 -1.0453  0.4159  0.8116
  110OSM   H14F11404   1.724   3.943   9.477 -0.2207 -0.5143 -1.8165
  110OSM   H14G11405   1.581   4.029   9.475  0.8084  0.9115  1.7297
  110OSM   C15F11406   1.600   3.877   9.307 -0.0380  0.4635  0.0729
  110OSM   H15F11407   1.492   3.869   9.283 -0.0368  1.1836 -0.1851
  110OSM   H15G11408   1.633   3.771   9.299 -0.3852  0.4621 -1.7313
  110OSM   C16F11409   1.668   3.956   9.204 -1.1195 -0.4445  0.6869
  110OSM   H16F11410   1.775   3.932   9.221 -1.6426 -2.2713  1.7034
  110OSM   H16G11411   1.647   4.064   9.209 -0.3328 -0.2769  0.5302
  110OSM   C17F11412   1.623   3.919   9.056 -0.6741 -0.1299 -0.7205
  110OSM   H17F11413   1.661   3.994   8.984  0.5033 -1.4232 -1.5039
  110OSM   H17G11414   1.512   3.919   9.048 -0.7566 -3.7343 -1.3186
  110OSM   C18F11415   1.669   3.779   9.017  0.1725 -0.0268 -0.5826
  110OSM   H18F11416   1.656   3.772   8.907  1.4184 -1.1868 -0.6896
  110OSM   H18G11417   1.613   3.706   9.079  1.3885 -0.9940 -0.5679
  110OSM   H18H11418   1.778   3.756   9.028  0.9533  3.6360  0.7812
  111OSM      N11419   1.698   2.833  11.280 -0.1745 -0.2678  0.1002
  111OSM    C1511420   1.844   2.787  11.309 -0.3373  0.2326  0.1069
  111OSM   H15A11421   1.894   2.744  11.224  1.2812  2.2504 -0.0400
  111OSM   H15B11422   1.833   2.721  11.395  0.4571 -1.4291 -1.0166
  111OSM   H15C11423   1.895   2.875  11.346  0.1525 -0.3499  0.8481
  111OSM    C1411424   1.625   2.723  11.224 -0.0956 -0.2825  0.1715
  111OSM   H14A11425   1.534   2.752  11.174  1.5757  1.5010 -2.0975
  111OSM   H14B11426   1.596   2.648  11.296 -1.5472 -2.4198 -2.4397
  111OSM   H14C11427   1.686   2.665  11.156  1.4578 -0.9493  2.0335
  111OSM    C1311428   1.642   2.872  11.416 -0.2422  0.5662  0.1809
  111OSM   H13A11429   1.644   2.792  11.489 -1.2151 -0.6059 -1.0170
  111OSM   H13B11430   1.542   2.907  11.398 -0.3960 -0.4374 -1.1135
  111OSM   H13C11431   1.690   2.960  11.456 -1.1356  0.1862  2.1802
  111OSM    C1211432   1.699   2.952  11.185 -0.0540  0.1568 -0.5797
  111OSM   H12A11433   1.772   3.022  11.223 -0.1169  0.6011 -1.2750
  111OSM   H12B11434   1.598   2.990  11.181 -0.1055 -0.0830 -3.7491
  111OSM    C1111435   1.733   2.914  11.036 -0.3534 -0.0100 -0.1525
  111OSM   H11A11436   1.699   3.005  10.981 -2.9901 -0.8529 -0.0577
  111OSM   H11B11437   1.659   2.845  10.991 -0.8733  0.5237 -0.1314
  111OSM      P11438   1.996   2.962  11.040 -0.2735 -0.5676 -0.2963
  111OSM    O1311439   1.975   3.058  11.153  0.3227 -0.0942  0.0924
  111OSM    O1411440   2.120   2.880  11.031  0.2522 -0.4889  0.4262
  111OSM    O1111441   1.992   3.047  10.909 -0.1224  0.0800  0.0249
  111OSM    O1211442   1.866   2.869  11.025 -0.4044  0.1280 -0.0955
  111OSM    C1S11443   2.028   2.995  10.782  0.3056  0.4744 -0.1344
  111OSM    H1S11444   1.986   2.893  10.764  0.9813 -0.0275  0.9831
  111OSM    H1T11445   2.137   2.974  10.781 -0.0997 -2.0640 -2.0494
  111OSM     NF11446   2.071   3.025  10.537  0.2304  0.0700 -0.6135
  111OSM    HNF11447   2.138   3.083  10.491 -0.7023  1.1002 -0.7047
  111OSM    C2S11448   1.996   3.082  10.650  0.9940 -0.9140 -0.3825
  111OSM    H2S11449   1.889   3.069  10.624  1.1811 -2.3254 -0.5340
  111OSM    C3S11450   2.028   3.233  10.689 -0.2491 -0.3241  0.9394
  111OSM    H3S11451   2.138   3.248  10.695 -0.3146  0.5691  0.1762
  111OSM     O311452   1.989   3.281  10.812 -0.3100  0.4321 -0.0884
  111OSM    HO311453   1.962   3.202  10.859  1.2691 -0.7010 -0.9801
  111OSM    C4S11454   1.972   3.328  10.588  0.8487 -0.2038  0.5770
  111OSM    H4S11455   1.864   3.333  10.572  1.0034  0.3049 -0.3569
  111OSM    C5S11456   2.047   3.391  10.494  0.3697 -0.3428  0.2242
  111OSM    H5S11457   2.156   3.374  10.495  0.4946  0.2337  2.4343
  111OSM    C6S11458   1.999   3.485  10.390  1.0025  0.3487 -0.3035
  111OSM    H6S11459   2.079   3.497  10.315  1.3512 -0.7846 -0.1322
  111OSM    H6T11460   1.970   3.576  10.447 -0.0932  0.5437 -1.1496
  111OSM    C7S11461   1.873   3.440  10.319  0.2649  0.4852 -0.3954
  111OSM    H7S11462   1.788   3.453  10.389 -1.5378  1.8572 -2.6790
  111OSM    H7T11463   1.876   3.334  10.285  1.5633  0.8811 -1.5885
  111OSM    C8S11464   1.847   3.526  10.188  0.1760 -0.0845  0.0233
  111OSM    H8S11465   1.875   3.633  10.204  0.1325  0.3065 -2.2215
  111OSM    H8T11466   1.737   3.530  10.177  0.0907 -0.0415  0.8609
  111OSM    C9S11467   1.919   3.471  10.059  0.0317  0.3139  0.2407
  111OSM    H9S11468   1.913   3.360  10.061  0.6118  0.2483 -0.7780
  111OSM    H9T11469   2.026   3.493  10.080  0.2233 -0.8812  0.6371
  111OSM   C10S11470   1.882   3.526   9.926  0.0579  0.4619 -0.4860
  111OSM   H10S11471   1.906   3.634   9.937 -0.8070  0.4551  2.1452
  111OSM   H10T11472   1.772   3.513   9.914  0.1325  0.5287 -1.2832
  111OSM   C11S11473   1.971   3.461   9.816  0.0584  0.4714  0.1584
  111OSM   H11S11474   1.935   3.356   9.822  0.9316  0.1542  0.0562
  111OSM   H11T11475   2.079   3.461   9.842  0.1345  1.7075 -0.0912
  111OSM   C12S11476   1.959   3.532   9.680 -0.0383 -0.0625 -0.3008
  111OSM   H12S11477   1.852   3.546   9.654  0.1698  1.2965 -0.4840
  111OSM   H12T11478   2.011   3.469   9.604  0.3997 -0.9395  0.7035
  111OSM   C13S11479   2.028   3.661   9.674 -0.4376  0.0088 -0.3347
  111OSM   H13S11480   2.123   3.658   9.731 -2.0700  0.2623  2.6459
  111OSM   H13T11481   1.968   3.741   9.722 -1.2609  0.2944 -1.7778
  111OSM   C14S11482   2.056   3.704   9.526 -0.7762 -0.4998 -0.4759
  111OSM   H14S11483   1.957   3.690   9.478 -2.4833  0.2843  2.5953
  111OSM   H14T11484   2.123   3.622   9.492  1.1639 -0.6001  3.1187
  111OSM   C15S11485   2.109   3.841   9.510 -0.4553  0.2881  0.0520
  111OSM   H15S11486   2.038   3.915   9.553  1.6310  2.0782  0.6111
  111OSM   H15T11487   2.104   3.869   9.402 -1.8867 -2.9076 -0.8072
  111OSM   C16S11488   2.250   3.869   9.563 -0.0664  0.1361  0.1547
  111OSM   H16S11489   2.319   3.816   9.493 -0.2190  1.9034 -1.3956
  111OSM   H16T11490   2.259   3.830   9.667 -1.1013  2.5469  1.2123
  111OSM   C17S11491   2.286   4.020   9.563 -0.4147 -0.2306 -0.4864
  111OSM   H17S11492   2.218   4.072   9.634  0.4252 -1.1232  1.0394
  111OSM   H17T11493   2.274   4.060   9.460  0.9845  0.4464 -0.4078
  111OSM   C18S11494   2.437   4.040   9.602  0.5666  0.1358 -0.0148
  111OSM   H18S11495   2.496   4.119   9.549  0.2642  0.8156  0.6445
  111OSM   H18T11496   2.483   3.940   9.613 -0.6105 -0.4308 -0.1283
  111OSM   H18U11497   2.433   4.067   9.710  0.3156  2.3356 -0.5259
  111OSM    C1F11498   2.037   2.904  10.491  0.0765 -0.2487  0.4694
  111OSM     OF11499   1.942   2.840  10.537  0.5135  0.0569 -0.3628
  111OSM    C2F11500   2.123   2.855  10.373  0.0499  0.6422 -0.2980
  111OSM    H2F11501   2.214   2.811  10.418 -0.7430  1.1504  1.9362
  111OSM    H2G11502   2.153   2.942  10.311 -1.7107  0.5002 -1.4334
  111OSM    C3F11503   2.050   2.753  10.275 -0.7942  0.3327 -0.5749
  111OSM    H3F11504   1.944   2.778  10.253 -1.2483 -0.5258  0.5191
  111OSM    H3G11505   2.045   2.661  10.336 -1.6164  0.3442 -0.6149
  111OSM    C4F11506   2.134   2.713  10.152  0.1670  0.4147  0.7859
  111OSM    H4F11507   2.113   2.774  10.062  4.5654 -1.5409 -1.9409
  111OSM    H4G11508   2.101   2.611  10.122 -2.3118  1.1387  0.8414
  111OSM    C5F11509   2.283   2.700  10.175  0.1406 -0.2538  0.2715
  111OSM    H5F11510   2.285   2.672  10.283 -1.3787  0.0283  0.3946
  111OSM    H5G11511   2.332   2.799  10.176  1.7704 -0.9511  3.1446
  111OSM    C6F11512   2.363   2.605  10.082  0.6584  0.3586  0.8016
  111OSM    H6F11513   2.337   2.501  10.110 -1.3301  1.0000  1.5667
  111OSM    H6G11514   2.467   2.617  10.121  0.6979 -0.9853  1.1603
  111OSM    C7F11515   2.349   2.624   9.932  0.4405 -0.2307 -0.4767
  111OSM    H7F11516   2.398   2.723   9.914  2.6315 -1.5834 -2.4770
  111OSM    H7G11517   2.244   2.629   9.894  0.1295  0.5859  0.4376
  111OSM    C8F11518   2.435   2.525   9.853  0.0755 -0.2211 -1.0727
  111OSM    H8F11519   2.418   2.419   9.880 -1.2407  0.5728  1.6072
  111OSM    H8G11520   2.539   2.549   9.885  0.0513 -0.6415 -0.6767
  111OSM    C9F11521   2.418   2.551   9.705  0.5954 -0.2101  0.0499
  111OSM    H9F11522   2.311   2.557   9.679 -0.2348  1.1973  3.2661
  111OSM   C10F11523   2.515   2.552   9.616 -0.3118  0.0221  0.4250
  111OSM   H10F11524   2.493   2.572   9.510 -0.8334  1.1145  0.7206
  111OSM   C11F11525   2.660   2.532   9.641 -0.0072  0.1782  0.4513
  111OSM   H11F11526   2.700   2.585   9.730  0.5178 -1.7787  1.4395
  111OSM   H11G11527   2.719   2.579   9.560  0.2292  1.5153  1.3703
  111OSM   C12F11528   2.693   2.382   9.656  0.5321  0.4890 -0.0484
  111OSM   H12F11529   2.632   2.338   9.738 -1.9197  2.0479 -0.9102
  111OSM   H12G11530   2.801   2.369   9.675  0.6504  0.9369 -0.3852
  111OSM   C13F11531   2.657   2.288   9.536  0.0456  0.0920  0.0084
  111OSM   H13F11532   2.547   2.272   9.543  0.0281  0.0993 -0.2431
  111OSM   H13G11533   2.708   2.189   9.542  1.6563  0.7491 -1.9382
  111OSM   C14F11534   2.703   2.346   9.404 -0.0669 -0.7585 -0.3858
  111OSM   H14F11535   2.802   2.390   9.425 -1.1955  0.9125  1.7906
  111OSM   H14G11536   2.643   2.436   9.380  0.8586  0.0499  0.2336
  111OSM   C15F11537   2.712   2.251   9.292 -0.1720 -0.2578  0.6455
  111OSM   H15F11538   2.607   2.221   9.270 -1.4180  1.5534  3.4607
  111OSM   H15G11539   2.760   2.159   9.331 -0.6192  0.0191  1.9189
  111OSM   C16F11540   2.772   2.292   9.154  0.4212  0.3592 -0.5516
  111OSM   H16F11541   2.702   2.360   9.100  1.7448  1.1823 -1.3001
  111OSM   H16G11542   2.771   2.202   9.089  1.3960 -0.3086  0.3209
  111OSM   C17F11543   2.907   2.352   9.158 -0.6534  0.0053 -0.0438
  111OSM   H17F11544   2.975   2.279   9.207  1.2813 -0.3843 -3.0523
  111OSM   H17G11545   2.907   2.448   9.213  0.8745  0.8716 -1.4554
  111OSM   C18F11546   2.976   2.392   9.028 -0.1192 -0.5705 -0.4445
  111OSM   H18F11547   3.061   2.456   9.059 -0.3524 -0.6299  0.3277
  111OSM   H18G11548   2.911   2.448   8.957 -0.9158  0.6494  1.1673
  111OSM   H18H11549   3.007   2.306   8.966  2.2118 -0.5908  0.6531
  112OSM      N11550   0.544   6.349  11.470  0.1947  0.0284  0.6322
  112OSM    C1511551   0.404   6.296  11.445 -0.8315 -0.0134 -0.4154
  112OSM   H15A11552   0.359   6.250  11.531 -4.3649  3.8399  0.1511
  112OSM   H15B11553   0.402   6.239  11.353  0.3395  0.6865 -0.8957
  112OSM   H15C11554   0.335   6.379  11.437 -1.2259 -0.1204  1.4669
  112OSM    C1411555   0.552   6.421  11.600  0.0122 -0.1487  0.2408
  112OSM   H14A11556   0.481   6.501  11.614  1.2772  1.0656 -0.0669
  112OSM   H14B11557   0.652   6.461  11.611  1.0168 -2.4134 -0.1443
  112OSM   H14C11558   0.542   6.360  11.688 -0.4687 -1.5640 -0.7493
  112OSM    C1311559   0.639   6.232  11.487 -0.3490  0.4385 -0.4183
  112OSM   H13A11560   0.639   6.157  11.409  1.1901  0.8374 -0.8292
  112OSM   H13B11561   0.633   6.187  11.586  1.2279  1.1630  0.0448
  112OSM   H13C11562   0.737   6.277  11.482 -0.7198  1.1134 -2.0915
  112OSM    C1211563   0.595   6.445  11.362 -0.4586 -0.3433 -0.2683
  112OSM   H12A11564   0.684   6.495  11.396 -2.0349  2.9692 -0.6299
  112OSM   H12B11565   0.524   6.526  11.355  1.7346  1.6032 -1.1713
  112OSM    C1111566   0.605   6.396  11.218 -0.2269 -0.5421 -0.1733
  112OSM   H11A11567   0.526   6.322  11.190 -0.8002 -0.2366  0.6173
  112OSM   H11B11568   0.700   6.343  11.197 -0.5090 -0.6818 -1.1821
  112OSM      P11569   0.477   6.560  11.061  0.4688  0.0932  0.1216
  112OSM    O1311570   0.363   6.478  11.103 -0.1135 -0.2009 -0.1982
  112OSM    O1411571   0.456   6.704  11.077  0.4727 -0.3888  0.2013
  112OSM    O1111572   0.513   6.527  10.914 -0.6536  0.2357 -0.0353
  112OSM    O1211573   0.608   6.513  11.135 -0.2029  0.3498 -0.0219
  112OSM    C1S11574   0.421   6.471  10.819 -0.2920 -0.3267 -0.0345
  112OSM    H1S11575   0.329   6.531  10.800 -0.0483  0.2274  0.5168
  112OSM    H1T11576   0.378   6.373  10.850 -1.5639  0.6203  1.3315
  112OSM     NF11577   0.399   6.449  10.577 -0.2601  0.2912  0.4674
  112OSM    HNF11578   0.398   6.364  10.526 -0.7184  0.0956  0.7951
  112OSM    C2S11579   0.496   6.460  10.682 -0.1857  0.5409 -0.1970
  112OSM    H2S11580   0.558   6.549  10.655 -0.1205  0.6583  0.3337
  112OSM    C3S11581   0.594   6.341  10.691  0.6141 -0.4612 -0.0801
  112OSM    H3S11582   0.539   6.250  10.723 -2.9317  1.3312 -0.5861
  112OSM     O311583   0.695   6.365  10.788 -0.4581  0.4123  0.0514
  112OSM    HO311584   0.667   6.444  10.835  1.1838  0.9159  0.2329
  112OSM    C4S11585   0.661   6.308  10.559 -0.3078  0.4476  0.4149
  112OSM    H4S11586   0.715   6.392  10.512 -1.5795  1.3009  0.4437
  112OSM    C5S11587   0.671   6.193  10.490  0.2423  0.3617  0.1731
  112OSM    H5S11588   0.636   6.096  10.529  1.1173  0.4011  1.0981
  112OSM    C6S11589   0.737   6.190  10.349 -0.4165 -0.2673  0.2350
  112OSM    H6S11590   0.723   6.088  10.308  1.6916 -0.9735  1.1435
  112OSM    H6T11591   0.847   6.199  10.355 -0.3458 -1.5167  4.6415
  112OSM    C7S11592   0.674   6.287  10.255  0.1746  0.0875  0.7579
  112OSM    H7S11593   0.703   6.393  10.272 -0.5596  0.8375 -2.0326
  112OSM    H7T11594   0.564   6.277  10.263  0.0828  0.9994  0.7651
  112OSM    C8S11595   0.707   6.258  10.106  0.4597 -0.7628  0.7204
  112OSM    H8S11596   0.685   6.151  10.091  0.2380 -0.3597 -2.4294
  112OSM    H8T11597   0.814   6.285  10.093 -0.0929  2.4393  1.9255
  112OSM    C9S11598   0.617   6.341  10.014  0.5878  0.2170  0.2553
  112OSM    H9S11599   0.622   6.450  10.032 -0.1318  0.0692  1.4328
  112OSM    H9T11600   0.512   6.312  10.030 -0.4895  2.6622 -1.7125
  112OSM   C10S11601   0.651   6.327   9.865 -0.3417  0.4130 -0.3717
  112OSM   H10S11602   0.669   6.223   9.830  2.7942  0.0004  2.0235
  112OSM   H10T11603   0.744   6.381   9.839  0.0493 -0.0681  0.0137
  112OSM   C11S11604   0.540   6.380   9.772 -0.0806 -0.3591  0.7684
  112OSM   H11S11605   0.521   6.486   9.799 -0.9683 -0.6603  1.3750
  112OSM   H11T11606   0.447   6.322   9.787 -0.7087 -0.2980 -2.2484
  112OSM   C12S11607   0.574   6.381   9.621 -0.1224 -0.1739  0.5328
  112OSM   H12S11608   0.669   6.436   9.599 -0.5168  0.8478  1.2645
  112OSM   H12T11609   0.498   6.440   9.566  0.3345  0.7361  0.8411
  112OSM   C13S11610   0.574   6.237   9.563  0.0249 -0.3578  0.7627
  112OSM   H13S11611   0.497   6.170   9.606 -1.0733 -0.2101 -0.9233
  112OSM   H13T11612   0.672   6.197   9.598 -0.0696  0.0686  1.5408
  112OSM   C14S11613   0.559   6.231   9.405 -0.0429 -0.8259  0.6676
  112OSM   H14S11614   0.630   6.305   9.364 -2.2772  1.3867  0.5680
  112OSM   H14T11615   0.459   6.273   9.381 -0.1841 -0.4745  1.8057
  112OSM   C15S11616   0.583   6.096   9.347 -0.3033 -0.1686  0.2036
  112OSM   H15S11617   0.510   6.022   9.387  0.7795 -1.9585 -1.0043
  112OSM   H15T11618   0.680   6.065   9.391  0.3460  0.5812 -0.6642
  112OSM   C16S11619   0.570   6.096   9.198  0.1871 -0.1473 -0.5532
  112OSM   H16S11620   0.635   6.178   9.161  1.2940 -0.5244  0.4703
  112OSM   H16T11621   0.465   6.118   9.170 -0.5257 -0.5640  1.5799
  112OSM   C17S11622   0.623   5.972   9.132 -0.1608  0.1677 -0.4888
  112OSM   H17S11623   0.566   5.895   9.189 -2.4488  2.3180  0.3175
  112OSM   H17T11624   0.731   5.962   9.156 -0.1723  0.6223 -0.2416
  112OSM   C18S11625   0.610   5.957   8.986  0.8839  0.0084 -0.7131
  112OSM   H18S11626   0.647   5.861   8.946 -0.1496 -1.0905  0.8530
  112OSM   H18T11627   0.662   6.040   8.933 -0.1292 -1.2382 -3.8510
  112OSM   H18U11628   0.506   5.980   8.953  0.5920  3.1391  1.8501
  112OSM    C1F11629   0.327   6.546  10.529  0.2228  0.4508  0.2762
  112OSM     OF11630   0.335   6.657  10.574  0.7248 -0.5695  0.4820
  112OSM    C2F11631   0.225   6.509  10.426  0.7174  0.3854 -0.6066
  112OSM    H2F11632   0.147   6.439  10.463  0.9504 -0.8953 -2.3925
  112OSM    H2G11633   0.281   6.456  10.347 -0.5918  1.7181 -2.5274
  112OSM    C3F11634   0.149   6.625  10.367 -0.2372 -0.0721  0.0593
  112OSM    H3F11635   0.223   6.698  10.328  0.8265 -2.3663 -2.5960
  112OSM    H3G11636   0.091   6.677  10.445 -0.0043 -0.9430  0.8272
  112OSM    C4F11637   0.064   6.588  10.245 -0.4057 -0.6819  0.3699
  112OSM    H4F11638   0.007   6.680  10.223  1.8909  0.8703  0.5743
  112OSM    H4G11639  -0.008   6.507  10.272  0.9756 -1.5993  1.4942
  112OSM    C5F11640   0.150   6.550  10.121 -0.1763  0.4226 -0.5992
  112OSM    H5F11641   0.193   6.448  10.108  0.4871  0.9356 -2.9935
  112OSM    H5G11642   0.236   6.618  10.104  0.0008 -0.2350 -2.6749
  112OSM    C6F11643   0.071   6.555   9.990  0.5079  0.0797  0.2234
  112OSM    H6F11644   0.028   6.657   9.977  0.1742 -0.2503 -1.6224
  112OSM    H6G11645  -0.025   6.500  10.002 -0.1629  1.0528 -0.3976
  112OSM    C7F11646   0.161   6.507   9.876  0.6645 -0.6258  0.6641
  112OSM    H7F11647   0.218   6.417   9.906 -0.2442 -1.6020 -0.4353
  112OSM    H7G11648   0.234   6.589   9.862 -0.9442  1.0936  1.8758
  112OSM    C8F11649   0.087   6.483   9.745  0.7906  0.1525  0.1708
  112OSM    H8F11650   0.035   6.574   9.708  0.6963 -0.7459 -2.0304
  112OSM    H8G11651   0.012   6.406   9.775  2.6199 -1.7161  0.2050
  112OSM    C9F11652   0.170   6.409   9.641  0.1915 -0.1652 -0.7890
  112OSM    H9F11653   0.207   6.308   9.663 -0.4983 -0.5874 -1.4791
  112OSM   C10F11654   0.198   6.452   9.520 -0.2718  0.1558 -0.0496
  112OSM   H10F11655   0.256   6.377   9.464 -2.0749 -2.2068  1.0379
  112OSM   C11F11656   0.156   6.578   9.444 -0.2376  0.1709  0.6300
  112OSM   H11F11657   0.217   6.669   9.463  1.5959 -1.0395  0.7708
  112OSM   H11G11658   0.053   6.612   9.466 -1.2640 -1.0771 -1.8356
  112OSM   C12F11659   0.154   6.553   9.296  0.2456 -0.2210 -0.4753
  112OSM   H12F11660   0.138   6.648   9.242 -1.2808 -0.1088  0.1372
  112OSM   H12G11661   0.070   6.487   9.266 -1.1193  1.7163 -1.0832
  112OSM   C13F11662   0.285   6.507   9.235 -0.0487 -0.3353 -0.2568
  112OSM   H13F11663   0.312   6.412   9.286 -0.8556  0.4056  1.6599
  112OSM   H13G11664   0.362   6.578   9.271  0.7416 -0.9578 -0.6956
  112OSM   C14F11665   0.283   6.504   9.081  0.2364 -0.9402  0.1923
  112OSM   H14F11666   0.215   6.581   9.040  1.8418  0.2599 -0.3089
  112OSM   H14G11667   0.218   6.416   9.064 -3.2388  0.3829  4.5129
  112OSM   C15F11668   0.421   6.495   9.014  0.1580  0.1962  0.9526
  112OSM   H15F11669   0.469   6.402   9.053 -0.6980  0.5735  3.0530
  112OSM   H15G11670   0.488   6.581   9.038  0.6329  0.4470 -1.1250
  112OSM   C16F11671   0.409   6.496   8.857 -0.2078  0.5150  0.4672
  112OSM   H16F11672   0.430   6.595   8.811 -0.6155  0.3415 -0.0995
  112OSM   H16G11673   0.299   6.486   8.846 -0.3848  0.5004  2.0329
  112OSM   C17F11674   0.481   6.380   8.782  0.0469 -0.6062  0.2305
  112OSM   H17F11675   0.463   6.277   8.821 -0.8210  0.2495  2.2227
  112OSM   H17G11676   0.591   6.394   8.787 -0.1018  1.8957 -1.7047
  112OSM   C18F11677   0.433   6.378   8.638 -1.0358  0.2976 -0.1591
  112OSM   H18F11678   0.436   6.276   8.594 -0.0482 -0.1033  0.7886
  112OSM   H18G11679   0.482   6.454   8.575  0.6627 -0.3939  0.2673
  112OSM   H18H11680   0.324   6.401   8.634 -1.3664 -1.0911  0.2055
  113OSM      N11681   0.876   6.770  11.045  0.5107  0.4269 -0.5544
  113OSM    C1511682   1.000   6.843  11.074  0.8139 -0.0238 -0.2303
  113OSM   H15A11683   0.998   6.940  11.027 -0.1159 -0.3494 -0.8902
  113OSM   H15B11684   1.088   6.792  11.039  2.2191  2.3454 -0.4057
  113OSM   H15C11685   1.005   6.853  11.182  0.7421 -0.1188 -0.2183
  113OSM    C1411686   0.755   6.846  11.086  0.5502 -0.3274 -0.8417
  113OSM   H14A11687   0.763   6.867  11.192  0.6748  2.7329 -1.3741
  113OSM   H14B11688   0.660   6.794  11.079 -0.6378  1.4375  0.9984
  113OSM   H14C11689   0.738   6.945  11.047 -0.6859  0.9694  2.5609
  113OSM    C1311690   0.867   6.759  10.892 -0.0590 -0.0900  0.2272
  113OSM   H13A11691   0.783   6.694  10.873  0.8759 -1.8139  1.6252
  113OSM   H13B11692   0.962   6.719  10.858 -0.4532  1.6327 -3.3815
  113OSM   H13C11693   0.856   6.853  10.840 -0.1528 -0.0745  0.2763
  113OSM    C1211694   0.876   6.631  11.106  0.2142  0.7574  0.8739
  113OSM   H12A11695   0.778   6.589  11.094  0.8559 -0.4308 -0.6345
  113OSM   H12B11696   0.894   6.634  11.212 -1.3700  0.4023  1.1769
  113OSM    C1111697   0.967   6.522  11.047  0.4907 -0.7672  0.2134
  113OSM   H11A11698   0.929   6.496  10.946  0.3795  3.6946 -1.1105
  113OSM   H11B11699   0.958   6.439  11.119  2.1145  1.6615  3.4859
  113OSM      P11700   1.221   6.481  11.081 -0.2279 -0.0144  0.0540
  113OSM    O1311701   1.299   6.535  11.191  0.3354  0.1702  0.9586
  113OSM    O1411702   1.173   6.343  11.102  0.2376  0.3751 -0.0644
  113OSM    O1111703   1.306   6.482  10.950  0.2208 -0.3515  0.4038
  113OSM    O1211704   1.099   6.572  11.046  0.3802  0.0341  0.4670
  113OSM    C1S11705   1.256   6.544  10.828  0.1947  0.0030  0.8096
  113OSM    H1S11706   1.245   6.654  10.835  1.7222  0.2691 -0.4359
  113OSM    H1T11707   1.154   6.503  10.812  0.0814  0.0088  1.4948
  113OSM     NF11708   1.322   6.594  10.584  0.7474 -0.3991  0.0275
  113OSM    HNF11709   1.290   6.546  10.503  1.1888 -2.2426  0.8889
  113OSM    C2S11710   1.343   6.512  10.698 -0.6257 -0.1474 -0.0715
  113OSM    H2S11711   1.449   6.525  10.726 -0.4340 -1.6439 -0.0295
  113OSM    C3S11712   1.326   6.360  10.667 -0.6326  0.5931 -0.1304
  113OSM    H3S11713   1.220   6.343  10.638 -0.5571  0.9695 -0.6371
  113OSM     O311714   1.357   6.267  10.772  1.7935  0.4363  0.3608
  113OSM    HO311715   1.364   6.321  10.851 -0.3070 -0.6905  1.4128
  113OSM    C4S11716   1.400   6.320  10.544 -0.3013  0.0551 -0.0209
  113OSM    H4S11717   1.342   6.318  10.450  2.0561 -2.3729 -1.5978
  113OSM    C5S11718   1.527   6.279  10.527 -0.3705 -0.5672 -0.6349
  113OSM    H5S11719   1.605   6.287  10.605 -2.2137  0.5302  1.2006
  113OSM    C6S11720   1.583   6.246  10.391 -0.4240  0.0507  0.4545
  113OSM    H6S11721   1.609   6.138  10.384 -0.1676  0.1622 -0.4386
  113OSM    H6T11722   1.676   6.307  10.387 -1.5138  1.6758 -1.9007
  113OSM    C7S11723   1.498   6.282  10.267 -0.0789  0.2465 -0.3594
  113OSM    H7S11724   1.466   6.388  10.266 -1.6908 -0.1524  1.8789
  113OSM    H7T11725   1.401   6.228  10.273 -0.9737  1.8907  0.8624
  113OSM    C8S11726   1.584   6.257  10.134 -0.2197 -0.2509 -0.4587
  113OSM    H8S11727   1.643   6.163  10.142  3.4272  1.8321 -1.1041
  113OSM    H8T11728   1.650   6.346  10.132  1.7635 -1.6546 -0.4809
  113OSM    C9S11729   1.494   6.253  10.018  0.1423  0.2942 -0.2368
  113OSM    H9S11730   1.430   6.343  10.006 -0.5127 -0.0634  0.4671
  113OSM    H9T11731   1.434   6.159  10.015  1.1424 -0.3537 -0.4750
  113OSM   C10S11732   1.568   6.256   9.889 -0.9903 -0.2715  0.9747
  113OSM   H10S11733   1.608   6.155   9.865  1.8443  0.9501  0.0747
  113OSM   H10T11734   1.662   6.315   9.892 -1.3808  0.3426  1.4210
  113OSM   C11S11735   1.481   6.303   9.776  0.3795 -0.0495 -0.5169
  113OSM   H11S11736   1.443   6.407   9.779 -1.3843 -0.6371 -1.4461
  113OSM   H11T11737   1.392   6.237   9.769 -0.8658  1.6295 -1.1401
  113OSM   C12S11738   1.560   6.290   9.640  0.4122 -0.4842 -0.8974
  113OSM   H12S11739   1.486   6.319   9.563  1.2386 -0.8162 -1.8351
  113OSM   H12T11740   1.586   6.183   9.623  1.2951 -0.2262 -1.2170
  113OSM   C13S11741   1.678   6.385   9.627  0.7640 -0.1837 -0.5190
  113OSM   H13S11742   1.749   6.356   9.708  1.5577  3.9343  0.5054
  113OSM   H13T11743   1.638   6.484   9.660  1.0765 -0.0646 -0.4926
  113OSM   C14S11744   1.727   6.424   9.485 -0.1970 -0.0800  0.8275
  113OSM   H14S11745   1.808   6.500   9.492  0.7209 -0.8535 -0.8650
  113OSM   H14T11746   1.640   6.460   9.426  0.9498  0.4936 -0.5742
  113OSM   C15S11747   1.779   6.307   9.398 -0.8492  1.0181 -0.1483
  113OSM   H15S11748   1.690   6.289   9.333 -0.2911 -0.5136 -0.5352
  113OSM   H15T11749   1.791   6.216   9.460  2.8324  1.1142 -0.5250
  113OSM   C16S11750   1.902   6.340   9.309  0.3440  0.0452  0.2252
  113OSM   H16S11751   1.993   6.351   9.372 -0.2740 -1.6685  1.5177
  113OSM   H16T11752   1.878   6.433   9.255  1.0175  0.4683  0.6376
  113OSM   C17S11753   1.923   6.210   9.221 -0.2979  0.2621 -0.4985
  113OSM   H17S11754   1.821   6.167   9.207 -0.8329  1.5662 -0.7195
  113OSM   H17T11755   1.985   6.133   9.271 -1.6669  0.5234  1.7267
  113OSM   C18S11756   1.978   6.250   9.088 -0.5692  0.2173  0.1977
  113OSM   H18S11757   1.979   6.160   9.023 -0.7050  0.5987 -0.3393
  113OSM   H18T11758   2.087   6.266   9.102 -0.0900 -0.5161 -2.1963
  113OSM   H18U11759   1.923   6.336   9.044  0.7167  0.7088 -0.5108
  113OSM    C1F11760   1.333   6.726  10.569 -0.2229 -1.0354  0.0933
  113OSM     OF11761   1.337   6.813  10.657 -0.3599 -0.4579 -0.0141
  113OSM    C2F11762   1.332   6.769  10.422  0.0693 -0.0380  0.2854
  113OSM    H2F11763   1.233   6.815  10.402 -0.9171 -1.3985  1.8044
  113OSM    H2G11764   1.332   6.677  10.360  1.9298  0.2428 -0.2111
  113OSM    C3F11765   1.444   6.875  10.391 -0.1277  0.2746  0.1767
  113OSM    H3F11766   1.547   6.850  10.423  0.5633  1.3492 -1.1245
  113OSM    H3G11767   1.408   6.959  10.454 -0.6137 -0.6811  1.2327
  113OSM    C4F11768   1.449   6.916  10.245  0.3913  0.1339 -0.5574
  113OSM    H4F11769   1.497   6.830  10.193  0.0417 -1.1713  1.1953
  113OSM    H4G11770   1.522   6.999  10.234  0.7570 -0.2255 -0.8742
  113OSM    C5F11771   1.313   6.950  10.181 -0.0136  0.2015  0.0469
  113OSM    H5F11772   1.252   7.010  10.251  0.5008 -0.4734  1.0974
  113OSM    H5G11773   1.252   6.858  10.172 -0.1863  0.3703 -0.5498
  113OSM    C6F11774   1.300   7.024  10.049 -0.1007 -0.1544  0.1118
  113OSM    H6F11775   1.324   7.132  10.057  2.1453 -0.4472 -1.6429
  113OSM    H6G11776   1.197   7.018  10.006  0.1714 -0.2893 -0.5343
  113OSM    C7F11777   1.405   6.979   9.947 -0.5956  0.1933  0.3476
  113OSM    H7F11778   1.396   6.870   9.929  2.5921  0.2183 -2.3196
  113OSM    H7G11779   1.506   6.996   9.991 -0.5523 -0.3319  0.4547
  113OSM    C8F11780   1.386   7.050   9.809  0.1123 -0.0152 -0.1687
  113OSM    H8F11781   1.490   7.060   9.770  0.5899  1.4290  1.3425
  113OSM    H8G11782   1.363   7.158   9.824 -0.4326 -0.3513  1.7836
  113OSM    C9F11783   1.279   6.989   9.719 -0.2935  0.7005  0.6480
  113OSM    H9F11784   1.205   6.925   9.770  0.7200 -0.8363  0.2645
  113OSM   C10F11785   1.289   6.978   9.584 -0.1345 -0.0563  0.1062
  113OSM   H10F11786   1.206   6.936   9.527 -0.2995  0.1754  0.1739
  113OSM   C11F11787   1.397   7.035   9.498  0.0202  0.6337  0.7256
  113OSM   H11F11788   1.415   7.133   9.548  3.1723  1.7927 -2.2702
  113OSM   H11G11789   1.360   7.071   9.400  1.1179  3.2778  1.1921
  113OSM   C12F11790   1.528   6.965   9.451 -0.5773  0.6275  0.3427
  113OSM   H12F11791   1.587   6.953   9.545  1.2527 -1.0713 -0.9469
  113OSM   H12G11792   1.594   7.025   9.385 -0.8248  0.9720  0.4056
  113OSM   C13F11793   1.506   6.828   9.385 -0.7810  0.0464  0.3850
  113OSM   H13F11794   1.439   6.767   9.449  1.7783 -1.6053  1.6645
  113OSM   H13G11795   1.607   6.786   9.368  0.1523  3.1704 -2.9455
  113OSM   C14F11796   1.444   6.848   9.250 -0.0014 -0.5594 -0.5028
  113OSM   H14F11797   1.516   6.893   9.178 -1.0912 -1.9458 -2.5512
  113OSM   H14G11798   1.350   6.905   9.267  0.4127  0.1892 -0.6439
  113OSM   C15F11799   1.409   6.708   9.190  0.5750 -0.0958 -0.2342
  113OSM   H15F11800   1.351   6.738   9.101 -0.2120  1.3145  0.7202
  113OSM   H15G11801   1.359   6.656   9.275 -0.7544  1.1691 -0.2189
  113OSM   C16F11802   1.541   6.632   9.149 -0.1245  0.2757  0.5854
  113OSM   H16F11803   1.610   6.642   9.235  0.2928  1.7300  0.1252
  113OSM   H16G11804   1.581   6.688   9.061 -0.5383 -2.1737 -1.2896
  113OSM   C17F11805   1.520   6.481   9.099  0.5316  0.1934 -0.3111
  113OSM   H17F11806   1.620   6.432   9.098  0.2781 -0.3292 -0.5817
  113OSM   H17G11807   1.477   6.468   8.997  3.0827 -2.3461 -1.1980
  113OSM   C18F11808   1.418   6.395   9.184 -0.0321 -0.5704 -0.6666
  113OSM   H18F11809   1.427   6.409   9.294  0.8582  3.6738 -1.0756
  113OSM   H18G11810   1.413   6.290   9.150 -1.0031 -0.5045 -0.7486
  113OSM   H18H11811   1.319   6.442   9.166  0.0690 -0.3060 -0.5416
  114OSM      N11812   1.636   6.066  11.656  0.0738  0.0306  0.2261
  114OSM    C1511813   1.578   5.931  11.695 -0.1859  0.3932  0.3068
  114OSM   H15A11814   1.483   5.909  11.650  0.5646  0.8176 -1.5924
  114OSM   H15B11815   1.559   5.937  11.801  1.2063  1.7660  0.5155
  114OSM   H15C11816   1.647   5.848  11.694  0.6416  1.0645 -0.1200
  114OSM    C1411817   1.529   6.170  11.682  0.0283  0.2296  0.0600
  114OSM   H14A11818   1.476   6.152  11.774 -0.0720 -0.7799 -0.1894
  114OSM   H14B11819   1.451   6.167  11.607 -1.1092  1.5176  1.1390
  114OSM   H14C11820   1.570   6.270  11.678  1.0153 -0.2008 -1.3765
  114OSM    C1311821   1.746   6.097  11.749 -0.2319  1.0327 -0.5042
  114OSM   H13A11822   1.782   6.198  11.737  2.0669  0.5800  1.6834
  114OSM   H13B11823   1.835   6.035  11.747  0.4545  1.9783 -0.0868
  114OSM   H13C11824   1.715   6.082  11.852 -0.4894 -0.1963 -0.7434
  114OSM    C1211825   1.685   6.074  11.509  0.2252  0.0874  0.7230
  114OSM   H12A11826   1.608   6.047  11.437  1.8815  0.8032 -1.4178
  114OSM   H12B11827   1.759   5.996  11.495 -0.2734 -0.3487  0.4464
  114OSM    C1111828   1.749   6.199  11.451  0.1291 -0.0504 -0.2675
  114OSM   H11A11829   1.681   6.284  11.472 -0.2766 -0.6375  0.9256
  114OSM   H11B11830   1.750   6.178  11.342  0.9036 -2.6058  0.1665
  114OSM      P11831   1.948   6.359  11.499  0.2992  0.0670  0.0146
  114OSM    O1311832   1.861   6.446  11.580  0.3450  0.5072 -0.9511
  114OSM    O1411833   2.088   6.343  11.550  0.3016  0.2051 -0.3690
  114OSM    O1111834   1.963   6.415  11.348 -0.2123 -0.0877 -0.2861
  114OSM    O1211835   1.876   6.221  11.501 -0.4429 -0.3900  0.2236
  114OSM    C1S11836   2.038   6.338  11.253 -0.6167 -0.3756  0.2640
  114OSM    H1S11837   2.007   6.233  11.270 -1.7154  0.2999  2.8989
  114OSM    H1T11838   2.147   6.357  11.262 -0.4051 -1.4017 -0.0406
  114OSM     NF11839   2.048   6.281  11.021  0.0934  0.0189 -0.3410
  114OSM    HNF11840   2.131   6.299  10.970  2.6654 -0.5848  3.2472
  114OSM    C2S11841   1.996   6.379  11.109 -0.6421  0.9543  0.4692
  114OSM    H2S11842   1.885   6.377  11.110 -0.6351  0.4277  0.3636
  114OSM    C3S11843   2.027   6.520  11.061  0.6757 -0.4598 -0.2976
  114OSM    H3S11844   2.132   6.533  11.027  0.5069  0.3268 -0.5289
  114OSM     O311845   1.998   6.618  11.161 -0.0234  0.1946  0.0721
  114OSM    HO311846   1.981   6.574  11.245 -0.4499  3.3098  1.7459
  114OSM    C4S11847   1.942   6.546  10.936  0.4721  0.2225 -0.0475
  114OSM    H4S11848   1.996   6.516  10.846  1.2029  0.7083  0.2182
  114OSM    C5S11849   1.828   6.615  10.917  0.2363  0.1517 -0.3668
  114OSM    H5S11850   1.773   6.653  11.004  0.0147 -0.4447 -0.2420
  114OSM    C6S11851   1.755   6.643  10.787 -0.6863  0.6347  0.6025
  114OSM    H6S11852   1.742   6.753  10.785 -1.2717  0.5657 -2.1761
  114OSM    H6T11853   1.654   6.597  10.792  0.6033 -2.5190  0.1974
  114OSM    C7S11854   1.825   6.601  10.653  0.4918  0.4120  0.2600
  114OSM    H7S11855   1.833   6.490  10.643  2.7610  0.5760 -0.2595
  114OSM    H7T11856   1.926   6.642  10.637  0.5536 -0.3526 -1.5835
  114OSM    C8S11857   1.753   6.650  10.531 -0.1474  0.3716 -0.0915
  114OSM    H8S11858   1.745   6.761  10.541  1.8936  0.5941 -0.6059
  114OSM    H8T11859   1.652   6.605  10.533  0.1062 -0.3414 -1.6212
  114OSM    C9S11860   1.825   6.616  10.404 -0.2296  0.0740 -0.6374
  114OSM    H9S11861   1.847   6.507  10.413 -2.0445 -0.4788 -2.2589
  114OSM    H9T11862   1.925   6.665  10.395 -0.8039  1.9194  1.7043
  114OSM   C10S11863   1.740   6.654  10.284 -0.2552  0.0444 -0.1680
  114OSM   H10S11864   1.708   6.760  10.275 -1.1112 -0.0037  1.7576
  114OSM   H10T11865   1.649   6.598  10.314  0.3785  0.5536  3.0660
  114OSM   C11S11866   1.802   6.618  10.148  0.0333 -0.5830  0.2128
  114OSM   H11S11867   1.838   6.513  10.140 -0.8685 -0.7593 -2.6587
  114OSM   H11T11868   1.895   6.679  10.135 -1.2621  1.0227 -2.3354
  114OSM   C12S11869   1.708   6.661  10.029  0.3161 -0.3062 -0.1033
  114OSM   H12S11870   1.654   6.754  10.058  1.3857  0.3024 -0.0058
  114OSM   H12T11871   1.631   6.585  10.005 -0.2810  0.2821 -0.0867
  114OSM   C13S11872   1.777   6.708   9.896  0.1265 -0.2385 -0.5962
  114OSM   H13S11873   1.823   6.808   9.912 -0.8231 -0.1209  1.9380
  114OSM   H13T11874   1.705   6.710   9.811  1.1098 -0.9207 -1.4770
  114OSM   C14S11875   1.897   6.621   9.854  0.0059  0.4307  0.2950
  114OSM   H14S11876   1.869   6.514   9.846  0.4844  0.4269 -2.8852
  114OSM   H14T11877   1.978   6.627   9.929  0.1606  1.7280  0.0469
  114OSM   C15S11878   1.947   6.659   9.713 -0.1851 -0.5571 -0.3528
  114OSM   H15S11879   1.988   6.761   9.721 -3.1252  0.7573 -0.7989
  114OSM   H15T11880   1.861   6.664   9.643  0.5643  2.3472 -1.1642
  114OSM   C16S11881   2.047   6.557   9.659  0.2440  0.9306 -0.8113
  114OSM   H16S11882   1.995   6.460   9.652  0.8885  0.2285  2.3546
  114OSM   H16T11883   2.133   6.555   9.730 -0.2226  1.3725 -0.2182
  114OSM   C17S11884   2.099   6.578   9.516  0.0188 -0.3180  0.0673
  114OSM   H17S11885   2.138   6.681   9.502 -1.0181  0.2241  0.9712
  114OSM   H17T11886   2.015   6.573   9.444 -0.5799  0.2828  0.7041
  114OSM   C18S11887   2.206   6.477   9.499  0.3163  0.1936  0.2328
  114OSM   H18S11888   2.175   6.372   9.518  1.4711  0.1731  2.3725
  114OSM   H18T11889   2.284   6.504   9.573 -0.4407  0.5256  0.9234
  114OSM   H18U11890   2.245   6.485   9.395 -1.3098  2.6263 -0.2556
  114OSM    C1F11891   1.997   6.155  11.025 -0.5200 -0.2169 -0.5233
  114OSM     OF11892   1.895   6.127  11.086  0.1677 -0.7308 -0.0950
  114OSM    C2F11893   2.080   6.054  10.956  0.6669  0.3305  0.3739
  114OSM    H2F11894   2.114   5.988  11.039 -1.7693  1.9582  2.8862
  114OSM    H2G11895   2.158   6.100  10.892  0.8903  0.7759  0.9519
  114OSM    C3F11896   1.997   5.962  10.859 -0.4383  0.1630 -0.1383
  114OSM    H3F11897   1.912   5.907  10.905 -0.8074 -1.2741 -2.4229
  114OSM    H3G11898   2.062   5.881  10.820  1.0579  1.5398 -0.6205
  114OSM    C4F11899   1.938   6.035  10.740 -0.5308 -0.5212 -0.4769
  114OSM    H4F11900   1.849   6.088  10.782 -0.9420  0.4280 -2.4496
  114OSM    H4G11901   1.882   5.965  10.675 -1.5837  1.0051 -1.2957
  114OSM    C5F11902   2.033   6.142  10.670  0.3072  0.0915 -0.0130
  114OSM    H5F11903   2.133   6.095  10.658 -0.0826 -0.5694 -0.7984
  114OSM    H5G11904   2.061   6.230  10.731  3.0369 -1.0711  0.5874
  114OSM    C6F11905   1.963   6.184  10.542  0.3109 -0.0485 -0.4392
  114OSM    H6F11906   1.862   6.223  10.564  0.6201  2.0459 -2.2905
  114OSM    H6G11907   1.954   6.094  10.478  2.3549 -1.0734  0.6000
  114OSM    C7F11908   2.054   6.291  10.463  0.0128  0.0774  0.2908
  114OSM    H7F11909   2.160   6.259  10.476 -0.1762 -0.7058 -0.0050
  114OSM    H7G11910   2.044   6.395  10.501 -1.1159  0.2959 -0.5456
  114OSM    C8F11911   2.012   6.295  10.314 -0.7830  0.9246 -0.0642
  114OSM    H8F11912   2.058   6.387  10.271  2.4693  0.0759  1.3062
  114OSM    H8G11913   1.901   6.292  10.312 -0.8043  1.6846 -0.2980
  114OSM    C9F11914   2.057   6.171  10.245  0.1276 -0.4224 -0.0579
  114OSM    H9F11915   2.118   6.098  10.301 -1.1752 -0.7568  0.9833
  114OSM   C10F11916   2.047   6.147  10.115  0.5036 -0.3923 -0.8370
  114OSM   H10F11917   2.079   6.051  10.072 -0.6461 -0.4329 -1.6506
  114OSM   C11F11918   1.983   6.242  10.016 -0.3457  0.6973  0.2614
  114OSM   H11F11919   2.011   6.349  10.029  0.6575  0.3148  1.4593
  114OSM   H11G11920   1.872   6.236  10.017 -0.3313 -0.7521 -1.7973
  114OSM   C12F11921   2.027   6.206   9.870 -0.0297 -0.2315 -0.2488
  114OSM   H12F11922   2.138   6.195   9.867  0.3626  2.7805 -0.1972
  114OSM   H12G11923   2.004   6.296   9.810  3.4020  1.3212  0.5122
  114OSM   C13F11924   1.959   6.077   9.819 -0.1439  0.1688  0.4879
  114OSM   H13F11925   1.849   6.095   9.817 -0.4735 -1.6710 -0.6165
  114OSM   H13G11926   1.967   5.995   9.893  0.7068  0.4744  0.7468
  114OSM   C14F11927   1.994   6.046   9.673 -0.0440  0.4827  1.0297
  114OSM   H14F11928   2.100   6.015   9.673 -0.1412  0.0225 -0.7854
  114OSM   H14G11929   2.002   6.144   9.620 -0.3331 -0.0380 -0.0005
  114OSM   C15F11930   1.898   5.956   9.606 -0.8214 -0.4855 -0.1425
  114OSM   H15F11931   1.796   5.998   9.592 -0.6910 -0.0983  0.0737
  114OSM   H15G11932   1.896   5.870   9.677 -0.2789  0.6210  1.2506
  114OSM   C16F11933   1.952   5.913   9.470 -0.4334  0.7456  0.4994
  114OSM   H16F11934   2.041   5.852   9.496 -0.0084  1.6645  1.2603
  114OSM   H16G11935   1.998   5.993   9.408 -2.4749  1.8160  0.2776
  114OSM   C17F11936   1.856   5.820   9.402 -0.1579  0.7300  0.6034
  114OSM   H17F11937   1.775   5.885   9.363 -0.1101 -0.9863 -2.7319
  114OSM   H17G11938   1.817   5.736   9.465 -0.9623  0.1165 -0.6729
  114OSM   C18F11939   1.910   5.748   9.274 -0.4015 -0.2050 -0.7640
  114OSM   H18F11940   1.943   5.818   9.194  0.7787  0.5247  0.3087
  114OSM   H18G11941   1.826   5.698   9.222 -2.6293  1.2600  1.1954
  114OSM   H18H11942   1.998   5.684   9.297 -0.7550 -0.8268 -1.1401
  115OSM      N11943   4.368   2.217   6.123  0.1647  0.3061 -0.3943
  115OSM    C1511944   4.255   2.292   6.052  0.5603  0.3603 -0.5874
  115OSM   H15A11945   4.242   2.267   5.947  1.5136  0.3411 -0.7112
  115OSM   H15B11946   4.266   2.398   6.071 -0.1465  0.1600  1.0015
  115OSM   H15C11947   4.168   2.266   6.110  3.1054 -4.4907  1.5852
  115OSM    C1411948   4.319   2.078   6.140 -0.5274 -0.2558 -0.5604
  115OSM   H14A11949   4.320   2.024   6.046  0.9028  0.1314 -0.7992
  115OSM   H14B11950   4.220   2.069   6.182 -0.1001 -2.6180  0.0562
  115OSM   H14C11951   4.385   2.020   6.203  0.1908  1.3567  0.2504
  115OSM    C1311952   4.491   2.227   6.039 -0.5696 -0.5145 -0.5853
  115OSM   H13A11953   4.486   2.175   5.945  1.4898 -1.0290 -0.4638
  115OSM   H13B11954   4.567   2.169   6.091 -0.0687 -0.6378 -1.4446
  115OSM   H13C11955   4.523   2.330   6.034  2.6511 -1.4050 -0.9837
  115OSM    C1211956   4.392   2.275   6.259 -0.7592  0.5489  0.3898
  115OSM   H12A11957   4.294   2.278   6.304 -1.2122 -0.7955 -0.4588
  115OSM   H12B11958   4.437   2.373   6.247  0.7258  0.4194  3.7401
  115OSM    C1111959   4.493   2.196   6.343  0.0954  1.0096  0.1732
  115OSM   H11A11960   4.471   2.087   6.347  1.8399  0.6804  1.9475
  115OSM   H11B11961   4.475   2.217   6.450 -0.5215  0.8913  0.0976
  115OSM      P11962   4.714   2.346   6.351  0.3570 -0.2066  0.0929
  115OSM    O1311963   4.843   2.348   6.285 -0.5918 -0.0919  0.3321
  115OSM    O1411964   4.634   2.467   6.334 -0.4146 -0.2588 -0.3528
  115OSM    O1111965   4.741   2.332   6.511  0.2366  0.4121  0.1951
  115OSM    O1211966   4.636   2.211   6.311 -0.1844  0.3894  0.0863
  115OSM    C1S11967   4.789   2.204   6.547  0.6407  0.2427 -0.2839
  115OSM    H1S11968   4.891   2.191   6.504  1.0484  1.4719  0.2674
  115OSM    H1T11969   4.723   2.117   6.530  1.0350  0.0153 -0.6776
  115OSM     NF11970   4.855   2.048   6.731  0.3089  0.3899 -0.1028
  115OSM    HNF11971   4.781   1.993   6.769  0.4428 -0.2861 -0.7946
  115OSM    C2S11972   4.820   2.188   6.699  0.4461 -0.1028 -0.1170
  115OSM    H2S11973   4.904   2.258   6.718 -0.4717  0.8434  0.5626
  115OSM    C3S11974   4.701   2.239   6.786  0.1169 -0.1050  0.3262
  115OSM    H3S11975   4.603   2.189   6.772 -0.7970  0.8794  2.6778
  115OSM     O311976   4.679   2.383   6.777 -0.1638  0.7167  0.1499
  115OSM    HO311977   4.709   2.413   6.691 -4.2714  1.9104 -1.0807
  115OSM    C4S11978   4.725   2.206   6.936  0.1674  0.1318  0.7739
  115OSM    H4S11979   4.694   2.105   6.966  1.9545 -1.0898 -1.1840
  115OSM    C5S11980   4.766   2.283   7.039  0.8710 -0.8081 -0.2047
  115OSM    H5S11981   4.772   2.391   7.015  0.4081 -1.1320 -1.8673
  115OSM    C6S11982   4.770   2.250   7.185 -0.0509  0.9278 -0.4705
  115OSM    H6S11983   4.720   2.337   7.235 -0.9149  0.2590 -0.1467
  115OSM    H6T11984   4.872   2.243   7.227 -0.3870 -3.8692  0.0338
  115OSM    C7S11985   4.695   2.125   7.231 -0.2832 -0.5949 -0.0267
  115OSM    H7S11986   4.736   2.028   7.194 -0.0393 -0.4950 -0.0222
  115OSM    H7T11987   4.593   2.124   7.188  0.2092 -0.1212 -1.2370
  115OSM    C8S11988   4.681   2.122   7.381  0.4277  0.1493 -0.2796
  115OSM    H8S11989   4.618   2.203   7.424 -1.4631 -1.6539  0.5729
  115OSM    H8T11990   4.782   2.142   7.423  0.9289 -1.4112 -0.6704
  115OSM    C9S11991   4.622   1.990   7.434  0.3041  0.5175 -0.3217
  115OSM    H9S11992   4.589   1.994   7.541  0.0293 -0.0410 -0.3856
  115OSM    H9T11993   4.699   1.911   7.430 -1.8912 -2.2361  3.9371
  115OSM   C10S11994   4.496   1.937   7.366 -0.2561 -0.5416  0.3385
  115OSM   H10S11995   4.469   1.835   7.402  0.9302 -0.1552  2.5248
  115OSM   H10T11996   4.510   1.934   7.256 -2.6805  0.3465 -0.0496
  115OSM   C11S11997   4.370   2.030   7.391  0.6855 -0.1677  0.1517
  115OSM   H11S11998   4.284   1.999   7.327  1.2949  0.2740 -0.9143
  115OSM   H11T11999   4.387   2.133   7.353 -2.8992 -0.0622 -1.5785
  115OSM   C12S12000   4.327   2.039   7.542  0.1117  0.5475 -0.1587
  115OSM   H12S12001   4.254   2.121   7.561 -0.7979 -0.5427  1.3209
  115OSM   H12T12002   4.410   2.072   7.608  0.1367 -1.5288  0.9282
  115OSM   C13S12003   4.272   1.902   7.597 -0.1283 -0.0067 -0.2741
  115OSM   H13S12004   4.359   1.836   7.617 -0.4822 -0.3028  0.3087
  115OSM   H13T12005   4.210   1.851   7.520 -0.9763 -3.0635  2.2399
  115OSM   C14S12006   4.184   1.927   7.723 -0.5931 -0.2454  0.3939
  115OSM   H14S12007   4.127   1.837   7.756  0.1721 -0.2283  1.8718
  115OSM   H14T12008   4.107   2.006   7.709 -1.3637 -0.5974  2.2735
  115OSM   C15S12009   4.263   1.968   7.848  0.7299 -0.1224  0.2107
  115OSM   H15S12010   4.192   2.032   7.904 -0.0969  0.2026 -1.1479
  115OSM   H15T12011   4.349   2.031   7.816 -2.1526  3.1877 -1.7840
  115OSM   C16S12012   4.312   1.854   7.937  0.3261  0.3619 -0.0175
  115OSM   H16S12013   4.365   1.789   7.864 -0.3511  0.3259 -0.4985
  115OSM   H16T12014   4.225   1.799   7.980  0.5787 -1.0536 -1.2255
  115OSM   C17S12015   4.418   1.889   8.041  0.1871 -0.8003  0.2603
  115OSM   H17S12016   4.375   1.960   8.116 -0.8253  0.1796 -1.1849
  115OSM   H17T12017   4.505   1.943   8.000  1.2805 -3.0199 -0.4864
  115OSM   C18S12018   4.471   1.763   8.122  0.1329  0.1315  0.1386
  115OSM   H18S12019   4.518   1.797   8.217  0.5558  1.2798 -0.4688
  115OSM   H18T12020   4.554   1.717   8.063  2.5812  1.5203  2.2948
  115OSM   H18U12021   4.388   1.695   8.151 -1.6925  3.0261  2.2780
  115OSM    C1F12022   4.962   1.989   6.691  0.3861 -0.5167  0.2850
  115OSM     OF12023   5.043   2.047   6.626 -0.6972  0.1331  0.4208
  115OSM    C2F12024   4.981   1.840   6.712  0.8305 -0.0637  0.2447
  115OSM    H2F12025   5.035   1.807   6.621 -3.1488 -1.2503 -1.9461
  115OSM    H2G12026   4.878   1.798   6.704  1.3024 -1.3356  0.6149
  115OSM    C3F12027   5.067   1.809   6.837  0.8296 -0.3054 -0.5593
  115OSM    H3F12028   5.170   1.814   6.796  0.1531 -0.3060 -2.3688
  115OSM    H3G12029   5.056   1.699   6.853  0.9143 -0.2463 -0.0930
  115OSM    C4F12030   5.036   1.886   6.960 -0.6024 -0.4829  0.1441
  115OSM    H4F12031   4.925   1.898   6.956 -0.6989 -1.6920 -1.5117
  115OSM    H4G12032   5.078   1.989   6.958 -1.8458  0.0304 -0.8394
  115OSM    C5F12033   5.096   1.810   7.084  0.0249 -0.2720 -0.1502
  115OSM    H5F12034   5.202   1.783   7.065 -0.0971 -1.4223  0.7376
  115OSM    H5G12035   5.034   1.718   7.084 -0.0274 -0.3663 -3.6208
  115OSM    C6F12036   5.082   1.884   7.220  0.3236 -0.0088  0.5617
  115OSM    H6F12037   4.984   1.937   7.219  0.3388  0.0363  1.4695
  115OSM    H6G12038   5.156   1.965   7.203  1.4561 -1.0634  0.3421
  115OSM    C7F12039   5.114   1.796   7.339  0.4254 -0.2541  0.3109
  115OSM    H7F12040   5.198   1.732   7.303 -0.3391 -0.0377 -2.0323
  115OSM    H7G12041   5.025   1.729   7.343 -0.3176  0.5684 -1.3591
  115OSM    C8F12042   5.132   1.872   7.471 -0.1763 -0.7338  0.0660
  115OSM    H8F12043   5.199   1.959   7.453  2.2705 -2.4356  0.3950
  115OSM    H8G12044   5.205   1.814   7.532  0.6305 -1.3768 -1.4465
  115OSM    C9F12045   5.008   1.901   7.542 -0.1066  0.4536 -0.1395
  115OSM    H9F12046   4.962   1.999   7.522 -1.4278 -0.0373  0.3504
  115OSM   C10F12047   4.929   1.811   7.610  0.1612 -0.2860 -0.3569
  115OSM   H10F12048   4.846   1.854   7.668  0.4509 -0.3710  0.1227
  115OSM   C11F12049   4.947   1.669   7.654  0.0848 -0.3718  0.0606
  115OSM   H11F12050   5.034   1.618   7.607 -0.2478 -0.8901 -0.0067
  115OSM   H11G12051   4.862   1.605   7.622  0.2957  0.3993 -2.2546
  115OSM   C12F12052   4.961   1.634   7.803  0.1585 -0.1152  0.9522
  115OSM   H12F12053   5.056   1.682   7.834 -0.1800  0.2318  1.4755
  115OSM   H12G12054   4.978   1.524   7.806  0.3600 -0.1383 -0.4224
  115OSM   C13F12055   4.844   1.684   7.894 -0.1461  0.3688 -0.1109
  115OSM   H13F12056   4.751   1.651   7.842 -0.2235 -2.4007  1.5642
  115OSM   H13G12057   4.848   1.795   7.899  0.5977  0.3904 -0.9693
  115OSM   C14F12058   4.846   1.643   8.039 -0.7312  0.5978 -1.2030
  115OSM   H14F12059   4.814   1.536   8.036 -0.7241  0.4983  0.7904
  115OSM   H14G12060   4.770   1.693   8.103  0.1937  1.1204 -0.4963
  115OSM   C15F12061   4.988   1.644   8.096  0.7207  0.3618  0.5119
  115OSM   H15F12062   5.036   1.743   8.080  0.8748  0.1545 -0.3596
  115OSM   H15G12063   5.057   1.577   8.041 -2.2406 -1.7399 -0.8889
  115OSM   C16F12064   5.002   1.616   8.247  0.4337 -0.7406 -0.7793
  115OSM   H16F12065   5.106   1.586   8.273 -0.1603 -1.0540  1.4290
  115OSM   H16G12066   4.929   1.534   8.266 -0.6357  0.3304 -0.0899
  115OSM   C17F12067   4.944   1.733   8.333 -0.0650 -0.1167  0.5216
  115OSM   H17F12068   4.838   1.753   8.307  0.2490  0.1465 -0.5799
  115OSM   H17G12069   4.999   1.820   8.292 -0.4697  0.1857  0.6046
  115OSM   C18F12070   4.981   1.714   8.482  0.0036  0.1951 -0.0490
  115OSM   H18F12071   5.092   1.707   8.488 -0.0020 -1.1711 -1.1782
  115OSM   H18G12072   4.928   1.622   8.516  0.2537  0.1784  0.3021
  115OSM   H18H12073   4.940   1.799   8.541  0.3640 -0.7496  1.6369
  116OSM      N12074   2.294   0.690   6.718 -0.2536  0.4856  0.3801
  116OSM    C1512075   2.187   0.776   6.648 -0.3873 -0.1730 -0.6151
  116OSM   H15A12076   2.209   0.778   6.543  3.0998  2.2533 -0.0202
  116OSM   H15B12077   2.187   0.873   6.694  1.2650  0.4092 -1.7461
  116OSM   H15C12078   2.091   0.729   6.663 -0.9456  1.3349  0.9437
  116OSM    C1412079   2.430   0.735   6.677  0.0110  0.0091  0.6024
  116OSM   H14A12080   2.458   0.833   6.714 -0.8044  0.2622  0.5623
  116OSM   H14B12081   2.430   0.724   6.569 -2.1977  2.6628  0.2285
  116OSM   H14C12082   2.508   0.673   6.719  1.6231  1.7119  0.2815
  116OSM    C1312083   2.289   0.706   6.861 -0.9625  0.1047  0.3257
  116OSM   H13A12084   2.382   0.667   6.899  1.8709  1.0502 -4.7683
  116OSM   H13B12085   2.208   0.652   6.908 -0.4305  0.5764  1.8467
  116OSM   H13C12086   2.281   0.809   6.892 -4.2592 -1.0841  4.4005
  116OSM    C1212087   2.283   0.540   6.676 -0.0453  0.1445  0.1850
  116OSM   H12A12088   2.281   0.527   6.569 -0.7695 -2.5500  0.4651
  116OSM   H12B12089   2.187   0.502   6.709 -0.1583  1.4155  1.4599
  116OSM    C1112090   2.388   0.451   6.734 -0.2320 -0.1450  0.8326
  116OSM   H11A12091   2.340   0.353   6.716  0.2004 -0.2386  0.1640
  116OSM   H11B12092   2.396   0.474   6.843  0.9007  2.4251  0.2821
  116OSM      P12093   2.550   0.395   6.533  0.5651 -0.5848  0.1288
  116OSM    O1312094   2.427   0.371   6.458  0.2975 -0.0143  0.0660
  116OSM    O1412095   2.651   0.475   6.470 -0.2257  0.1532 -0.0500
  116OSM    O1112096   2.618   0.262   6.579 -0.2467 -0.9380 -0.1619
  116OSM    O1212097   2.519   0.471   6.667 -0.1962 -0.0486 -0.7611
  116OSM    C1S12098   2.717   0.270   6.682 -0.0711  0.2027  0.0140
  116OSM    H1S12099   2.769   0.367   6.701  0.9331 -0.2689 -0.2863
  116OSM    H1T12100   2.809   0.219   6.649  0.3714  2.1320 -2.0151
  116OSM     NF12101   2.772   0.206   6.903  0.4006  1.2547  0.3035
  116OSM    HNF12102   2.808   0.115   6.922  1.5128  1.3028 -1.3073
  116OSM    C2S12103   2.659   0.210   6.812  0.3150  0.4165 -0.1863
  116OSM    H2S12104   2.592   0.286   6.857  1.2417  1.1019  0.0697
  116OSM    C3S12105   2.598   0.068   6.787 -0.3961  0.2138 -0.3552
  116OSM    H3S12106   2.679   0.006   6.743 -0.2878 -1.1212  1.6180
  116OSM     O312107   2.491   0.068   6.691 -0.2141  0.4201 -0.1845
  116OSM    HO312108   2.512   0.134   6.625  0.7486  0.9518  0.6371
  116OSM    C4S12109   2.568  -0.005   6.912 -0.2175  0.1718 -0.0473
  116OSM    H4S12110   2.625  -0.096   6.937  1.0204  1.1076  0.6379
  116OSM    C5S12111   2.462   0.030   6.986 -0.3205  0.4128 -0.1813
  116OSM    H5S12112   2.416   0.127   6.963 -1.1660  0.1398  0.3219
  116OSM    C6S12113   2.431  -0.042   7.118  0.0261 -0.6394 -0.8283
  116OSM    H6S12114   2.516  -0.112   7.134 -0.6938 -1.4552 -0.5155
  116OSM    H6T12115   2.343  -0.104   7.092  0.0227 -0.5036 -1.1545
  116OSM    C7S12116   2.410   0.057   7.244 -0.1890 -0.5386 -0.1386
  116OSM    H7S12117   2.328   0.129   7.223 -0.0370 -0.1755  0.5006
  116OSM    H7T12118   2.509   0.105   7.260 -1.0636  0.9196  1.2760
  116OSM    C8S12119   2.380  -0.012   7.379 -0.6681  0.3776 -0.2021
  116OSM    H8S12120   2.440  -0.105   7.388 -1.4323 -0.2280 -1.1455
  116OSM    H8T12121   2.276  -0.050   7.376 -0.6283 -0.0752  2.5177
  116OSM    C9S12122   2.411   0.066   7.503 -0.0007  0.2470 -0.1929
  116OSM    H9S12123   2.359   0.164   7.498 -1.1335 -0.3089  0.2868
  116OSM    H9T12124   2.520   0.067   7.520  0.0804 -1.8560 -0.2684
  116OSM   C10S12125   2.345  -0.007   7.624  0.2119  0.3297  0.0817
  116OSM   H10S12126   2.370  -0.115   7.630  1.7324  0.3297 -3.4716
  116OSM   H10T12127   2.235  -0.003   7.609  0.1457 -2.9125 -1.0999
  116OSM   C11S12128   2.394   0.062   7.754  0.6481 -0.8418  0.4091
  116OSM   H11S12129   2.391   0.168   7.723  0.0762 -1.0184 -0.1743
  116OSM   H11T12130   2.496   0.033   7.787  1.6590 -0.3856 -2.0950
  116OSM   C12S12131   2.288   0.045   7.866  0.2247  0.7992 -0.1343
  116OSM   H12S12132   2.190   0.045   7.813 -0.4434  0.8117  1.0609
  116OSM   H12T12133   2.292   0.114   7.953  1.0414 -0.6527  1.0268
  116OSM   C13S12134   2.308  -0.091   7.939 -0.7300  0.0373  0.0722
  116OSM   H13S12135   2.411  -0.115   7.975  0.1201  0.9483 -1.6199
  116OSM   H13T12136   2.286  -0.169   7.862 -0.1953 -0.1290  0.0847
  116OSM   C14S12137   2.223  -0.096   8.065  0.0180  0.0304  0.4899
  116OSM   H14S12138   2.200  -0.202   8.087  2.3926 -0.9216 -1.1823
  116OSM   H14T12139   2.131  -0.041   8.038  0.4155  0.0974 -0.8106
  116OSM   C15S12140   2.298  -0.042   8.182  0.0541  0.5819 -0.3048
  116OSM   H15S12141   2.330   0.062   8.162 -0.6247  1.0642  1.0210
  116OSM   H15T12142   2.389  -0.104   8.198  0.7156  1.4208 -0.7853
  116OSM   C16S12143   2.221  -0.056   8.308  0.5557  0.5434  0.0044
  116OSM   H16S12144   2.196  -0.163   8.318  2.6254  0.0250  0.0961
  116OSM   H16T12145   2.128   0.005   8.313 -0.8436 -1.1065 -3.1137
  116OSM   C17S12146   2.298  -0.030   8.441 -0.1509  0.1369 -0.4340
  116OSM   H17S12147   2.319   0.078   8.449 -1.2224  0.3330 -0.0612
  116OSM   H17T12148   2.391  -0.086   8.417 -0.2154  0.0091 -0.3898
  116OSM   C18S12149   2.223  -0.070   8.567 -0.4164  0.3925  0.1371
  116OSM   H18S12150   2.274  -0.055   8.665  2.3226 -0.6574 -1.0330
  116OSM   H18T12151   2.197  -0.178   8.574  0.0665  0.3458  1.5970
  116OSM   H18U12152   2.135  -0.002   8.570 -0.4819  0.3105  3.0649
  116OSM    C1F12153   2.826   0.322   6.955  0.2850 -0.2224  0.1650
  116OSM     OF12154   2.755   0.420   6.973 -0.1657  0.2490  0.0827
  116OSM    C2F12155   2.973   0.317   6.985 -0.0245 -0.2222 -0.6765
  116OSM    H2F12156   3.024   0.407   6.944  2.5094 -0.7778  1.0420
  116OSM    H2G12157   3.016   0.227   6.935 -1.2793 -0.1634 -1.9206
  116OSM    C3F12158   3.026   0.306   7.128 -0.2104  0.1328  0.0559
  116OSM    H3F12159   3.135   0.320   7.113 -0.4306  0.4695 -1.3831
  116OSM    H3G12160   3.017   0.203   7.170 -0.8226  0.0874 -0.1863
  116OSM    C4F12161   2.976   0.423   7.216 -0.3036 -0.0993 -0.0639
  116OSM    H4F12162   2.875   0.396   7.253  0.0525 -0.4864  0.6378
  116OSM    H4G12163   2.970   0.515   7.154  1.3846  0.2361  0.2097
  116OSM    C5F12164   3.074   0.449   7.335  0.3227  0.0363 -0.4806
  116OSM    H5F12165   3.175   0.460   7.289  1.7188 -0.0709  2.3394
  116OSM    H5G12166   3.072   0.362   7.403  0.0788  1.3943  1.3433
  116OSM    C6F12167   3.032   0.571   7.422 -0.0004 -0.2951 -0.3795
  116OSM    H6F12168   2.930   0.562   7.466  0.2746  0.4995  0.4778
  116OSM    H6G12169   3.031   0.658   7.353  1.5906 -0.7279 -0.9901
  116OSM    C7F12170   3.122   0.615   7.536  0.0321 -0.3325 -0.3446
  116OSM    H7F12171   3.084   0.707   7.585 -0.6385 -0.2351 -1.0336
  116OSM    H7G12172   3.224   0.617   7.492  0.5800  0.6191  0.8997
  116OSM    C8F12173   3.130   0.518   7.658  0.0866 -0.1326 -1.1139
  116OSM    H8F12174   3.168   0.422   7.617  2.4288 -0.2725  1.1061
  116OSM    H8G12175   3.028   0.501   7.700 -0.4949  4.7732  0.0458
  116OSM    C9F12176   3.221   0.557   7.776  0.1209 -0.0702 -0.4307
  116OSM    H9F12177   3.328   0.538   7.759  0.5878  1.8144  0.1469
  116OSM   C10F12178   3.182   0.602   7.895 -0.4352 -0.6644 -0.3024
  116OSM   H10F12179   3.262   0.617   7.969 -2.1217  0.6070  1.3682
  116OSM   C11F12180   3.042   0.627   7.943 -0.0232 -0.0292  0.6609
  116OSM   H11F12181   3.038   0.598   8.050  3.0441  2.3351  1.5406
  116OSM   H11G12182   2.965   0.576   7.881 -1.3648  3.0611 -0.3882
  116OSM   C12F12183   3.002   0.775   7.949  0.2630 -0.0229  0.0529
  116OSM   H12F12184   2.903   0.771   7.999 -1.0069 -2.6026 -2.4046
  116OSM   H12G12185   2.985   0.795   7.841 -0.8881 -1.6576 -0.1115
  116OSM   C13F12186   3.085   0.879   8.015 -0.2368 -0.7180  0.0032
  116OSM   H13F12187   3.031   0.971   7.985  0.1454 -0.3588  0.4184
  116OSM   H13G12188   3.187   0.887   7.972  0.5183 -3.0601  1.1797
  116OSM   C14F12189   3.094   0.854   8.168 -0.3657 -0.3094  0.6543
  116OSM   H14F12190   3.173   0.925   8.200 -0.2278 -0.0439 -0.2377
  116OSM   H14G12191   3.139   0.755   8.192  2.5656  0.9492  0.8130
  116OSM   C15F12192   2.965   0.866   8.237  0.4246 -0.0023 -0.5655
  116OSM   H15F12193   2.894   0.788   8.202  0.2117 -0.1649  0.2146
  116OSM   H15G12194   2.913   0.960   8.208  0.0598  0.1007  0.3938
  116OSM   C16F12195   2.976   0.861   8.397 -0.9164 -0.1339  0.2200
  116OSM   H16F12196   3.036   0.951   8.425  1.5589 -0.5047 -3.1722
  116OSM   H16G12197   3.044   0.775   8.414  1.3016  1.1350 -1.6617
  116OSM   C17F12198   2.843   0.859   8.469  0.3734 -0.1940  0.1001
  116OSM   H17F12199   2.785   0.779   8.417  0.6341 -0.7766  0.6992
  116OSM   H17G12200   2.781   0.949   8.447  0.4910 -0.3945 -1.1103
  116OSM   C18F12201   2.852   0.835   8.618  0.2595 -0.0578  0.3851
  116OSM   H18F12202   2.754   0.802   8.658  0.2310 -1.4874 -0.7691
  116OSM   H18G12203   2.881   0.931   8.666 -0.7475  1.1781 -1.3683
  116OSM   H18H12204   2.927   0.756   8.641 -0.6080 -0.3808  2.2342
  117OSM      N12205   1.685   3.519   6.507 -0.3308  0.3104 -0.5911
  117OSM    C1512206   1.783   3.589   6.425 -0.1758 -0.4392 -0.7638
  117OSM   H15A12207   1.730   3.670   6.377 -2.1085 -0.6950  0.8182
  117OSM   H15B12208   1.830   3.539   6.342  0.1665  0.1500 -0.9336
  117OSM   H15C12209   1.863   3.639   6.478  1.1259  1.2429 -4.0741
  117OSM    C1412210   1.653   3.609   6.620  0.1013 -0.8036 -0.1332
  117OSM   H14A12211   1.627   3.708   6.586  0.3582 -0.6378  0.1544
  117OSM   H14B12212   1.737   3.614   6.687 -0.6146 -0.4425  0.7558
  117OSM   H14C12213   1.572   3.572   6.681 -3.0796  0.6065 -3.1200
  117OSM    C1312214   1.558   3.490   6.428  0.0139  0.5300  0.5212
  117OSM   H13A12215   1.490   3.446   6.499  1.6932  0.9708  2.4924
  117OSM   H13B12216   1.582   3.427   6.344 -1.3269 -0.6686  1.0108
  117OSM   H13C12217   1.514   3.583   6.395 -0.7511 -0.2859 -0.8676
  117OSM    C1212218   1.746   3.403   6.583 -0.3012  0.6588 -0.4594
  117OSM   H12A12219   1.680   3.366   6.660  0.1044 -0.4634 -0.6280
  117OSM   H12B12220   1.829   3.439   6.643  0.2817 -1.5575  0.1809
  117OSM    C1112221   1.793   3.276   6.508 -0.0496  0.1405  0.6638
  117OSM   H11A12222   1.702   3.232   6.463  0.0323  2.3132 -1.8484
  117OSM   H11B12223   1.843   3.207   6.580 -0.8807 -1.1954 -0.0045
  117OSM      P12224   2.041   3.332   6.429 -0.4309 -0.2071  0.1721
  117OSM    O1312225   2.102   3.197   6.433 -0.3730  0.5565 -0.1103
  117OSM    O1412226   2.092   3.419   6.315 -0.5601 -0.0174 -0.3154
  117OSM    O1112227   2.058   3.414   6.568 -0.5227  0.3533  0.0921
  117OSM    O1212228   1.889   3.313   6.410  0.0679  0.7020  0.1202
  117OSM    C1S12229   2.137   3.346   6.668 -0.3434 -0.4926  0.4649
  117OSM    H1S12230   2.241   3.343   6.629  1.0415  1.0293  3.7061
  117OSM    H1T12231   2.108   3.242   6.693  0.1812 -1.3180 -2.0422
  117OSM     NF12232   2.228   3.327   6.890 -0.0831 -0.3866  0.1726
  117OSM    HNF12233   2.182   3.244   6.922 -1.3140 -0.9976 -2.8871
  117OSM    C2S12234   2.150   3.418   6.806 -0.0668  0.2865 -0.7873
  117OSM    H2S12235   2.202   3.516   6.803  1.0379 -0.1726  1.3112
  117OSM    C3S12236   2.009   3.448   6.870  0.1806  0.0620 -0.1881
  117OSM    H3S12237   1.958   3.352   6.890 -0.3827  0.1985 -0.9310
  117OSM     O312238   1.936   3.537   6.790 -0.8230  0.0159  0.8464
  117OSM    HO312239   1.979   3.542   6.704 -2.5817  1.9407 -0.0207
  117OSM    C4S12240   2.022   3.501   7.010 -0.9364  0.0252  0.1902
  117OSM    H4S12241   2.023   3.424   7.088  0.9908  0.2517  0.4330
  117OSM    C5S12242   2.030   3.634   7.048 -0.2849  0.3412  1.4793
  117OSM    H5S12243   2.010   3.703   6.965  1.6027  1.2175  1.6937
  117OSM    C6S12244   2.029   3.689   7.183 -0.7290 -0.0795 -0.7458
  117OSM    H6S12245   1.930   3.730   7.211  0.1085  1.1014  0.5746
  117OSM    H6T12246   2.111   3.763   7.179  0.4110 -1.2732 -0.2223
  117OSM    C7S12247   2.075   3.598   7.301  0.1958  0.0242 -0.3730
  117OSM    H7S12248   2.167   3.543   7.272  1.0913  1.5663 -0.5785
  117OSM    H7T12249   2.005   3.515   7.322 -0.7955  0.8522 -0.3024
  117OSM    C8S12250   2.110   3.677   7.431  0.4732 -0.1862  0.7562
  117OSM    H8S12251   2.025   3.741   7.460  0.2411  0.4310 -1.1673
  117OSM    H8T12252   2.203   3.736   7.412  1.1671 -1.3953  0.2108
  117OSM    C9S12253   2.135   3.574   7.545  0.1190  0.1604 -0.1600
  117OSM    H9S12254   2.222   3.516   7.507 -1.7381 -0.6995 -3.5402
  117OSM    H9T12255   2.040   3.516   7.555  0.3313  0.0617  1.5118
  117OSM   C10S12256   2.158   3.644   7.684  0.3787 -0.1888 -0.0278
  117OSM   H10S12257   2.057   3.670   7.723 -0.0429  0.4033 -1.4280
  117OSM   H10T12258   2.221   3.734   7.671 -3.2904  2.4037 -1.6928
  117OSM   C11S12259   2.224   3.552   7.792  0.2461 -0.0087 -0.3850
  117OSM   H11S12260   2.324   3.524   7.750  1.0819  1.6048  0.4431
  117OSM   H11T12261   2.154   3.466   7.791 -0.5000  0.5835  0.0613
  117OSM   C12S12262   2.241   3.620   7.931  0.6644 -0.1909 -0.3669
  117OSM   H12S12263   2.139   3.644   7.968  1.0839  0.9041  0.1203
  117OSM   H12T12264   2.297   3.715   7.933 -1.1540  0.9261  0.1719
  117OSM   C13S12265   2.301   3.519   8.024  0.3745  0.1131 -0.0786
  117OSM   H13S12266   2.407   3.510   7.991 -0.4230 -1.0293 -2.6119
  117OSM   H13T12267   2.261   3.416   8.013 -0.2111  0.2937  0.3121
  117OSM   C14S12268   2.281   3.558   8.169 -0.3522  0.5044 -0.4440
  117OSM   H14S12269   2.172   3.536   8.178 -0.2789 -0.1369 -1.0392
  117OSM   H14T12270   2.299   3.666   8.187 -1.8314  0.8142 -0.6731
  117OSM   C15S12271   2.356   3.469   8.270  0.5903 -0.1837 -0.1799
  117OSM   H15S12272   2.466   3.486   8.262  0.5529 -0.1277 -0.5809
  117OSM   H15T12273   2.337   3.363   8.243  2.5936 -1.1081  1.6974
  117OSM   C16S12274   2.307   3.505   8.418  0.7157  1.1197  0.0797
  117OSM   H16S12275   2.349   3.425   8.482  1.6289  1.7667  0.3164
  117OSM   H16T12276   2.196   3.498   8.417  0.8212 -1.3057 -0.4667
  117OSM   C17S12277   2.336   3.643   8.477 -0.0579  0.1694  0.0487
  117OSM   H17S12278   2.321   3.659   8.586 -2.5823  0.7254 -0.3175
  117OSM   H17T12279   2.256   3.704   8.431  0.1460 -0.2245 -0.8539
  117OSM   C18S12280   2.467   3.705   8.430 -0.2078  1.2152  0.1822
  117OSM   H18S12281   2.543   3.656   8.495  0.5576  3.1121  0.7735
  117OSM   H18T12282   2.475   3.815   8.443  1.0131  1.2109 -0.4342
  117OSM   H18U12283   2.485   3.685   8.322  1.0097  1.5608  0.3024
  117OSM    C1F12284   2.359   3.332   6.879 -0.2217  0.3910 -0.8007
  117OSM     OF12285   2.419   3.413   6.813  0.1800  0.1284  0.0520
  117OSM    C2F12286   2.433   3.227   6.951  0.0085 -0.2995  0.6309
  117OSM    H2F12287   2.522   3.205   6.887  0.0694 -0.6087  0.8195
  117OSM    H2G12288   2.375   3.133   6.947 -0.3141 -0.0891 -2.6591
  117OSM    C3F12289   2.480   3.258   7.089 -0.5372 -0.6523 -0.5794
  117OSM    H3F12290   2.547   3.345   7.075 -0.8094 -0.6618 -2.1148
  117OSM    H3G12291   2.544   3.171   7.116 -0.0071  0.0008  0.3370
  117OSM    C4F12292   2.379   3.275   7.200  0.1135 -0.2428  0.1721
  117OSM    H4F12293   2.313   3.185   7.196 -0.9864  0.4418  1.8315
  117OSM    H4G12294   2.301   3.350   7.176 -1.2059 -1.6537 -0.1680
  117OSM    C5F12295   2.440   3.279   7.337 -0.0949 -0.5077 -0.0872
  117OSM    H5F12296   2.521   3.205   7.355 -0.1286 -0.3451  0.7522
  117OSM    H5G12297   2.359   3.262   7.411  1.0544 -2.2730  0.8395
  117OSM    C6F12298   2.497   3.415   7.378  0.1343  0.0029 -0.2072
  117OSM    H6F12299   2.432   3.497   7.339 -0.7117 -0.2425  0.6517
  117OSM    H6G12300   2.595   3.430   7.328  0.6100  0.1252  0.7329
  117OSM    C7F12301   2.510   3.432   7.524 -0.5836 -0.3739 -0.6517
  117OSM    H7F12302   2.412   3.415   7.572 -0.4499  0.8747  0.1071
  117OSM    H7G12303   2.523   3.539   7.550 -1.8884 -0.5162  0.7312
  117OSM    C8F12304   2.617   3.348   7.585  0.0338  0.9607  0.4960
  117OSM    H8F12305   2.711   3.390   7.545 -0.0381 -0.7489 -1.6490
  117OSM    H8G12306   2.620   3.243   7.547  0.4381  1.3634 -0.6022
  117OSM    C9F12307   2.608   3.378   7.735 -0.1341  0.1710 -0.1223
  117OSM    H9F12308   2.633   3.482   7.764  1.7446 -0.3816  0.3717
  117OSM   C10F12309   2.565   3.285   7.827 -0.6443 -0.9143 -0.7554
  117OSM   H10F12310   2.558   3.320   7.931 -1.8729 -2.8381 -0.1403
  117OSM   C11F12311   2.536   3.141   7.807  0.8962  0.1849 -0.0087
  117OSM   H11F12312   2.598   3.069   7.865  0.1984  0.0764  0.6072
  117OSM   H11G12313   2.552   3.117   7.700 -0.5445 -0.3466 -0.1210
  117OSM   C12F12314   2.393   3.113   7.854 -0.0653  0.1803 -0.8243
  117OSM   H12F12315   2.367   3.011   7.816  1.6677  0.4512 -2.9691
  117OSM   H12G12316   2.322   3.184   7.806 -1.0246 -1.3499 -1.7644
  117OSM   C13F12317   2.366   3.117   8.004 -0.5727  0.3007 -0.4069
  117OSM   H13F12318   2.255   3.113   7.998 -0.5808  1.9087 -3.9859
  117OSM   H13G12319   2.404   3.210   8.053 -1.7281  0.5897 -0.0158
  117OSM   C14F12320   2.422   2.994   8.083  0.0927 -0.1366 -0.0556
  117OSM   H14F12321   2.529   2.975   8.060 -0.3026 -0.7221 -1.5429
  117OSM   H14G12322   2.355   2.912   8.049 -0.2585  0.7293 -1.5550
  117OSM   C15F12323   2.377   3.006   8.226 -0.0769 -0.1974  0.2042
  117OSM   H15F12324   2.275   3.046   8.246 -0.0698  0.4132 -0.8520
  117OSM   H15G12325   2.446   3.070   8.284 -0.2846  1.3947 -1.2175
  117OSM   C16F12326   2.406   2.869   8.286  0.0360  0.3799  0.2782
  117OSM   H16F12327   2.498   2.820   8.248 -1.3282 -0.3205 -2.3699
  117OSM   H16G12328   2.326   2.803   8.246  2.0792 -0.1397 -3.3733
  117OSM   C17F12329   2.401   2.868   8.437 -0.5890 -0.5599  0.4950
  117OSM   H17F12330   2.471   2.945   8.476 -1.9946  0.4237  1.1326
  117OSM   H17G12331   2.303   2.916   8.455 -0.1106  2.0663 -2.8059
  117OSM   C18F12332   2.408   2.726   8.505  0.2684  0.6807 -0.0848
  117OSM   H18F12333   2.511   2.686   8.498  0.2513  0.3620  1.2883
  117OSM   H18G12334   2.321   2.667   8.469  0.6127 -0.0494  0.2710
  117OSM   H18H12335   2.376   2.728   8.611  1.7736  0.6803  0.3785
  118OSM      N12336   5.571   3.101   6.075 -0.1034 -0.0270  0.0864
  118OSM    C1512337   5.703   3.079   6.145 -0.2433 -0.2980  0.7398
  118OSM   H15A12338   5.779   3.137   6.095  0.7619  1.4561  4.0348
  118OSM   H15B12339   5.732   2.975   6.151  1.0960  0.0004 -0.1097
  118OSM   H15C12340   5.691   3.121   6.244  0.0378 -0.0368  0.6652
  118OSM    C1412341   5.553   3.249   6.067 -0.0218  0.6795 -0.3620
  118OSM   H14A12342   5.455   3.281   6.036 -0.5934 -1.8793 -1.5017
  118OSM   H14B12343   5.627   3.290   6.000  2.1111 -2.9131 -0.4938
  118OSM   H14C12344   5.587   3.290   6.161 -0.1404 -0.8350  0.3852
  118OSM    C1312345   5.571   3.054   5.933 -0.2541 -0.9278 -0.3981
  118OSM   H13A12346   5.614   2.956   5.922 -1.3970 -1.2799 -2.1082
  118OSM   H13B12347   5.626   3.135   5.887  1.4309  0.1040  3.1243
  118OSM   H13C12348   5.475   3.070   5.885 -0.3209  1.0641  0.3009
  118OSM    C1212349   5.459   3.030   6.148 -0.2385 -0.4541 -0.0518
  118OSM   H12A12350   5.472   2.923   6.142  0.8680 -0.3412  0.1901
  118OSM   H12B12351   5.369   3.054   6.094 -0.3227  1.4817  0.8556
  118OSM    C1112352   5.427   3.075   6.292  0.5730 -0.2898  0.4281
  118OSM   H11A12353   5.519   3.063   6.354  1.7408 -0.9276 -1.3410
  118OSM   H11B12354   5.355   2.993   6.315 -0.0608  0.1989  0.2160
  118OSM      P12355   5.204   3.219   6.296  0.5867  0.5208  0.3799
  118OSM    O1312356   5.166   3.350   6.346  0.2074  0.5494  0.0747
  118OSM    O1412357   5.167   3.181   6.153  0.2027 -0.2405  0.1411
  118OSM    O1112358   5.131   3.114   6.395  0.5303  0.5730  0.1651
  118OSM    O1212359   5.362   3.200   6.305 -0.0620 -0.1763  0.4395
  118OSM    C1S12360   5.183   3.090   6.528  0.0752 -0.5403 -0.2509
  118OSM    H1S12361   5.178   3.190   6.576 -4.5458 -1.2880  1.3306
  118OSM    H1T12362   5.288   3.057   6.540  0.4989  1.1819  1.1693
  118OSM     NF12363   5.141   2.984   6.748 -0.0628 -0.1528 -0.5791
  118OSM    HNF12364   5.208   2.914   6.771 -1.0141 -1.0290 -0.3523
  118OSM    C2S12365   5.087   2.991   6.609 -0.0516  0.3614  0.2810
  118OSM    H2S12366   4.983   3.029   6.622  0.0162  0.6432  0.0023
  118OSM    C3S12367   5.082   2.865   6.518 -0.8463  0.0289  0.2545
  118OSM    H3S12368   5.180   2.818   6.494 -0.6178  0.4302  0.3993
  118OSM     O312369   5.024   2.879   6.394  0.0532  0.0158  0.0387
  118OSM    HO312370   5.046   2.971   6.376  0.8165 -0.4629 -1.6693
  118OSM    C4S12371   4.996   2.761   6.590 -0.2687  0.2819  0.6063
  118OSM    H4S12372   4.890   2.790   6.590  0.6674  4.3758 -0.3678
  118OSM    C5S12373   5.047   2.664   6.662  0.6644  0.3207  0.5273
  118OSM    H5S12374   5.156   2.663   6.679  0.8284  0.3587 -0.4787
  118OSM    C6S12375   4.971   2.560   6.736 -0.3402 -0.3680 -0.3940
  118OSM    H6S12376   4.972   2.468   6.673 -0.2998  0.3907 -1.5443
  118OSM    H6T12377   4.864   2.584   6.748 -0.1085 -0.1723  1.5226
  118OSM    C7S12378   5.017   2.530   6.873 -0.4574 -0.5843  0.1172
  118OSM    H7S12379   5.128   2.518   6.874 -0.3146  0.6462  0.3764
  118OSM    H7T12380   4.967   2.435   6.902 -0.3795 -0.9243 -0.8317
  118OSM    C8S12381   4.987   2.651   6.966  0.3035  0.9294  0.0801
  118OSM    H8S12382   4.877   2.668   6.955 -0.2409 -1.2031  1.5664
  118OSM    H8T12383   5.046   2.734   6.923  1.5580 -0.9440 -2.0050
  118OSM    C9S12384   5.030   2.616   7.116 -0.0318 -0.0161  0.4446
  118OSM    H9S12385   5.141   2.613   7.111  0.2746  3.7213  1.7120
  118OSM    H9T12386   4.977   2.523   7.144 -0.5632 -0.5801 -2.1834
  118OSM   C10S12387   4.997   2.725   7.218 -0.1214 -0.5512 -0.4177
  118OSM   H10S12388   4.888   2.748   7.210  0.1780  0.8071 -0.9673
  118OSM   H10T12389   5.037   2.826   7.194 -1.6058  0.4640  1.1207
  118OSM   C11S12390   5.038   2.697   7.363  0.5776 -0.3868 -0.8451
  118OSM   H11S12391   5.014   2.791   7.416  0.6455 -1.3982  1.0709
  118OSM   H11T12392   5.148   2.680   7.369  0.3153 -2.2226 -0.6680
  118OSM   C12S12393   4.961   2.583   7.433  0.4291 -0.1491  0.2854
  118OSM   H12S12394   5.002   2.490   7.387 -1.0932  0.6466 -3.0051
  118OSM   H12T12395   4.853   2.592   7.408  0.7238  0.2454 -0.9448
  118OSM   C13S12396   4.966   2.599   7.586 -0.3626  0.7331  0.1156
  118OSM   H13S12397   4.932   2.701   7.614 -2.3998  0.0861  0.1844
  118OSM   H13T12398   5.073   2.583   7.610 -0.8009  0.3902  2.0448
  118OSM   C14S12399   4.871   2.500   7.660 -0.7854 -1.4461  0.3143
  118OSM   H14S12400   4.771   2.537   7.631  0.2723  1.4967  0.0758
  118OSM   H14T12401   4.879   2.510   7.771 -1.7950  2.9995  0.1490
  118OSM   C15S12402   4.887   2.353   7.627 -0.1044 -0.0406 -0.0870
  118OSM   H15S12403   4.991   2.320   7.649 -0.3047 -0.3568  0.4035
  118OSM   H15T12404   4.879   2.335   7.518  0.4232 -0.1527 -0.1085
  118OSM   C16S12405   4.784   2.258   7.690  0.7334 -0.7978 -0.8681
  118OSM   H16S12406   4.772   2.160   7.640 -0.4233 -1.4336  0.5945
  118OSM   H16T12407   4.689   2.315   7.678  2.6037  3.1297  1.2053
  118OSM   C17S12408   4.818   2.228   7.833  0.1512 -0.0565  0.3997
  118OSM   H17S12409   4.786   2.312   7.898 -0.5863  1.8384 -2.2357
  118OSM   H17T12410   4.928   2.214   7.831  0.4020  1.7786 -1.1575
  118OSM   C18S12411   4.737   2.113   7.887 -0.0827  0.1603 -0.1295
  118OSM   H18S12412   4.770   2.088   7.990  0.4052 -1.2858 -0.6063
  118OSM   H18T12413   4.753   2.022   7.825 -2.5520  0.6122 -1.5714
  118OSM   H18U12414   4.632   2.149   7.886  0.1059  0.9183  2.3589
  118OSM    C1F12415   5.133   3.086   6.837  0.2962  0.4776  0.0889
  118OSM     OF12416   5.071   3.190   6.811 -0.5937 -0.9052 -0.0224
  118OSM    C2F12417   5.193   3.057   6.981 -0.0723  0.1312 -0.3187
  118OSM    H2F12418   5.298   3.091   6.994 -0.0118 -0.3567  0.4698
  118OSM    H2G12419   5.186   2.948   7.001 -0.7859  0.4693  1.4578
  118OSM    C3F12420   5.120   3.128   7.098 -0.5405 -0.6519  0.1161
  118OSM    H3F12421   5.022   3.077   7.112 -0.7655 -0.1490  0.3907
  118OSM    H3G12422   5.104   3.237   7.083 -2.8410 -0.7158  1.5469
  118OSM    C4F12423   5.178   3.106   7.237 -1.2317  0.2288  0.5577
  118OSM    H4F12424   5.279   3.152   7.235 -1.5760  1.0668 -2.2513
  118OSM    H4G12425   5.196   2.998   7.255  1.8309  0.6991  0.8960
  118OSM    C5F12426   5.105   3.155   7.362 -0.2629 -0.1955 -0.0870
  118OSM    H5F12427   5.006   3.106   7.375  0.2546 -1.2127  0.0972
  118OSM    H5G12428   5.096   3.265   7.348  2.2166 -0.1392 -1.8794
  118OSM    C6F12429   5.171   3.133   7.493 -0.0550 -0.2754 -0.3131
  118OSM    H6F12430   5.281   3.142   7.487  0.1444 -2.3471 -0.8776
  118OSM    H6G12431   5.155   3.025   7.517  1.7914 -0.9814 -1.9696
  118OSM    C7F12432   5.120   3.221   7.605 -0.8240  0.0630  1.0325
  118OSM    H7F12433   5.013   3.203   7.631 -0.9599 -0.0428  0.4354
  118OSM    H7G12434   5.140   3.327   7.580 -0.2842 -0.1176  0.6813
  118OSM    C8F12435   5.186   3.192   7.747 -0.2389  0.3017  0.0206
  118OSM    H8F12436   5.153   3.273   7.814 -0.3025  0.1757  0.1413
  118OSM    H8G12437   5.297   3.197   7.735 -0.3353  0.0838 -1.0708
  118OSM    C9F12438   5.154   3.051   7.798 -0.3199  0.2727  0.0068
  118OSM    H9F12439   5.184   2.969   7.732  0.3278  1.0942 -0.7360
  118OSM   C10F12440   5.104   3.019   7.916  0.0914  0.5045 -0.3964
  118OSM   H10F12441   5.093   2.911   7.936 -0.2830  0.3218 -1.5190
  118OSM   C11F12442   5.065   3.112   8.026 -0.2966 -0.4449  0.1503
  118OSM   H11F12443   4.957   3.102   8.050 -1.1212  1.8810 -2.0202
  118OSM   H11G12444   5.065   3.218   7.992  0.6399 -0.7635 -0.9379
  118OSM   C12F12445   5.152   3.086   8.148 -0.1807 -0.2112  0.4920
  118OSM   H12F12446   5.258   3.116   8.134  0.4347 -2.1292  0.8096
  118OSM   H12G12447   5.160   2.979   8.178  3.4711  0.2506  1.6665
  118OSM   C13F12448   5.096   3.156   8.271  0.5768 -0.5759 -0.0697
  118OSM   H13F12449   4.989   3.128   8.274  0.8907 -1.8813 -0.2441
  118OSM   H13G12450   5.103   3.264   8.244  0.6169 -0.9390 -1.5985
  118OSM   C14F12451   5.164   3.125   8.401 -0.4711 -0.5377 -0.2061
  118OSM   H14F12452   5.183   3.016   8.405  0.0750 -0.4251  0.6513
  118OSM   H14G12453   5.106   3.144   8.494  1.7440  0.6412  1.0155
  118OSM   C15F12454   5.309   3.182   8.427  0.2725 -0.4545  0.2864
  118OSM   H15F12455   5.386   3.145   8.356  0.9877 -0.1416  0.8925
  118OSM   H15G12456   5.340   3.149   8.528 -0.4187  0.3217  0.7683
  118OSM   C16F12457   5.310   3.342   8.442  0.3074  0.1765  0.0081
  118OSM   H16F12458   5.236   3.376   8.518  0.1864 -2.8509  1.4110
  118OSM   H16G12459   5.288   3.388   8.344 -1.6522 -0.7515 -0.0254
  118OSM   C17F12460   5.452   3.394   8.477  0.4765 -0.1689  0.2356
  118OSM   H17F12461   5.526   3.341   8.413  0.0791 -0.4783  0.0291
  118OSM   H17G12462   5.479   3.363   8.580  0.4723 -0.6481  0.0929
  118OSM   C18F12463   5.475   3.548   8.452 -0.1624  0.3721 -0.3676
  118OSM   H18F12464   5.526   3.567   8.355 -0.8437  0.8132 -0.6473
  118OSM   H18G12465   5.549   3.589   8.524  0.6894 -0.6078 -0.6515
  118OSM   H18H12466   5.378   3.602   8.461 -1.0391 -0.8218 -2.0406
  119OSM      N12467   0.030   2.130   5.990  0.2514 -0.0659  0.2756
  119OSM    C1512468  -0.045   2.121   5.857  0.0086 -0.5354  0.5833
  119OSM   H15A12469  -0.143   2.080   5.876 -0.2713 -0.1632 -0.0522
  119OSM   H15B12470   0.004   2.054   5.788 -2.1643 -0.8372 -0.7597
  119OSM   H15C12471  -0.064   2.215   5.809 -1.8939 -1.8302 -1.3937
  119OSM    C1412472   0.171   2.170   5.953  0.0477  0.0585  0.2911
  119OSM   H14A12473   0.180   2.265   5.902  1.4119 -0.6575 -0.8449
  119OSM   H14B12474   0.213   2.092   5.892  2.4528  1.7595 -0.4094
  119OSM   H14C12475   0.239   2.167   6.037  1.2488  0.3384 -0.6461
  119OSM    C1312476  -0.034   2.236   6.074  0.2096 -0.0442  0.3329
  119OSM   H13A12477  -0.053   2.320   6.010 -2.7496 -1.7957 -1.3167
  119OSM   H13B12478   0.019   2.253   6.167 -1.1624  0.1812  1.1024
  119OSM   H13C12479  -0.133   2.211   6.110 -1.0783  3.5217 -0.3581
  119OSM    C1212480   0.041   1.987   6.053  0.7060  0.1848  0.1940
  119OSM   H12A12481   0.106   1.992   6.139  3.3362 -0.9713 -1.5979
  119OSM   H12B12482   0.092   1.917   5.989  0.7429 -0.4792  0.9385
  119OSM    C1112483  -0.088   1.910   6.111  0.0042 -0.0382  0.3124
  119OSM   H11A12484  -0.112   1.979   6.194  1.9441  0.8913  0.1575
  119OSM   H11B12485  -0.059   1.811   6.152  1.3310 -0.0164 -0.5197
  119OSM      P12486  -0.329   1.942   6.010 -0.0249  0.0699 -0.0624
  119OSM    O1312487  -0.352   2.059   5.922  0.0406 -0.3853  0.5220
  119OSM    O1412488  -0.429   1.831   5.991  0.1380 -0.6601  0.5191
  119OSM    O1112489  -0.340   1.998   6.156  0.1906 -0.6512 -0.0798
  119OSM    O1212490  -0.188   1.887   6.007  0.9346 -0.1063 -0.3658
  119OSM    C1S12491  -0.429   1.938   6.240 -0.2048 -0.3706  0.7420
  119OSM    H1S12492  -0.393   1.836   6.266  0.7406 -0.4479 -0.7461
  119OSM    H1T12493  -0.524   1.916   6.187  0.8458 -1.1759 -0.9051
  119OSM     NF12494  -0.567   1.984   6.439 -0.6452  0.0577 -0.2977
  119OSM    HNF12495  -0.650   2.039   6.433  1.1835  3.0662  0.2822
  119OSM    C2S12496  -0.452   2.037   6.363  0.0798  0.3822  0.5112
  119OSM    H2S12497  -0.357   2.027   6.419  0.8004 -1.7423 -0.9783
  119OSM    C3S12498  -0.477   2.188   6.307 -0.5505  0.1081 -0.3093
  119OSM    H3S12499  -0.573   2.187   6.252 -0.4899  1.9948 -0.5366
  119OSM     O312500  -0.376   2.247   6.217 -0.2781  0.3320  0.3856
  119OSM    HO312501  -0.351   2.172   6.162  0.3261  0.7032  0.1540
  119OSM    C4S12502  -0.498   2.278   6.428 -0.2333  0.6610 -0.4507
  119OSM    H4S12503  -0.604   2.293   6.450 -0.1307 -0.8400  1.3023
  119OSM    C5S12504  -0.409   2.316   6.521 -0.3828 -0.9112 -0.6891
  119OSM    H5S12505  -0.306   2.279   6.511 -0.9142 -2.3496 -1.1439
  119OSM    C6S12506  -0.452   2.395   6.642 -0.2087 -0.0607 -0.1869
  119OSM    H6S12507  -0.549   2.442   6.615  0.7828  1.8501 -0.5829
  119OSM    H6T12508  -0.387   2.483   6.658 -1.4299  1.4506 -2.8501
  119OSM    C7S12509  -0.453   2.322   6.781 -0.1213 -0.3794 -0.1662
  119OSM    H7S12510  -0.484   2.396   6.857  0.8346  0.5378 -0.6503
  119OSM    H7T12511  -0.349   2.288   6.800  0.1896  0.3569 -0.5261
  119OSM    C8S12512  -0.548   2.200   6.807  0.3017 -0.3915  0.4088
  119OSM    H8S12513  -0.537   2.132   6.720  0.5929  0.0984  0.0561
  119OSM    H8T12514  -0.653   2.236   6.809  0.9187  1.4453  1.9560
  119OSM    C9S12515  -0.527   2.119   6.938 -0.0923  0.2971  0.6560
  119OSM    H9S12516  -0.417   2.105   6.941 -0.1688 -2.0434 -2.5999
  119OSM    H9T12517  -0.576   2.019   6.946 -0.0550  0.3948  2.8266
  119OSM   C10S12518  -0.566   2.200   7.059  0.0328 -0.1796 -0.7676
  119OSM   H10S12519  -0.673   2.228   7.044  0.3285  0.7195 -1.2691
  119OSM   H10T12520  -0.519   2.300   7.051 -1.8367  0.6491 -2.1553
  119OSM   C11S12521  -0.535   2.141   7.195 -0.1421  0.0675  0.0421
  119OSM   H11S12522  -0.431   2.102   7.204 -0.0803  0.6777  2.7367
  119OSM   H11T12523  -0.593   2.049   7.214  4.4733 -3.2122 -0.2343
  119OSM   C12S12524  -0.546   2.233   7.313  0.1059  0.5055  0.2151
  119OSM   H12S12525  -0.651   2.269   7.314 -0.6563 -1.1477 -3.9444
  119OSM   H12T12526  -0.474   2.316   7.297  0.7108 -0.0602 -0.0209
  119OSM   C13S12527  -0.516   2.177   7.453  0.6669 -0.2242 -0.9643
  119OSM   H13S12528  -0.409   2.172   7.482  1.0337 -0.6838 -2.3245
  119OSM   H13T12529  -0.556   2.074   7.455  0.7568 -0.2714 -1.4460
  119OSM   C14S12530  -0.598   2.258   7.561  0.4474 -0.0119  0.4787
  119OSM   H14S12531  -0.583   2.202   7.656  0.0214 -1.2519 -0.1730
  119OSM   H14T12532  -0.706   2.272   7.538  0.6448 -0.4182 -0.7769
  119OSM   C15S12533  -0.548   2.402   7.581  0.0219 -0.6957 -0.4723
  119OSM   H15S12534  -0.584   2.452   7.488  2.2618  1.6762 -0.1684
  119OSM   H15T12535  -0.438   2.403   7.593  0.0916 -0.4747 -1.0957
  119OSM   C16S12536  -0.620   2.464   7.702 -0.4620 -0.7971 -0.1185
  119OSM   H16S12537  -0.728   2.440   7.704 -1.0862  1.7206 -0.6063
  119OSM   H16T12538  -0.628   2.574   7.691 -2.6134 -1.0364 -1.5952
  119OSM   C17S12539  -0.550   2.423   7.831  0.1320  0.1931  0.2779
  119OSM   H17S12540  -0.462   2.491   7.833  0.2328  0.0513  2.1095
  119OSM   H17T12541  -0.527   2.315   7.837  0.5814  0.1962 -0.9743
  119OSM   C18S12542  -0.622   2.451   7.967  0.0143  0.3378  0.4010
  119OSM   H18S12543  -0.714   2.390   7.978  1.2576 -1.3581  1.8972
  119OSM   H18T12544  -0.631   2.556   8.000 -0.1759 -0.1394  1.9159
  119OSM   H18U12545  -0.558   2.410   8.048 -0.2702 -0.0499  0.4350
  119OSM    C1F12546  -0.558   1.868   6.516 -0.7793  0.3379  0.2646
  119OSM     OF12547  -0.461   1.796   6.505  0.0466 -0.2000 -0.4428
  119OSM    C2F12548  -0.667   1.826   6.602 -0.0211 -0.4865  0.3206
  119OSM    H2F12549  -0.754   1.798   6.539 -0.9255  1.2590  0.7218
  119OSM    H2G12550  -0.689   1.919   6.659  1.6001  1.0565 -1.4290
  119OSM    C3F12551  -0.615   1.705   6.686  0.3187 -0.1789 -0.0372
  119OSM    H3F12552  -0.524   1.727   6.746  0.6446  0.6442 -0.8252
  119OSM    H3G12553  -0.586   1.618   6.623 -0.4927 -0.8989  0.5415
  119OSM    C4F12554  -0.717   1.652   6.784  0.2843  0.3278  0.7696
  119OSM    H4F12555  -0.805   1.614   6.727 -1.2832  0.9271  2.6932
  119OSM    H4G12556  -0.758   1.739   6.839  0.4488  0.6793  0.3478
  119OSM    C5F12557  -0.654   1.544   6.869  0.1947  0.4266 -0.3249
  119OSM    H5F12558  -0.579   1.576   6.945 -0.5515 -0.7129  0.9538
  119OSM    H5G12559  -0.598   1.474   6.804 -0.5919  0.0237 -0.5724
  119OSM    C6F12560  -0.764   1.468   6.951 -0.3555  0.2477 -0.4263
  119OSM    H6F12561  -0.715   1.391   7.013  2.5825  1.0717 -1.5693
  119OSM    H6G12562  -0.831   1.415   6.879 -0.5289 -2.8852  1.8408
  119OSM    C7F12563  -0.857   1.549   7.044 -0.2492 -0.3830 -0.2031
  119OSM    H7F12564  -0.931   1.480   7.091 -1.4703  0.6893 -0.4627
  119OSM    H7G12565  -0.919   1.617   6.981 -0.9647 -1.2147 -0.4195
  119OSM    C8F12566  -0.773   1.625   7.149 -0.6862 -0.0535 -0.2169
  119OSM    H8F12567  -0.707   1.701   7.103  3.0901 -2.4636  0.8017
  119OSM    H8G12568  -0.705   1.551   7.196 -0.1102 -0.5375 -1.7480
  119OSM    C9F12569  -0.865   1.682   7.245  0.2914 -0.0927 -0.0209
  119OSM    H9F12570  -0.952   1.736   7.205  2.0458  2.5369 -0.5038
  119OSM   C10F12571  -0.845   1.698   7.373 -0.2304 -0.7512  0.3624
  119OSM   H10F12572  -0.933   1.747   7.417  0.2176  1.1203 -0.7015
  119OSM   C11F12573  -0.734   1.660   7.465  0.0172 -0.0653  0.2045
  119OSM   H11F12574  -0.726   1.740   7.541  1.9485  0.2391 -0.2816
  119OSM   H11G12575  -0.639   1.645   7.409 -1.1831 -2.5316 -1.3814
  119OSM   C12F12576  -0.751   1.529   7.549  0.1121  0.2985 -0.6610
  119OSM   H12F12577  -0.756   1.449   7.472 -0.1389  0.1570 -0.5003
  119OSM   H12G12578  -0.840   1.526   7.616  0.4476  2.3945 -0.0508
  119OSM   C13F12579  -0.627   1.494   7.628  0.0097  0.5590  0.8651
  119OSM   H13F12580  -0.537   1.520   7.568 -0.8230  2.2137  0.2566
  119OSM   H13G12581  -0.625   1.384   7.640  0.4866  0.1135 -2.3361
  119OSM   C14F12582  -0.609   1.559   7.767  0.0916  0.7883  0.8451
  119OSM   H14F12583  -0.683   1.515   7.836 -0.0748  0.7380  0.6365
  119OSM   H14G12584  -0.629   1.668   7.757 -0.4928  0.7007  1.0667
  119OSM   C15F12585  -0.473   1.531   7.836  0.0922  0.2701 -0.0586
  119OSM   H15F12586  -0.393   1.593   7.790  0.3246 -0.6026 -0.8810
  119OSM   H15G12587  -0.435   1.427   7.827  1.8034  0.6711  1.7427
  119OSM   C16F12588  -0.483   1.560   7.986 -0.5949  0.7767 -0.4463
  119OSM   H16F12589  -0.557   1.494   8.035 -0.5347 -0.0957 -1.4937
  119OSM   H16G12590  -0.508   1.667   8.005  0.5793  0.6679  2.1135
  119OSM   C17F12591  -0.350   1.532   8.057  0.7183 -0.0245 -0.4761
  119OSM   H17F12592  -0.265   1.586   8.011  0.4440  0.1908 -0.7363
  119OSM   H17G12593  -0.330   1.424   8.039  2.7733  0.2564 -0.0854
  119OSM   C18F12594  -0.363   1.571   8.202  0.3892 -0.3659 -0.3244
  119OSM   H18F12595  -0.366   1.680   8.225 -0.2927 -0.8855  2.4615
  119OSM   H18G12596  -0.282   1.530   8.266 -1.4299 -0.5755  1.9682
  119OSM   H18H12597  -0.457   1.527   8.241 -1.0612  1.3551 -1.6866
  120OSM      N12598   3.037   1.636   6.037 -0.7652 -0.0776  0.2045
  120OSM    C1512599   2.942   1.668   5.926 -0.0144 -0.0726  0.1998
  120OSM   H15A12600   2.913   1.771   5.932  0.2715 -0.0353  1.0905
  120OSM   H15B12601   2.853   1.611   5.948  0.0760 -0.3970 -0.2331
  120OSM   H15C12602   2.993   1.657   5.831  0.0196 -2.1985  0.4066
  120OSM    C1412603   3.080   1.495   6.029  0.1007  0.1788  0.2659
  120OSM   H14A12604   3.115   1.462   6.125  0.3430  2.6797  1.0933
  120OSM   H14B12605   3.152   1.473   5.951  1.9780 -0.9921  2.2199
  120OSM   H14C12606   2.992   1.437   6.004  2.2697 -3.6762  0.7000
  120OSM    C1312607   3.160   1.719   6.025  0.1336  0.1925 -0.1963
  120OSM   H13A12608   3.216   1.685   5.938 -0.2613 -1.5922  0.2121
  120OSM   H13B12609   3.210   1.708   6.120 -1.1956  0.0215  0.5081
  120OSM   H13C12610   3.145   1.825   6.014  2.8227  0.5980 -0.6380
  120OSM    C1212611   2.975   1.667   6.173 -0.1582 -0.7109  0.7747
  120OSM   H12A12612   2.880   1.616   6.178 -0.2664 -0.6130 -0.1374
  120OSM   H12B12613   2.945   1.770   6.167  0.5836 -0.5365 -0.5400
  120OSM    C1112614   3.047   1.624   6.301  0.3437  0.2129  0.6634
  120OSM   H11A12615   3.058   1.516   6.323  0.3527  0.3601  1.4119
  120OSM   H11B12616   2.980   1.657   6.382 -2.0335 -0.7237 -0.8316
  120OSM      P12617   3.224   1.799   6.372 -0.0155 -0.3598  0.1006
  120OSM    O1312618   3.342   1.842   6.294  0.4140 -0.3076  0.7124
  120OSM    O1412619   3.109   1.892   6.384  0.1482 -0.4193 -0.4106
  120OSM    O1112620   3.277   1.751   6.514  0.1512  0.0685 -0.0994
  120OSM    O1212621   3.175   1.673   6.309  0.2824  0.1418 -0.5024
  120OSM    C1S12622   3.226   1.640   6.581  0.1693 -0.3510 -0.8006
  120OSM    H1S12623   3.260   1.550   6.526  0.1418 -0.4472 -0.6574
  120OSM    H1T12624   3.115   1.640   6.581  0.1537 -1.2751 -1.8661
  120OSM     NF12625   3.199   1.517   6.796  0.4026  0.2505  1.0721
  120OSM    HNF12626   3.112   1.539   6.838  0.2682  1.5173  0.1833
  120OSM    C2S12627   3.258   1.636   6.735 -0.7187  0.1863  0.8154
  120OSM    H2S12628   3.368   1.631   6.747 -0.5609 -3.8867 -0.7826
  120OSM    C3S12629   3.203   1.766   6.812  0.2690  0.6419  0.4823
  120OSM    H3S12630   3.092   1.770   6.820  0.0768 -0.5064 -1.0946
  120OSM     O312631   3.241   1.890   6.749 -0.4743 -0.4176 -0.1161
  120OSM    HO312632   3.251   1.856   6.660  0.3719 -0.5378  0.0188
  120OSM    C4S12633   3.262   1.778   6.943  0.5544 -0.1673 -0.9870
  120OSM    H4S12634   3.368   1.807   6.948  0.3921  0.2258  1.3586
  120OSM    C5S12635   3.191   1.772   7.061  0.7425 -0.2656  0.0379
  120OSM    H5S12636   3.082   1.775   7.079  0.8959 -1.4680  1.3629
  120OSM    C6S12637   3.256   1.782   7.196 -0.2648  0.4241 -0.8349
  120OSM    H6S12638   3.239   1.883   7.238 -0.1098  0.5794 -1.1442
  120OSM    H6T12639   3.363   1.754   7.189 -0.6689 -1.3093 -0.5211
  120OSM    C7S12640   3.215   1.674   7.301  0.4873 -0.2972  0.3825
  120OSM    H7S12641   3.230   1.571   7.262 -1.5030  0.2093 -1.9731
  120OSM    H7T12642   3.107   1.683   7.323  0.4480  1.7406 -0.4359
  120OSM    C8S12643   3.290   1.693   7.433 -0.1930  0.1036  0.3308
  120OSM    H8S12644   3.279   1.800   7.462 -0.5018  0.4175 -0.8667
  120OSM    H8T12645   3.399   1.673   7.429 -0.3956 -1.0411 -3.8637
  120OSM    C9S12646   3.233   1.601   7.537  0.2596 -0.4563 -0.7563
  120OSM    H9S12647   3.222   1.501   7.489  0.6412 -0.4860 -0.7852
  120OSM    H9T12648   3.131   1.627   7.572 -0.2103 -1.1547 -1.5605
  120OSM   C10S12649   3.318   1.595   7.668 -0.2988  0.2307  0.4410
  120OSM   H10S12650   3.320   1.691   7.724  0.4700  1.1650 -1.1186
  120OSM   H10T12651   3.421   1.556   7.657  0.6452  2.2833  1.3156
  120OSM   C11S12652   3.246   1.489   7.766 -0.5960  0.0393 -0.1166
  120OSM   H11S12653   3.234   1.389   7.719  2.7551 -0.4290 -0.2328
  120OSM   H11T12654   3.140   1.516   7.781 -0.4339 -0.6986  3.0784
  120OSM   C12S12655   3.325   1.469   7.900 -0.6442 -0.0087 -0.1708
  120OSM   H12S12656   3.316   1.572   7.941  0.9521  0.4135 -0.7826
  120OSM   H12T12657   3.434   1.449   7.886 -0.7446 -0.9371  0.3395
  120OSM   C13S12658   3.272   1.360   7.986  0.5965 -0.2958 -0.1285
  120OSM   H13S12659   3.278   1.260   7.939 -2.5094 -0.8668  0.5030
  120OSM   H13T12660   3.163   1.381   7.983  1.0394  2.4239 -0.0712
  120OSM   C14S12661   3.321   1.368   8.132 -0.1921 -0.4637 -0.6758
  120OSM   H14S12662   3.314   1.473   8.167  2.8471  0.0730 -1.3869
  120OSM   H14T12663   3.432   1.357   8.136  0.0739  1.6790 -0.9090
  120OSM   C15S12664   3.243   1.271   8.221 -0.7748  0.4432  0.2445
  120OSM   H15S12665   3.270   1.172   8.178  1.3210  0.5922  1.1047
  120OSM   H15T12666   3.138   1.295   8.195 -0.4970  0.1136 -1.2842
  120OSM   C16S12667   3.272   1.286   8.364  0.0515  0.1356 -0.3594
  120OSM   H16S12668   3.226   1.374   8.414  0.4199  0.2015 -0.1367
  120OSM   H16T12669   3.380   1.289   8.391  0.1104  2.6194 -0.6448
  120OSM   C17S12670   3.224   1.160   8.441  0.1328  0.3134  0.1902
  120OSM   H17S12671   3.254   1.080   8.370  0.4107 -0.6380  1.3466
  120OSM   H17T12672   3.113   1.157   8.447  0.1017 -1.9143 -0.3598
  120OSM   C18S12673   3.305   1.141   8.572  0.0185 -0.0109  0.0867
  120OSM   H18S12674   3.272   1.059   8.639  0.6240  0.2546  0.7327
  120OSM   H18T12675   3.284   1.232   8.632 -2.4027 -0.8605  0.6134
  120OSM   H18U12676   3.414   1.125   8.553  0.1292  0.4141  0.3377
  120OSM    C1F12677   3.238   1.392   6.767  0.1600 -0.1265  0.5035
  120OSM     OF12678   3.318   1.373   6.678 -0.2181 -0.2492  0.3080
  120OSM    C2F12679   3.173   1.288   6.839 -0.0327  0.0069  0.2127
  120OSM    H2F12680   3.203   1.188   6.800  0.3736 -0.1421  0.8915
  120OSM    H2G12681   3.062   1.291   6.848  0.0399  0.1351  1.1488
  120OSM    C3F12682   3.234   1.285   6.983  0.4037  0.6493  0.8120
  120OSM    H3F12683   3.218   1.385   7.029  1.7646  0.6976  1.2160
  120OSM    H3G12684   3.344   1.276   6.968  0.7449  1.9600  2.3184
  120OSM    C4F12685   3.184   1.178   7.077 -0.7029 -0.0675 -0.4516
  120OSM    H4F12686   3.216   1.080   7.036  3.7635  1.2218 -0.5376
  120OSM    H4G12687   3.073   1.180   7.074 -0.6749  1.1047 -2.5110
  120OSM    C5F12688   3.227   1.196   7.227  0.0791  0.4430  0.9122
  120OSM    H5F12689   3.194   1.297   7.261  1.2031  0.7240  1.2212
  120OSM    H5G12690   3.338   1.202   7.234  0.3520 -1.8737 -0.4844
  120OSM    C6F12691   3.170   1.082   7.314 -0.0125 -0.2159  0.5513
  120OSM    H6F12692   3.214   0.985   7.284  1.3509  0.4876  0.1804
  120OSM    H6G12693   3.060   1.078   7.301  0.2095  1.3081 -2.4844
  120OSM    C7F12694   3.206   1.112   7.459 -0.3931 -0.1909  0.3132
  120OSM    H7F12695   3.164   1.207   7.497 -2.0902 -0.8704  0.2500
  120OSM    H7G12696   3.316   1.117   7.449 -0.6595  2.5215 -3.1742
  120OSM    C8F12697   3.189   0.998   7.563 -0.2163 -0.2537 -0.2285
  120OSM    H8F12698   3.232   0.903   7.526 -0.6889 -1.1717  1.4788
  120OSM    H8G12699   3.085   0.972   7.590  0.1493 -1.1410  0.3502
  120OSM    C9F12700   3.256   1.047   7.693 -0.0638 -0.1611 -0.5256
  120OSM    H9F12701   3.203   1.118   7.758  0.0513  0.4580 -1.1006
  120OSM   C10F12702   3.383   1.017   7.736  0.0720  0.3388  0.2347
  120OSM   H10F12703   3.409   1.061   7.834  2.1306 -0.9089  0.3123
  120OSM   C11F12704   3.487   0.931   7.668  0.0390  0.5578 -0.0011
  120OSM   H11F12705   3.583   0.988   7.673  1.6379 -2.0797  2.0756
  120OSM   H11G12706   3.454   0.919   7.563 -2.3041  2.3808  0.4555
  120OSM   C12F12707   3.538   0.799   7.739 -0.7612 -0.1491  0.4778
  120OSM   H12F12708   3.625   0.765   7.680 -0.6902  1.6081 -0.5094
  120OSM   H12G12709   3.452   0.729   7.730 -1.2943  0.0820  2.9122
  120OSM   C13F12710   3.569   0.810   7.890 -0.0797  0.3835 -0.2006
  120OSM   H13F12711   3.494   0.860   7.956 -2.6013 -3.6623  0.3485
  120OSM   H13G12712   3.664   0.865   7.908  1.3227 -1.6104 -1.1408
  120OSM   C14F12713   3.606   0.676   7.965  0.1639 -0.4146 -0.4146
  120OSM   H14F12714   3.691   0.643   7.902  1.7331  1.1285  0.7681
  120OSM   H14G12715   3.524   0.602   7.952 -0.5792  0.2341  0.4384
  120OSM   C15F12716   3.628   0.672   8.117 -0.1488  0.0198  0.5759
  120OSM   H15F12717   3.680   0.767   8.144 -0.6123  0.6428 -0.6687
  120OSM   H15G12718   3.701   0.590   8.138 -0.2912 -0.5114 -0.9138
  120OSM   C16F12719   3.495   0.665   8.195  0.0096  0.6043 -0.3657
  120OSM   H16F12720   3.446   0.568   8.172  2.0627 -0.6504  0.2128
  120OSM   H16G12721   3.425   0.745   8.163 -1.7832 -1.3824 -1.7471
  120OSM   C17F12722   3.516   0.678   8.353 -0.1699 -0.7588 -0.2808
  120OSM   H17F12723   3.591   0.605   8.389 -0.4875 -0.9464  0.0061
  120OSM   H17G12724   3.427   0.647   8.412  0.5839 -2.6142 -0.0647
  120OSM   C18F12725   3.552   0.826   8.382  0.3659 -0.2465 -0.3291
  120OSM   H18F12726   3.467   0.896   8.392  0.7308 -0.1325  3.0293
  120OSM   H18G12727   3.627   0.867   8.311  2.6961  0.2196  2.2094
  120OSM   H18H12728   3.618   0.833   8.471 -0.0663 -0.7739  0.0397
  121OSM      N12729   5.858   1.519   5.827  0.2211 -0.0829  0.3743
  121OSM    C1512730   5.742   1.418   5.825  0.6483 -0.0443  0.0550
  121OSM   H15A12731   5.678   1.447   5.906 -0.2838  0.3308 -0.7904
  121OSM   H15B12732   5.780   1.317   5.828 -1.5165 -0.8973  0.8035
  121OSM   H15C12733   5.679   1.427   5.737 -0.4843  0.3892  0.8907
  121OSM    C1412734   5.949   1.490   5.710  0.3073  0.5749 -0.4830
  121OSM   H14A12735   5.998   1.397   5.736  0.9798  1.2326  0.7151
  121OSM   H14B12736   6.030   1.560   5.698  2.0496 -1.0937  0.9283
  121OSM   H14C12737   5.901   1.490   5.614 -0.5181 -0.4987 -0.0907
  121OSM    C1312738   5.799   1.655   5.814  0.0977 -0.5110 -0.5095
  121OSM   H13A12739   5.707   1.653   5.757  0.5659  0.1326 -1.3154
  121OSM   H13B12740   5.861   1.724   5.758 -2.0903  0.7345 -1.5180
  121OSM   H13C12741   5.777   1.696   5.911 -2.6528 -3.7401  0.4214
  121OSM    C1212742   5.939   1.508   5.957  0.1190 -0.4184  0.3548
  121OSM   H12A12743   6.019   1.581   5.960 -1.0316  0.9420 -0.6235
  121OSM   H12B12744   5.997   1.416   5.962  2.0095  0.7869  2.8403
  121OSM    C1112745   5.857   1.522   6.090 -0.4137 -0.3908  0.6800
  121OSM   H11A12746   5.916   1.493   6.179 -1.7096  1.9444  2.3897
  121OSM   H11B12747   5.775   1.447   6.079 -0.1742 -0.4265 -1.0816
  121OSM      P12748   5.892   1.772   6.169 -0.1496  0.1523  0.3168
  121OSM    O1312749   6.037   1.748   6.153 -0.3231 -0.4345 -0.3659
  121OSM    O1412750   5.828   1.896   6.123 -0.7367 -0.5869  0.0613
  121OSM    O1112751   5.862   1.768   6.323 -0.4478  0.1128  0.0109
  121OSM    O1212752   5.814   1.658   6.105  0.0051 -0.2630  0.0384
  121OSM    C1S12753   5.773   1.677   6.379  0.5214  0.6088  0.6326
  121OSM    H1S12754   5.816   1.576   6.362 -3.9163 -1.2011 -1.3615
  121OSM    H1T12755   5.670   1.672   6.338  0.3457  0.4648  1.0859
  121OSM     NF12756   5.667   1.594   6.592 -0.5664  0.1342  0.2433
  121OSM    HNF12757   5.575   1.618   6.622 -0.7384 -1.3391  0.9861
  121OSM    C2S12758   5.753   1.697   6.537 -0.2050  0.1115  0.2893
  121OSM    H2S12759   5.852   1.682   6.587 -0.3960 -0.0626  0.6227
  121OSM    C3S12760   5.710   1.847   6.563  0.3794 -0.5106 -0.4070
  121OSM    H3S12761   5.612   1.866   6.516 -0.0163 -1.8611 -0.1657
  121OSM     O312762   5.791   1.951   6.511  0.3397 -0.0612 -0.3300
  121OSM    HO312763   5.841   1.902   6.444 -0.2620 -1.1261 -0.0082
  121OSM    C4S12764   5.694   1.877   6.713 -0.3992 -0.3028  0.2785
  121OSM    H4S12765   5.588   1.891   6.740 -0.6211  0.4662 -0.9130
  121OSM    C5S12766   5.796   1.890   6.805  0.3539 -0.0389 -0.1157
  121OSM    H5S12767   5.895   1.866   6.762 -0.9489 -0.7646 -2.9770
  121OSM    C6S12768   5.797   1.922   6.956  0.0103 -0.0815 -0.2344
  121OSM    H6S12769   5.851   1.840   7.007  0.8446  0.4389 -0.2742
  121OSM    H6T12770   5.690   1.926   6.987  0.0049 -1.5140 -0.0112
  121OSM    C7S12771   5.860   2.055   6.974  0.1509 -0.3592 -0.8318
  121OSM    H7S12772   5.797   2.133   6.926 -1.9718 -3.0060 -2.7368
  121OSM    H7T12773   5.960   2.060   6.926  0.7509 -0.2386  0.3926
  121OSM    C8S12774   5.862   2.100   7.118 -0.2032  0.0929  0.5103
  121OSM    H8S12775   5.900   2.204   7.125  1.0159 -0.4062  2.0279
  121OSM    H8T12776   5.937   2.041   7.176  0.8103 -1.3735 -2.1270
  121OSM    C9S12777   5.729   2.099   7.198  0.0807  0.0938  0.5453
  121OSM    H9S12778   5.682   1.999   7.185 -0.2962  0.3892 -0.4747
  121OSM    H9T12779   5.664   2.185   7.171  0.0997 -0.2211 -0.5354
  121OSM   C10S12780   5.769   2.086   7.348  0.4500 -0.8329  0.2802
  121OSM   H10S12781   5.827   2.177   7.373 -0.3865  0.3963 -1.9630
  121OSM   H10T12782   5.821   1.988   7.359  0.2624 -0.9434  0.1972
  121OSM   C11S12783   5.646   2.089   7.439 -0.8359 -0.1771  0.2409
  121OSM   H11S12784   5.547   2.066   7.394 -1.5022 -0.6823  1.8923
  121OSM   H11T12785   5.651   2.193   7.479 -0.6947 -0.0773 -0.0360
  121OSM   C12S12786   5.666   2.008   7.571  1.2308  0.0934 -0.5861
  121OSM   H12S12787   5.676   1.900   7.549  0.4575 -0.5862  2.0972
  121OSM   H12T12788   5.573   2.019   7.630 -1.4832 -0.4427 -4.3936
  121OSM   C13S12789   5.787   2.061   7.650  0.1443 -0.4595 -0.7516
  121OSM   H13S12790   5.769   2.166   7.679 -2.9157 -1.2877  0.8956
  121OSM   H13T12791   5.876   2.054   7.584 -0.0061  1.1882 -1.1633
  121OSM   C14S12792   5.829   1.984   7.782 -0.7228  0.1533  0.0626
  121OSM   H14S12793   5.852   1.877   7.766  2.6242  0.7462  0.1866
  121OSM   H14T12794   5.740   1.989   7.848 -1.2004 -2.1443 -0.3402
  121OSM   C15S12795   5.956   2.046   7.842 -0.4068 -0.2724 -0.1138
  121OSM   H15S12796   5.952   2.157   7.837 -2.0064 -0.1814  1.7498
  121OSM   H15T12797   6.044   2.018   7.781 -0.9007 -1.7553 -0.1791
  121OSM   C16S12798   5.980   2.007   7.982  0.5003 -0.4612 -0.1297
  121OSM   H16S12799   5.903   2.040   8.055  1.6455 -1.7844  1.7601
  121OSM   H16T12800   6.074   2.057   8.014  0.4040 -1.0140  1.0512
  121OSM   C17S12801   6.007   1.855   8.003  0.4362  0.0579  0.5260
  121OSM   H17S12802   6.099   1.823   7.951  0.7703 -3.5291  2.9744
  121OSM   H17T12803   5.918   1.801   7.965  1.4125 -1.8257  0.7888
  121OSM   C18S12804   6.029   1.822   8.153 -0.2170 -0.3644  0.0101
  121OSM   H18S12805   6.125   1.858   8.196 -1.6784  1.7671  1.7016
  121OSM   H18T12806   6.025   1.712   8.163  0.7467 -0.2839  1.5465
  121OSM   H18U12807   5.942   1.860   8.211 -1.6317 -1.1380 -1.5122
  121OSM    C1F12808   5.698   1.466   6.590  0.0869 -0.3981 -0.4385
  121OSM     OF12809   5.807   1.430   6.543  0.1688  0.0987  0.1805
  121OSM    C2F12810   5.599   1.372   6.649  0.5840  0.7132  0.3804
  121OSM    H2F12811   5.655   1.280   6.678 -0.4104 -0.3287 -0.9068
  121OSM    H2G12812   5.540   1.340   6.561 -3.9189  1.6671  2.7478
  121OSM    C3F12813   5.508   1.405   6.765  0.2362  0.0527  1.1025
  121OSM    H3F12814   5.447   1.314   6.784  1.1311 -1.2252 -1.6457
  121OSM    H3G12815   5.439   1.480   6.721 -1.4969 -1.6197  0.8533
  121OSM    C4F12816   5.569   1.458   6.889 -1.0095 -0.1496  0.0406
  121OSM    H4F12817   5.618   1.557   6.876 -3.9310  1.6507  1.7014
  121OSM    H4G12818   5.652   1.389   6.916 -1.9739 -1.4154 -0.1442
  121OSM    C5F12819   5.483   1.476   7.019 -0.1757 -0.4513  0.4032
  121OSM    H5F12820   5.443   1.377   7.050  0.9661 -3.1013 -5.2896
  121OSM    H5G12821   5.410   1.553   6.985  0.8353 -0.1153 -1.1125
  121OSM    C6F12822   5.564   1.552   7.125  0.8910  0.0127 -0.5474
  121OSM    H6F12823   5.639   1.618   7.077  0.3977  0.2427 -1.0133
  121OSM    H6G12824   5.627   1.478   7.178  0.0996 -1.0393 -1.0141
  121OSM    C7F12825   5.472   1.627   7.218 -0.1697  0.1760  0.3248
  121OSM    H7F12826   5.379   1.567   7.230  0.2692 -0.6386 -0.2751
  121OSM    H7G12827   5.441   1.723   7.172 -1.5255  0.2273  1.2899
  121OSM    C8F12828   5.525   1.671   7.355  0.5212  0.8715 -0.6069
  121OSM    H8F12829   5.445   1.726   7.409  2.0374 -0.3043  3.1922
  121OSM    H8G12830   5.610   1.743   7.347  1.5535 -0.2450 -0.0691
  121OSM    C9F12831   5.565   1.564   7.451  0.7571 -0.0048  0.3194
  121OSM    H9F12832   5.620   1.488   7.394 -2.5430 -3.1349  0.9779
  121OSM   C10F12833   5.523   1.535   7.577 -0.1310 -0.5046  0.8183
  121OSM   H10F12834   5.562   1.444   7.625  1.4542  0.4446  1.4130
  121OSM   C11F12835   5.435   1.609   7.666  0.2906 -1.1363  0.0856
  121OSM   H11F12836   5.340   1.566   7.704  0.5423 -2.1827 -0.4319
  121OSM   H11G12837   5.400   1.702   7.617 -3.1464 -1.1702  2.1349
  121OSM   C12F12838   5.509   1.642   7.798 -0.6267  0.0979 -0.0167
  121OSM   H12F12839   5.613   1.675   7.777 -0.9587  0.3911 -1.2900
  121OSM   H12G12840   5.516   1.546   7.854  0.7836  0.1855 -0.0138
  121OSM   C13F12841   5.430   1.738   7.878 -0.6566  0.0478 -0.1245
  121OSM   H13F12842   5.325   1.702   7.884 -0.0195 -1.6021  2.3379
  121OSM   H13G12843   5.428   1.841   7.836 -1.1232 -0.1782 -0.6738
  121OSM   C14F12844   5.467   1.743   8.024 -0.4110 -0.5397  0.1824
  121OSM   H14F12845   5.464   1.641   8.067  1.0066 -0.8622 -0.4015
  121OSM   H14G12846   5.395   1.811   8.074 -1.3670 -0.9922 -0.5464
  121OSM   C15F12847   5.610   1.800   8.069  0.4173 -0.6423  0.3728
  121OSM   H15F12848   5.630   1.902   8.030 -1.1112 -0.0725  1.0049
  121OSM   H15G12849   5.692   1.740   8.025 -0.0519  1.7626 -4.4788
  121OSM   C16F12850   5.624   1.798   8.217 -0.6745  0.2818  0.0082
  121OSM   H16F12851   5.731   1.795   8.244 -0.4145 -0.1017 -1.0278
  121OSM   H16G12852   5.564   1.716   8.262 -0.5197  0.2847  0.2228
  121OSM   C17F12853   5.577   1.935   8.268  0.0205 -0.2724  0.1534
  121OSM   H17F12854   5.478   1.953   8.221 -1.8857 -3.1128  2.6880
  121OSM   H17G12855   5.645   2.015   8.232 -0.5902 -0.2398 -0.9721
  121OSM   C18F12856   5.561   1.938   8.418  0.6842  0.3294  0.8574
  121OSM   H18F12857   5.508   2.026   8.459  0.1901  0.5379 -0.1869
  121OSM   H18G12858   5.663   1.938   8.461  0.5720 -0.3437  1.1429
  121OSM   H18H12859   5.517   1.843   8.457 -0.4104  0.8437  0.9124
  122OSM      N12860   3.219   4.269   5.868  0.1484 -0.1718  1.0476
  122OSM    C1512861   3.343   4.287   5.794  0.2017 -0.0034  0.2787
  122OSM   H15A12862   3.426   4.280   5.862 -0.3889 -0.2359  0.9887
  122OSM   H15B12863   3.342   4.385   5.747  3.2888 -0.6279 -1.3605
  122OSM   H15C12864   3.355   4.215   5.715 -2.9934 -2.5839  1.9316
  122OSM    C1412865   3.095   4.291   5.774 -0.4617  0.5970  0.3870
  122OSM   H14A12866   3.005   4.286   5.834  1.1554  2.0202  3.1573
  122OSM   H14B12867   3.107   4.214   5.699 -0.3109  0.6343  0.3722
  122OSM   H14C12868   3.107   4.386   5.725  0.6162  0.6106  0.6385
  122OSM    C1312869   3.214   4.121   5.912 -0.6807 -0.0021  0.3409
  122OSM   H13A12870   3.220   4.050   5.831 -0.6289 -2.6817  2.5393
  122OSM   H13B12871   3.132   4.103   5.980 -0.9895 -0.2007 -0.0779
  122OSM   H13C12872   3.295   4.096   5.979 -2.0599  0.3534  2.2341
  122OSM    C1212873   3.213   4.360   5.987  0.8029  0.1159  0.0821
  122OSM   H12A12874   3.123   4.344   6.044  0.7279 -0.9281 -0.3106
  122OSM   H12B12875   3.209   4.466   5.966  0.8297  0.2805  0.9104
  122OSM    C1112876   3.325   4.341   6.095  0.3125  0.4468 -0.5531
  122OSM   H11A12877   3.326   4.232   6.117  2.1034  0.5650  0.0995
  122OSM   H11B12878   3.295   4.390   6.190  0.0978  0.4567 -0.6266
  122OSM      P12879   3.471   4.546   6.040 -0.0690 -0.0117  0.3213
  122OSM    O1312880   3.571   4.583   5.933 -0.1260  0.0727 -0.0842
  122OSM    O1412881   3.341   4.607   6.013  0.4965 -0.6414  0.0323
  122OSM    O1112882   3.513   4.582   6.184 -0.1041  0.3793  0.0286
  122OSM    O1212883   3.452   4.391   6.057 -0.1366  0.3310  0.4809
  122OSM    C1S12884   3.580   4.503   6.284  0.0494  0.5226 -0.0922
  122OSM    H1S12885   3.683   4.474   6.253  0.7083  0.6914  1.8063
  122OSM    H1T12886   3.527   4.410   6.310  2.6244 -0.5842  1.5997
  122OSM     NF12887   3.692   4.494   6.504 -0.2716  0.1147 -0.3843
  122OSM    HNF12888   3.676   4.432   6.581  0.0900  1.3190  0.6978
  122OSM    C2S12889   3.589   4.564   6.426 -0.5734 -0.6806  0.6834
  122OSM    H2S12890   3.621   4.668   6.402 -0.5271 -1.1598 -1.5404
  122OSM    C3S12891   3.445   4.572   6.487  0.0715 -0.4908  0.7304
  122OSM    H3S12892   3.411   4.467   6.501 -2.0251 -0.0789 -0.7254
  122OSM     O312893   3.352   4.619   6.397 -0.3354  0.0067 -0.4516
  122OSM    HO312894   3.388   4.612   6.308 -1.4647 -1.4918 -0.8543
  122OSM    C4S12895   3.448   4.636   6.619 -0.7885 -0.7175  0.8477
  122OSM    H4S12896   3.532   4.707   6.622 -1.8164  0.6727 -0.9615
  122OSM    C5S12897   3.381   4.603   6.728  0.7262  0.8982 -1.3552
  122OSM    H5S12898   3.309   4.519   6.731  0.8504  0.8312  1.0617
  122OSM    C6S12899   3.398   4.667   6.860 -0.4928 -0.5393  0.1933
  122OSM    H6S12900   3.414   4.595   6.943  2.7376 -0.4152 -0.2033
  122OSM    H6T12901   3.307   4.727   6.881  1.1490  2.4256 -0.4841
  122OSM    C7S12902   3.504   4.782   6.869 -0.4111  0.6350  0.6765
  122OSM    H7S12903   3.479   4.846   6.781 -1.1075  0.6197  0.8579
  122OSM    H7T12904   3.605   4.742   6.848 -1.3324 -0.5606 -1.8377
  122OSM    C8S12905   3.497   4.853   7.006  0.1073  0.1144  0.0511
  122OSM    H8S12906   3.389   4.842   7.032 -0.3166 -1.5772 -2.1738
  122OSM    H8T12907   3.501   4.962   6.985  1.4366  0.4881  1.9854
  122OSM    C9S12908   3.594   4.794   7.114  0.1100  0.3565 -0.3910
  122OSM    H9S12909   3.699   4.790   7.079  0.4093 -1.1748  0.6165
  122OSM    H9T12910   3.556   4.691   7.129 -1.5734  0.9543 -0.3239
  122OSM   C10S12911   3.558   4.868   7.241 -0.1254  0.3384  0.2077
  122OSM   H10S12912   3.459   4.834   7.277 -0.3822  0.1157 -0.6655
  122OSM   H10T12913   3.556   4.976   7.214  0.3077  0.1466 -0.6639
  122OSM   C11S12914   3.658   4.837   7.352  0.0625  0.2806 -0.9557
  122OSM   H11S12915   3.767   4.848   7.334  0.7670 -1.1945  1.7886
  122OSM   H11T12916   3.652   4.727   7.369 -1.4349  0.4429 -0.2023
  122OSM   C12S12917   3.637   4.918   7.487  0.7222 -0.6106 -0.0539
  122OSM   H12S12918   3.530   4.901   7.513  0.7436  0.8088  1.1267
  122OSM   H12T12919   3.659   5.024   7.459  0.8483 -0.5644  0.2201
  122OSM   C13S12920   3.732   4.889   7.601  0.0386 -0.2310 -0.4209
  122OSM   H13S12921   3.836   4.878   7.564  0.2624  1.9212 -0.5777
  122OSM   H13T12922   3.699   4.797   7.655  0.7861 -0.4513 -0.3355
  122OSM   C14S12923   3.740   5.007   7.696  0.0120  0.2920 -0.5104
  122OSM   H14S12924   3.641   5.046   7.728  0.0569  1.1272 -1.3566
  122OSM   H14T12925   3.800   5.078   7.635  0.2145 -0.1204 -0.7939
  122OSM   C15S12926   3.811   4.983   7.833  0.5280  0.7771 -0.4847
  122OSM   H15S12927   3.815   5.084   7.881 -1.1071  1.2524 -1.2746
  122OSM   H15T12928   3.919   4.959   7.823  0.2535 -0.3764 -0.7812
  122OSM   C16S12929   3.751   4.869   7.924 -0.7757 -0.1409  0.5594
  122OSM   H16S12930   3.735   4.783   7.856  0.0808  0.4702 -0.4467
  122OSM   H16T12931   3.650   4.910   7.942  0.5531  2.8693  1.9801
  122OSM   C17S12932   3.837   4.837   8.051  0.5785  0.0522 -0.0835
  122OSM   H17S12933   3.937   4.796   8.022  1.6184  1.3270  1.4791
  122OSM   H17T12934   3.780   4.763   8.111 -2.0461  3.5357  2.1516
  122OSM   C18S12935   3.857   4.962   8.138  0.2143 -0.2809 -0.0469
  122OSM   H18S12936   3.922   5.036   8.086 -0.1044 -0.3494 -0.5412
  122OSM   H18T12937   3.896   4.935   8.239  2.0650 -1.4910 -1.0298
  122OSM   H18U12938   3.752   4.996   8.147  0.6223  0.6918  1.6366
  122OSM    C1F12939   3.814   4.507   6.465 -0.8769  0.6990 -0.4728
  122OSM     OF12940   3.844   4.598   6.390 -0.4601 -0.0285  0.3705
  122OSM    C2F12941   3.912   4.403   6.518  0.4765 -0.1658 -0.7321
  122OSM    H2F12942   3.914   4.315   6.450  2.9805 -0.9272  0.1800
  122OSM    H2G12943   3.872   4.378   6.619 -1.7997  0.5847 -1.3922
  122OSM    C3F12944   4.058   4.456   6.533  0.8372  0.0887  0.7743
  122OSM    H3F12945   4.098   4.490   6.435  1.9538  1.9659  1.8279
  122OSM    H3G12946   4.127   4.375   6.563 -0.7188 -1.4691  0.3113
  122OSM    C4F12947   4.085   4.578   6.621 -0.0244 -0.5064 -0.9323
  122OSM    H4F12948   4.009   4.654   6.594 -0.4012 -0.4021  0.3459
  122OSM    H4G12949   4.185   4.609   6.586 -0.1183 -0.3747 -1.0856
  122OSM    C5F12950   4.084   4.547   6.777 -0.0275  0.3261  0.6690
  122OSM    H5F12951   4.145   4.458   6.803 -1.7910 -1.9940 -2.4808
  122OSM    H5G12952   3.980   4.520   6.802  0.8777 -2.5639  1.7379
  122OSM    C6F12953   4.116   4.674   6.854 -0.0072  0.7211  0.4169
  122OSM    H6F12954   4.048   4.747   6.807  1.4054  1.9183  0.1712
  122OSM    H6G12955   4.218   4.712   6.830 -0.8559  1.1141 -3.0811
  122OSM    C7F12956   4.083   4.668   7.000 -0.4097  0.0343  0.2722
  122OSM    H7F12957   3.975   4.657   7.024 -0.4540  1.8662  1.0505
  122OSM    H7G12958   4.111   4.769   7.038 -1.3512  1.5882 -2.7925
  122OSM    C8F12959   4.162   4.568   7.076 -0.0148  0.3296  0.6914
  122OSM    H8F12960   4.127   4.473   7.030  1.0509  0.1258  0.2655
  122OSM    H8G12961   4.125   4.564   7.181 -1.9935 -0.3146  0.0274
  122OSM    C9F12962   4.311   4.576   7.058 -0.0337  0.0003  0.4781
  122OSM    H9F12963   4.350   4.608   6.960 -0.5197  0.3309  0.3886
  122OSM   C10F12964   4.406   4.544   7.147  0.2002 -0.2478 -0.1149
  122OSM   H10F12965   4.510   4.543   7.113  0.0085 -1.2595 -0.6900
  122OSM   C11F12966   4.388   4.491   7.285 -0.3096 -0.0298 -0.5244
  122OSM   H11F12967   4.302   4.421   7.296 -1.2352  0.3067 -4.1618
  122OSM   H11G12968   4.361   4.571   7.358  0.2488 -2.5458  2.6862
  122OSM   C12F12969   4.514   4.416   7.327 -0.6189  0.2435 -0.3570
  122OSM   H12F12970   4.588   4.497   7.345  0.2447 -0.3541 -1.0971
  122OSM   H12G12971   4.544   4.341   7.251 -0.1767 -0.1734  0.2198
  122OSM   C13F12972   4.484   4.335   7.456  0.0873  0.4543 -0.6566
  122OSM   H13F12973   4.409   4.258   7.429  0.5335  0.7535 -2.9085
  122OSM   H13G12974   4.431   4.410   7.519  0.9258 -1.0699  2.0553
  122OSM   C14F12975   4.601   4.281   7.531 -0.7944  0.2056 -0.0985
  122OSM   H14F12976   4.665   4.363   7.569  2.0563 -1.9674  0.1509
  122OSM   H14G12977   4.663   4.232   7.453 -1.2168  1.2748 -1.1311
  122OSM   C15F12978   4.589   4.173   7.638  0.1074 -0.5108  0.5792
  122OSM   H15F12979   4.689   4.157   7.683  1.1451  2.5611 -0.3378
  122OSM   H15G12980   4.547   4.086   7.583 -0.8338 -0.9975  1.9976
  122OSM   C16F12981   4.478   4.206   7.746  0.4166 -0.1365  0.7867
  122OSM   H16F12982   4.377   4.176   7.711  0.2357  1.4200 -0.1193
  122OSM   H16G12983   4.472   4.316   7.760 -1.1604 -0.1322  0.2594
  122OSM   C17F12984   4.524   4.157   7.882  0.0040  0.4075 -0.1196
  122OSM   H17F12985   4.617   4.204   7.921 -0.9507  1.6837  0.6804
  122OSM   H17G12986   4.550   4.050   7.863 -0.1215  0.2093  0.7689
  122OSM   C18F12987   4.414   4.160   7.986 -0.0548  0.0435 -0.7291
  122OSM   H18F12988   4.379   4.265   7.997  2.4451  1.0901 -2.1252
  122OSM   H18G12989   4.451   4.119   8.082 -0.6015 -0.5012 -0.7369
  122OSM   H18H12990   4.335   4.089   7.952 -1.3307 -0.4055  2.7313
  123OSM      N12991   1.966   1.119   6.045 -0.9850 -0.1761  0.1593
  123OSM    C1512992   1.921   0.980   6.012 -0.2251  0.7406 -0.2911
  123OSM   H15A12993   1.948   0.917   6.094  2.5652  2.1966  0.0180
  123OSM   H15B12994   1.953   0.942   5.916 -0.9020  0.0604 -0.2585
  123OSM   H15C12995   1.814   0.970   5.998 -0.1305 -2.5148  0.5834
  123OSM    C1412996   2.114   1.118   6.076  0.1357 -0.2086 -0.5643
  123OSM   H14A12997   2.156   1.074   5.987 -1.5747 -1.2394 -0.8968
  123OSM   H14B12998   2.144   1.053   6.157 -1.3469 -0.7179 -0.3886
  123OSM   H14C12999   2.155   1.217   6.092  1.9026 -1.0277  0.3163
  123OSM    C1313000   1.941   1.214   5.932 -0.5237  0.2677  0.0810
  123OSM   H13A13001   1.964   1.313   5.970 -1.5502  0.1290  1.1210
  123OSM   H13B13002   1.838   1.200   5.904 -0.7138  0.8925  0.4296
  123OSM   H13C13003   1.994   1.185   5.843 -0.6707 -0.7447  0.3171
  123OSM    C1213004   1.883   1.166   6.161 -0.4625 -0.2988  0.5728
  123OSM   H12A13005   1.781   1.172   6.128 -0.1929  2.6118 -0.0250
  123OSM   H12B13006   1.921   1.267   6.170  0.7768 -0.4093 -2.3445
  123OSM    C1113007   1.902   1.087   6.286 -0.3218 -0.2035 -0.2035
  123OSM   H11A13008   1.855   0.987   6.277 -0.5078 -0.3433  1.8369
  123OSM   H11B13009   1.838   1.131   6.366  0.1451  0.0751  0.0271
  123OSM      P13010   2.121   1.168   6.422  0.0432  0.3716 -0.2739
  123OSM    O1313011   2.248   1.106   6.470  0.0640  0.5221  0.1410
  123OSM    O1413012   2.131   1.303   6.360 -0.3999 -0.6435  0.1427
  123OSM    O1113013   2.016   1.173   6.537  0.0718 -0.1392  0.0607
  123OSM    O1213014   2.041   1.065   6.325  0.1538  0.0577  0.3504
  123OSM    C1S13015   1.993   1.058   6.621 -0.0318 -0.4062 -0.0653
  123OSM    H1S13016   2.088   1.016   6.661  0.5851  1.5168  0.6023
  123OSM    H1T13017   1.947   0.981   6.556  1.9439 -0.5552 -1.4042
  123OSM     NF13018   1.864   0.960   6.803  0.0580 -0.2333 -0.4714
  123OSM    HNF13019   1.774   0.917   6.800  1.3773 -3.2143 -1.2195
  123OSM    C2S13020   1.892   1.084   6.731  0.5710 -0.3300  0.2415
  123OSM    H2S13021   1.938   1.165   6.792  1.6599  0.8990 -2.0761
  123OSM    C3S13022   1.760   1.161   6.673 -0.5573 -0.6084 -0.2640
  123OSM    H3S13023   1.716   1.101   6.590 -1.2845 -0.7688  0.2380
  123OSM     O313024   1.781   1.285   6.605  0.2766 -0.2142  0.4840
  123OSM    HO313025   1.870   1.275   6.569  0.1216  0.1510  0.0035
  123OSM    C4S13026   1.655   1.178   6.780  0.1638  0.7867  0.0379
  123OSM    H4S13027   1.563   1.123   6.754  0.8720 -0.5140  0.2179
  123OSM    C5S13028   1.648   1.271   6.878  0.2723 -1.1246 -0.1269
  123OSM    H5S13029   1.728   1.346   6.887 -0.5801  0.1551 -2.4247
  123OSM    C6S13030   1.536   1.294   6.973 -0.5983  0.3864 -0.1136
  123OSM    H6S13031   1.441   1.239   6.957 -0.1433 -0.3200 -0.4236
  123OSM    H6T13032   1.514   1.403   6.974  0.2267  0.5667 -0.7192
  123OSM    C7S13033   1.587   1.259   7.116  0.2391 -0.2807  0.7196
  123OSM    H7S13034   1.600   1.150   7.136  0.5201 -0.3582  0.1230
  123OSM    H7T13035   1.523   1.295   7.199  0.3414  0.3279  0.5386
  123OSM    C8S13036   1.723   1.319   7.151 -0.1902  0.7447 -0.4020
  123OSM    H8S13037   1.724   1.429   7.139 -2.1256  0.7515 -0.7878
  123OSM    H8T13038   1.805   1.271   7.093 -1.1441  0.1862 -1.3243
  123OSM    C9S13039   1.753   1.285   7.301 -0.0775  0.3621  0.2508
  123OSM    H9S13040   1.715   1.186   7.333  0.3075  0.0835 -0.1502
  123OSM    H9T13041   1.699   1.368   7.352 -0.9068 -0.0866  0.1251
  123OSM   C10S13042   1.898   1.284   7.346  0.7716 -0.0517 -0.1185
  123OSM   H10S13043   1.948   1.377   7.311 -1.7419  2.8093  3.1242
  123OSM   H10T13044   1.944   1.192   7.304  1.1571 -1.2273  2.6308
  123OSM   C11S13045   1.908   1.276   7.494 -0.0846  0.8160  0.1144
  123OSM   H11S13046   2.005   1.232   7.527 -0.6338 -0.6802 -0.1834
  123OSM   H11T13047   1.832   1.212   7.544  1.4131  0.8371  2.6169
  123OSM   C12S13048   1.900   1.415   7.557  0.6454  0.1613  0.1547
  123OSM   H12S13049   1.797   1.447   7.529  0.9750  0.1757 -1.0876
  123OSM   H12T13050   1.974   1.482   7.508 -0.8154  0.5139 -1.6876
  123OSM   C13S13051   1.918   1.423   7.712 -0.0638  0.4987 -0.5147
  123OSM   H13S13052   1.929   1.531   7.738  2.1983  0.7057 -2.0337
  123OSM   H13T13053   2.018   1.377   7.730 -0.2937  0.3536  0.4568
  123OSM   C14S13054   1.822   1.342   7.798 -0.5505  0.1907 -0.5168
  123OSM   H14S13055   1.804   1.237   7.768  3.7718 -1.6585  2.3175
  123OSM   H14T13056   1.726   1.398   7.798 -0.0664  1.0538 -1.5530
  123OSM   C15S13057   1.852   1.328   7.957  0.0079  0.3359 -0.7259
  123OSM   H15S13058   1.757   1.320   8.013 -0.2626 -1.4385 -1.3781
  123OSM   H15T13059   1.907   1.419   7.991 -1.9384  0.5272  2.1568
  123OSM   C16S13060   1.950   1.216   7.987  0.1040 -0.0521 -0.4690
  123OSM   H16S13061   2.041   1.224   7.924 -0.3060  0.8297 -0.9759
  123OSM   H16T13062   1.904   1.121   7.952  1.0226 -0.0806 -1.6730
  123OSM   C17S13063   1.997   1.208   8.133  0.0100  0.1767  0.1111
  123OSM   H17S13064   2.054   1.302   8.150 -1.0216  0.9677 -0.6384
  123OSM   H17T13065   2.073   1.130   8.149  1.2205  1.2382 -0.3127
  123OSM   C18S13066   1.893   1.191   8.244  0.2625  0.0658 -0.0250
  123OSM   H18S13067   1.807   1.135   8.202 -0.1159 -0.2628  1.1561
  123OSM   H18T13068   1.846   1.288   8.271 -1.7006 -0.5947 -0.8754
  123OSM   H18U13069   1.933   1.133   8.331 -1.1569 -2.2545 -0.8242
  123OSM    C1F13070   1.950   0.886   6.870  0.8782 -0.5977 -0.1910
  123OSM     OF13071   2.069   0.922   6.876 -0.4230  0.2427 -0.1541
  123OSM    C2F13072   1.905   0.757   6.933 -0.6103  0.0014  0.1416
  123OSM    H2F13073   1.987   0.720   6.998 -0.3705 -0.3014 -0.3203
  123OSM    H2G13074   1.915   0.682   6.851 -1.4994  0.4801 -0.4186
  123OSM    C3F13075   1.781   0.761   7.017 -0.5646  0.0031  0.5250
  123OSM    H3F13076   1.745   0.656   7.018 -1.1135  0.1915  1.3631
  123OSM    H3G13077   1.698   0.815   6.967 -0.3553  0.0941  0.2684
  123OSM    C4F13078   1.800   0.823   7.155 -0.4897  1.0411  0.0655
  123OSM    H4F13079   1.712   0.823   7.222  0.6700  0.9414  1.6424
  123OSM    H4G13080   1.827   0.931   7.146  0.3139  0.8503  0.1271
  123OSM    C5F13081   1.906   0.760   7.250 -0.3723 -0.1689  0.5363
  123OSM    H5F13082   2.006   0.735   7.207  0.4413  1.9576  1.0604
  123OSM    H5G13083   1.855   0.670   7.290  0.8669 -0.2082  2.1195
  123OSM    C6F13084   1.927   0.841   7.380  0.3684  0.1289  0.1939
  123OSM    H6F13085   1.836   0.852   7.442  0.4347 -1.5709  0.6373
  123OSM    H6G13086   1.954   0.943   7.342  1.7666 -0.7474 -1.2934
  123OSM    C7F13087   2.048   0.775   7.453 -0.2320  0.4638 -0.9224
  123OSM    H7F13088   2.147   0.819   7.428 -0.5010  0.5338 -1.9105
  123OSM    H7G13089   2.045   0.667   7.426 -0.3590 -0.2721  1.8027
  123OSM    C8F13090   2.048   0.783   7.603  1.3222  0.2360 -0.4294
  123OSM    H8F13091   2.121   0.724   7.663  0.8398  0.3839  0.3161
  123OSM    H8G13092   1.948   0.744   7.632  0.9830  0.7157 -0.9417
  123OSM    C9F13093   2.060   0.919   7.655  0.4486 -0.3333  0.0030
  123OSM    H9F13094   1.988   0.989   7.610  1.1520 -0.5351 -1.5032
  123OSM   C10F13095   2.158   0.965   7.733  0.1518  0.0337 -0.2792
  123OSM   H10F13096   2.152   1.067   7.772 -1.1715  0.1121 -0.6573
  123OSM   C11F13097   2.279   0.887   7.782  0.4992 -0.2991 -0.3623
  123OSM   H11F13098   2.334   0.854   7.691  0.2894  1.6613 -1.2658
  123OSM   H11G13099   2.251   0.791   7.829 -0.0021 -0.7283 -1.4943
  123OSM   C12F13100   2.380   0.955   7.875 -0.0863 -0.6454 -0.1290
  123OSM   H12F13101   2.400   1.061   7.848  0.2776 -0.5970  0.3197
  123OSM   H12G13102   2.475   0.900   7.860 -0.4466 -1.6984  1.2213
  123OSM   C13F13103   2.340   0.964   8.020  0.2359  0.3657  0.0129
  123OSM   H13F13104   2.302   0.861   8.038  0.0482  0.3310 -0.5427
  123OSM   H13G13105   2.262   1.043   8.024  1.0207  1.1107  0.9144
  123OSM   C14F13106   2.460   0.997   8.114  0.7482 -0.2760 -0.5620
  123OSM   H14F13107   2.537   0.921   8.085  0.0970 -1.9821  1.8533
  123OSM   H14G13108   2.439   0.954   8.214  3.1369 -0.4419 -0.0615
  123OSM   C15F13109   2.505   1.140   8.111 -0.3730 -0.5391 -0.1437
  123OSM   H15F13110   2.446   1.200   8.039  0.7965  1.1710  0.2658
  123OSM   H15G13111   2.614   1.134   8.094 -0.1920 -1.2032  1.1403
  123OSM   C16F13112   2.505   1.217   8.243  0.5982 -0.4631 -0.1377
  123OSM   H16F13113   2.575   1.303   8.247 -1.4835  1.2897  2.2614
  123OSM   H16G13114   2.537   1.145   8.321  0.4394  0.8140  1.1447
  123OSM   C17F13115   2.368   1.275   8.275  0.3822 -0.0536  0.2924
  123OSM   H17F13116   2.290   1.196   8.271  2.1078 -1.8140  0.1403
  123OSM   H17G13117   2.343   1.350   8.197  2.7948 -0.2559 -0.7413
  123OSM   C18F13118   2.353   1.339   8.411  0.0949 -0.1285 -0.2232
  123OSM   H18F13119   2.423   1.426   8.412  0.4228 -0.3947  0.0392
  123OSM   H18G13120   2.388   1.262   8.483 -0.3602 -0.2591 -0.1405
  123OSM   H18H13121   2.250   1.372   8.437  0.5402 -0.8176  2.8265
  124OSM      N13122   3.961   2.998   6.410 -0.6814 -0.5837 -0.7821
  124OSM    C1513123   3.898   3.086   6.299 -0.3045  0.1204  0.3278
  124OSM   H15A13124   3.903   3.044   6.200  0.2130 -0.9702  0.8015
  124OSM   H15B13125   3.953   3.179   6.292 -0.9972  0.7721  2.6072
  124OSM   H15C13126   3.794   3.099   6.323 -0.0359  0.7457  1.2060
  124OSM    C1413127   4.105   2.988   6.382  0.2238 -0.3085 -0.8501
  124OSM   H14A13128   4.160   3.081   6.395  1.8744 -1.2183 -1.0572
  124OSM   H14B13129   4.112   2.954   6.280 -1.0178 -0.7321 -0.8006
  124OSM   H14C13130   4.150   2.915   6.448  0.1440  1.3441  1.1517
  124OSM    C1313131   3.944   3.064   6.544 -0.5993  0.0159  0.4123
  124OSM   H13A13132   3.839   3.079   6.565 -0.7734  0.7439 -0.8625
  124OSM   H13B13133   3.988   3.162   6.547 -0.6571  0.1107 -1.0631
  124OSM   H13C13134   4.001   3.012   6.620 -0.5472 -0.1136  0.2870
  124OSM    C1213135   3.898   2.859   6.393 -0.5182 -0.2885  1.2067
  124OSM   H12A13136   3.942   2.836   6.296 -0.6920  1.3366  0.7059
  124OSM   H12B13137   3.791   2.874   6.386 -0.3261  0.5183 -2.2179
  124OSM    C1113138   3.931   2.741   6.485 -0.4747  0.9590  0.6560
  124OSM   H11A13139   3.855   2.660   6.491  1.1389 -0.5223  2.0776
  124OSM   H11B13140   3.936   2.783   6.587  2.8433 -0.4265  1.1985
  124OSM      P13141   4.107   2.612   6.331  0.1180  0.0187  0.1900
  124OSM    O1313142   3.994   2.555   6.268 -0.1497 -0.1673  0.7709
  124OSM    O1413143   4.186   2.696   6.240  0.2687  0.4983  0.1237
  124OSM    O1113144   4.205   2.503   6.398 -0.0814  0.0902 -0.0014
  124OSM    O1213145   4.065   2.695   6.458  0.0074  0.3031  0.1133
  124OSM    C1S13146   4.318   2.557   6.470  0.0090  0.0244  0.1224
  124OSM    H1S13147   4.337   2.665   6.449  1.2962  0.0360  1.2780
  124OSM    H1T13148   4.409   2.501   6.443  1.8761  2.8312  0.1506
  124OSM     NF13149   4.430   2.571   6.689 -0.1058  0.2932  0.1566
  124OSM    HNF13150   4.482   2.496   6.730 -0.2048  1.0407  1.7126
  124OSM    C2S13151   4.313   2.524   6.621 -0.3164 -0.7710 -0.4298
  124OSM    H2S13152   4.224   2.583   6.653  0.4864 -0.2069  0.8034
  124OSM    C3S13153   4.285   2.371   6.647  0.4647 -0.3111  0.1048
  124OSM    H3S13154   4.365   2.314   6.596 -0.9000 -2.0382 -0.1878
  124OSM     O313155   4.173   2.324   6.574 -0.4645 -0.3024 -0.6363
  124OSM    HO313156   4.164   2.397   6.512  3.3906  1.4267  0.4923
  124OSM    C4S13157   4.255   2.348   6.793  0.4014  0.3319  0.0124
  124OSM    H4S13158   4.148   2.366   6.812 -0.6833 -2.4722 -2.6313
  124OSM    C5S13159   4.333   2.289   6.882 -1.0655 -0.9640  0.5304
  124OSM    H5S13160   4.432   2.254   6.851 -0.1948  2.6257 -1.2040
  124OSM    C6S13161   4.296   2.256   7.025 -0.0076  0.3675  0.1191
  124OSM    H6S13162   4.369   2.303   7.095  2.2142 -0.5139 -1.4884
  124OSM    H6T13163   4.307   2.147   7.041 -1.6759 -0.0226 -1.2400
  124OSM    C7S13164   4.157   2.292   7.090 -0.0346 -0.1299  0.3305
  124OSM    H7S13165   4.080   2.234   7.036  0.3087  0.3845 -0.7505
  124OSM    H7T13166   4.120   2.395   7.069  1.6603  0.6083  0.7413
  124OSM    C8S13167   4.151   2.277   7.246 -0.5532 -0.2798  0.4894
  124OSM    H8S13168   4.236   2.336   7.287 -0.0816 -0.5644 -0.0692
  124OSM    H8T13169   4.175   2.172   7.274  1.2340  0.1852  0.7950
  124OSM    C9S13170   4.015   2.326   7.304 -0.5107 -0.0007 -0.0607
  124OSM    H9S13171   3.932   2.272   7.252  0.3420 -0.3343 -1.1092
  124OSM    H9T13172   3.995   2.433   7.284 -2.2208 -0.5223 -1.4409
  124OSM   C10S13173   4.007   2.317   7.458  0.0599  0.5937  0.0503
  124OSM   H10S13174   4.086   2.376   7.510  1.2811 -0.0478 -1.0110
  124OSM   H10T13175   4.023   2.214   7.495 -0.4188 -0.1200 -1.6550
  124OSM   C11S13176   3.878   2.380   7.518 -0.0072 -0.0275  0.2281
  124OSM   H11S13177   3.794   2.336   7.460  1.0925  0.3812 -1.7729
  124OSM   H11T13178   3.872   2.488   7.494  0.3642 -0.3723 -1.5298
  124OSM   C12S13179   3.869   2.362   7.670  0.5361 -0.6651  0.1133
  124OSM   H12S13180   3.956   2.408   7.722  0.1359  0.9652 -0.5867
  124OSM   H12T13181   3.863   2.256   7.702  2.2205 -0.8670 -0.1203
  124OSM   C13S13182   3.740   2.421   7.741 -0.6391 -0.2451  0.5522
  124OSM   H13S13183   3.652   2.394   7.679 -0.5376 -1.9281  1.0725
  124OSM   H13T13184   3.748   2.531   7.735 -0.4284 -0.3185 -1.0722
  124OSM   C14S13185   3.727   2.374   7.891 -0.2496  0.2666  0.1205
  124OSM   H14S13186   3.819   2.405   7.945 -0.5614 -0.8004  1.3240
  124OSM   H14T13187   3.692   2.269   7.906  0.8822 -0.1814 -0.3122
  124OSM   C15S13188   3.618   2.451   7.962  0.0937 -1.0178  0.0898
  124OSM   H15S13189   3.521   2.419   7.920 -0.8645  0.0513  1.3791
  124OSM   H15T13190   3.618   2.561   7.945 -0.5813 -1.2523 -1.5291
  124OSM   C16S13191   3.618   2.431   8.114 -0.0630 -0.1984  0.7920
  124OSM   H16S13192   3.588   2.330   8.147 -1.1008  0.1680  1.0097
  124OSM   H16T13193   3.534   2.491   8.155  0.3187  1.4874 -0.7587
  124OSM   C17S13194   3.743   2.477   8.184 -0.5921 -0.1450 -0.5438
  124OSM   H17S13195   3.764   2.579   8.145  0.0775 -0.0693 -0.0115
  124OSM   H17T13196   3.820   2.400   8.162 -1.9050 -2.1185  1.3104
  124OSM   C18S13197   3.734   2.495   8.338 -0.2510 -0.0864 -0.2660
  124OSM   H18S13198   3.699   2.400   8.384 -0.9962  0.3975  0.2000
  124OSM   H18T13199   3.657   2.573   8.356 -0.4123 -0.2081 -0.4263
  124OSM   H18U13200   3.833   2.515   8.384 -0.9901  4.2996 -0.0961
  124OSM    C1F13201   4.459   2.701   6.698  0.5713 -0.2524  0.4700
  124OSM     OF13202   4.381   2.788   6.664  0.0451 -0.0719  0.0640
  124OSM    C2F13203   4.588   2.739   6.751 -0.5568  0.4992  0.0253
  124OSM    H2F13204   4.633   2.828   6.703  1.0308 -0.0521  0.4122
  124OSM    H2G13205   4.656   2.651   6.746 -0.7380  0.4061 -0.9095
  124OSM    C3F13206   4.580   2.771   6.900 -0.1963  0.1482 -0.1741
  124OSM    H3F13207   4.534   2.871   6.914 -0.0623  0.4670 -1.8757
  124OSM    H3G13208   4.683   2.786   6.940  0.0376  0.7665 -0.9777
  124OSM    C4F13209   4.508   2.661   6.982  0.4328 -0.2028  0.2868
  124OSM    H4F13210   4.557   2.562   6.970  1.1726  0.1735  0.1019
  124OSM    H4G13211   4.401   2.660   6.954  1.1875 -0.5209 -3.0170
  124OSM    C5F13212   4.521   2.679   7.139  0.2457 -0.1882  0.9448
  124OSM    H5F13213   4.475   2.775   7.173 -2.6979 -1.6011  1.2521
  124OSM    H5G13214   4.629   2.677   7.165  0.9888 -1.0996 -1.8169
  124OSM    C6F13215   4.440   2.575   7.221 -0.7585  0.6479  0.3694
  124OSM    H6F13216   4.493   2.479   7.200 -0.5104  1.1556 -1.5058
  124OSM    H6G13217   4.333   2.570   7.194 -0.9750 -0.2025  1.3250
  124OSM    C7F13218   4.475   2.605   7.373 -0.1821 -0.0686  0.6389
  124OSM    H7F13219   4.579   2.642   7.381  0.1040 -0.7240  0.0280
  124OSM    H7G13220   4.465   2.511   7.431 -2.8952  0.7960  1.7722
  124OSM    C8F13221   4.374   2.706   7.440 -0.5953 -0.0545 -0.4491
  124OSM    H8F13222   4.273   2.660   7.435  0.2303 -2.0618  0.3728
  124OSM    H8G13223   4.373   2.802   7.384  1.9259 -0.2582 -0.9726
  124OSM    C9F13224   4.409   2.720   7.589  0.5105 -0.3799 -0.7615
  124OSM    H9F13225   4.493   2.790   7.603  3.3401 -2.1967 -5.9070
  124OSM   C10F13226   4.347   2.648   7.691 -0.8026 -0.9210  0.0372
  124OSM   H10F13227   4.371   2.673   7.795 -0.4785 -0.6644 -0.0955
  124OSM   C11F13228   4.246   2.542   7.680 -0.3462  0.1066 -0.4910
  124OSM   H11F13229   4.201   2.539   7.578  2.2571 -0.5004 -1.7007
  124OSM   H11G13230   4.158   2.552   7.747  0.9874 -0.5246  1.4637
  124OSM   C12F13231   4.319   2.413   7.713  0.7096 -0.3731  0.8442
  124OSM   H12F13232   4.414   2.412   7.655  0.6647 -0.2003  0.7648
  124OSM   H12G13233   4.266   2.326   7.670  0.3586  1.2276 -2.2423
  124OSM   C13F13234   4.341   2.388   7.860 -0.4902  0.9072 -0.7033
  124OSM   H13F13235   4.369   2.485   7.907  0.4871 -0.3633  1.5095
  124OSM   H13G13236   4.430   2.323   7.877 -1.4679  0.0225  1.4789
  124OSM   C14F13237   4.214   2.335   7.929 -0.6618 -0.3593  0.1952
  124OSM   H14F13238   4.191   2.243   7.872  0.2109 -0.9404  0.7716
  124OSM   H14G13239   4.128   2.405   7.916 -0.9571 -0.5421  1.0965
  124OSM   C15F13240   4.226   2.292   8.075  0.6173 -0.4966 -0.3741
  124OSM   H15F13241   4.259   2.376   8.140 -1.5181  1.0966 -1.2144
  124OSM   H15G13242   4.311   2.222   8.087  0.5828 -0.3076  1.2002
  124OSM   C16F13243   4.106   2.221   8.139 -0.6623  0.5778 -0.2079
  124OSM   H16F13244   4.089   2.118   8.100  0.0840  0.4532 -0.2112
  124OSM   H16G13245   4.011   2.272   8.113  0.0382  0.6709 -2.8751
  124OSM   C17F13246   4.121   2.209   8.298  0.6105 -0.6645  0.3684
  124OSM   H17F13247   4.141   2.309   8.343 -2.8905  0.1259  0.4661
  124OSM   H17G13248   4.207   2.142   8.320  1.1603  0.0255  0.3666
  124OSM   C18F13249   3.989   2.166   8.365  0.0035 -0.1048  0.1489
  124OSM   H18F13250   4.019   2.148   8.471  0.5690 -1.1676 -0.1798
  124OSM   H18G13251   3.949   2.074   8.318 -1.1373  0.8421 -0.8218
  124OSM   H18H13252   3.905   2.238   8.352  1.0594  1.7214  2.6573
  125OSM      N13253   6.695   6.479   6.020  0.1252 -0.8992 -0.1338
  125OSM    C1513254   6.624   6.487   5.885 -0.0589  0.6882  0.3052
  125OSM   H15A13255   6.634   6.587   5.846  1.4243  0.3469 -0.2879
  125OSM   H15B13256   6.521   6.457   5.897 -0.7972  1.6864 -2.6961
  125OSM   H15C13257   6.671   6.427   5.808 -1.2109 -1.3140  1.0791
  125OSM    C1413258   6.687   6.336   6.065  0.4974 -0.0234  0.2634
  125OSM   H14A13259   6.735   6.311   6.159 -0.9134 -0.7837  0.8286
  125OSM   H14B13260   6.726   6.274   5.986 -1.0954 -1.6626  0.6824
  125OSM   H14C13261   6.584   6.303   6.067  0.9040 -1.3981  2.1718
  125OSM    C1313262   6.833   6.532   5.999  0.2244 -0.8042 -0.4374
  125OSM   H13A13263   6.883   6.465   5.930 -0.2754 -1.0377 -0.5727
  125OSM   H13B13264   6.889   6.539   6.092 -1.0386  0.7257  0.2469
  125OSM   H13C13265   6.836   6.635   5.968  0.7285 -0.4257  0.7873
  125OSM    C1213266   6.617   6.581   6.111  0.0785  0.3885 -0.4387
  125OSM   H12A13267   6.514   6.549   6.109  0.2764 -0.2093 -1.5419
  125OSM   H12B13268   6.621   6.676   6.060 -0.0659  0.0662 -1.0496
  125OSM    C1113269   6.652   6.606   6.261  0.4619  0.7435  0.7528
  125OSM   H11A13270   6.636   6.507   6.309 -1.0596 -0.0930 -1.2911
  125OSM   H11B13271   6.577   6.673   6.310  0.5798  1.2351  0.2708
  125OSM      P13272   6.838   6.787   6.299 -0.1243  0.0209 -0.2299
  125OSM    O1313273   6.987   6.796   6.297  0.0330 -0.7693 -0.5011
  125OSM    O1413274   6.768   6.879   6.210  0.1633  0.3454 -0.6756
  125OSM    O1113275   6.787   6.809   6.446  0.3446  0.0792  0.1868
  125OSM    O1213276   6.788   6.644   6.275  0.0341  0.2810  0.1532
  125OSM    C1S13277   6.854   6.739   6.550 -0.9948  0.4042 -0.7832
  125OSM    H1S13278   6.951   6.792   6.562 -0.6011 -0.0060 -1.9971
  125OSM    H1T13279   6.880   6.633   6.527 -2.9978 -0.3960  0.3823
  125OSM     NF13280   6.839   6.642   6.785  0.2459 -0.6613 -0.1421
  125OSM    HNF13281   6.811   6.548   6.796  0.9064 -1.0858 -1.7490
  125OSM    C2S13282   6.768   6.719   6.683  0.6249 -0.2176  0.1650
  125OSM    H2S13283   6.762   6.821   6.728  0.9786  0.3057 -0.9308
  125OSM    C3S13284   6.628   6.656   6.654  0.4863  0.1042  0.0903
  125OSM    H3S13285   6.643   6.569   6.588 -1.5949  0.4745 -0.9777
  125OSM     O313286   6.549   6.739   6.567  0.2562  0.1147 -0.6097
  125OSM    HO313287   6.605   6.803   6.524 -0.6853  1.9331  0.7377
  125OSM    C4S13288   6.546   6.630   6.770 -0.4576 -0.4705 -0.1809
  125OSM    H4S13289   6.503   6.529   6.771 -1.9334  0.0939  2.5014
  125OSM    C5S13290   6.490   6.717   6.863  0.0446  0.1099  0.1365
  125OSM    H5S13291   6.510   6.825   6.854  0.5296 -0.0783 -1.3954
  125OSM    C6S13292   6.388   6.664   6.966  0.2283 -0.3846  0.6507
  125OSM    H6S13293   6.370   6.555   6.951  1.0818 -0.6689  1.5687
  125OSM    H6T13294   6.287   6.707   6.948 -0.4085 -1.0633  2.4623
  125OSM    C7S13295   6.428   6.686   7.116 -0.8397 -0.0482  0.0599
  125OSM    H7S13296   6.342   6.641   7.169 -2.0382  2.0473  0.0026
  125OSM    H7T13297   6.441   6.792   7.147 -0.2169  0.5618 -2.0792
  125OSM    C8S13298   6.563   6.620   7.150  0.8356  0.0080 -0.3102
  125OSM    H8S13299   6.644   6.641   7.076  0.0864 -0.2766 -1.2274
  125OSM    H8T13300   6.540   6.511   7.143 -0.0091  0.2646 -1.9182
  125OSM    C9S13301   6.628   6.661   7.281 -0.5872 -0.6025  0.1124
  125OSM    H9S13302   6.687   6.751   7.257 -1.4665 -0.1826 -0.5364
  125OSM    H9T13303   6.697   6.579   7.310  1.3209  0.5084 -1.1575
  125OSM   C10S13304   6.525   6.695   7.394  0.8930 -0.0103  0.0169
  125OSM   H10S13305   6.458   6.610   7.417  2.0426 -1.0553 -0.4367
  125OSM   H10T13306   6.457   6.778   7.364 -0.5551 -1.9072 -2.2577
  125OSM   C11S13307   6.595   6.745   7.530  0.2494  0.5058 -0.0895
  125OSM   H11S13308   6.659   6.829   7.494 -1.3263  1.7463 -0.0872
  125OSM   H11T13309   6.654   6.655   7.557  2.6462  1.2461 -2.3717
  125OSM   C12S13310   6.513   6.804   7.640  0.1068  0.0205  0.1531
  125OSM   H12S13311   6.446   6.724   7.680 -0.5707  0.0788 -0.8371
  125OSM   H12T13312   6.442   6.881   7.603  0.0081  0.2015  0.7111
  125OSM   C13S13313   6.585   6.881   7.751  0.5147 -0.9233 -0.2360
  125OSM   H13S13314   6.653   6.952   7.700 -0.1080 -0.1287  0.0373
  125OSM   H13T13315   6.650   6.812   7.809  0.7635  0.3911  1.0962
  125OSM   C14S13316   6.484   6.957   7.839  0.2233  0.6689 -0.4634
  125OSM   H14S13317   6.395   6.891   7.842  0.9740 -0.4859 -2.1700
  125OSM   H14T13318   6.457   7.046   7.777 -2.3020 -0.1521 -0.6739
  125OSM   C15S13319   6.528   6.981   7.984  0.3698  0.4874 -0.2906
  125OSM   H15S13320   6.507   6.892   8.046  0.6996  0.4462 -0.2376
  125OSM   H15T13321   6.464   7.063   8.022  0.3064  0.9425 -1.3426
  125OSM   C16S13322   6.677   7.002   8.017  0.4857  0.2753 -0.4307
  125OSM   H16S13323   6.720   7.075   7.945  1.3991  0.7968  0.6330
  125OSM   H16T13324   6.736   6.908   8.002 -0.2006 -0.3263  0.5312
  125OSM   C17S13325   6.694   7.053   8.166  0.5581 -0.0459  0.1774
  125OSM   H17S13326   6.652   7.156   8.164  0.2861 -0.1201  1.3739
  125OSM   H17T13327   6.802   7.054   8.190  0.4715  0.0860  0.5762
  125OSM   C18S13328   6.615   6.969   8.272  0.0870  0.5267  0.3022
  125OSM   H18S13329   6.634   7.016   8.371 -2.5512  0.4663  0.9136
  125OSM   H18T13330   6.645   6.862   8.275  0.8767  0.7328  0.1412
  125OSM   H18U13331   6.506   6.975   8.252  0.5419  0.2835 -2.7051
  125OSM    C1F13332   6.948   6.685   6.839  0.0423  0.6649 -0.5989
  125OSM     OF13333   7.001   6.793   6.807 -0.4003  0.0106  0.3826
  125OSM    C2F13334   7.007   6.605   6.954 -0.3443 -0.2132  0.3258
  125OSM    H2F13335   7.099   6.554   6.919  1.0069  1.7993  0.8434
  125OSM    H2G13336   6.931   6.534   6.994 -2.0054 -0.2539 -2.5543
  125OSM    C3F13337   7.067   6.697   7.066  0.2844  0.0773  0.8374
  125OSM    H3F13338   6.980   6.747   7.113 -0.7255 -1.4208  0.6294
  125OSM    H3G13339   7.129   6.776   7.017  1.8061 -1.6871 -0.2297
  125OSM    C4F13340   7.131   6.620   7.182 -0.2640  0.2101 -0.0816
  125OSM    H4F13341   7.215   6.562   7.139 -1.1223 -0.6988 -0.5571
  125OSM    H4G13342   7.052   6.550   7.216 -1.2453  0.2498 -2.0942
  125OSM    C5F13343   7.171   6.728   7.291 -0.0928  0.9906  0.1247
  125OSM    H5F13344   7.198   6.830   7.255  0.9961  1.8067  2.9779
  125OSM    H5G13345   7.254   6.673   7.341 -1.2617  0.5942  1.7128
  125OSM    C6F13346   7.060   6.742   7.396  0.3929 -0.1590 -0.2242
  125OSM    H6F13347   7.003   6.646   7.400 -2.4142  1.2973 -1.8153
  125OSM    H6G13348   6.991   6.820   7.356 -1.1296 -1.3511 -0.0249
  125OSM    C7F13349   7.121   6.777   7.535 -0.0520 -0.1129  0.0186
  125OSM    H7F13350   7.203   6.851   7.534 -0.0678 -0.0960 -0.0514
  125OSM    H7G13351   7.172   6.685   7.569  0.8040 -0.8086 -2.8850
  125OSM    C8F13352   7.006   6.840   7.626 -0.0301  0.6369  0.5197
  125OSM    H8F13353   6.950   6.746   7.650  0.4209  0.4073  0.6841
  125OSM    H8G13354   6.926   6.893   7.571 -0.0703  2.3796  2.1774
  125OSM    C9F13355   7.053   6.910   7.753  1.0224  0.0862  0.0531
  125OSM    H9F13356   7.058   7.020   7.753  1.3896  0.1845  3.7808
  125OSM   C10F13357   7.090   6.845   7.867 -0.3675  0.0930 -0.3519
  125OSM   H10F13358   7.118   6.899   7.959  0.7440 -3.0805  1.3213
  125OSM   C11F13359   7.097   6.697   7.895 -0.0904 -0.3489  0.2055
  125OSM   H11F13360   7.205   6.676   7.911  0.4466  2.2652  0.5931
  125OSM   H11G13361   7.071   6.644   7.802  0.2898 -1.8718  0.9346
  125OSM   C12F13362   7.010   6.645   8.010  0.3811 -0.1764  0.9819
  125OSM   H12F13363   7.014   6.534   8.006  0.6032 -0.2484  2.5242
  125OSM   H12G13364   6.906   6.682   8.001 -0.4266 -2.4336  0.6110
  125OSM   C13F13365   7.053   6.682   8.147 -0.1338 -0.4536 -0.0126
  125OSM   H13F13366   7.014   6.785   8.161 -0.3325 -0.1599 -2.2504
  125OSM   H13G13367   7.164   6.679   8.158 -0.0598  1.5484  0.1092
  125OSM   C14F13368   7.002   6.583   8.252 -0.0324 -0.7307 -0.6010
  125OSM   H14F13369   7.036   6.482   8.218 -0.1850 -1.4652  1.3186
  125OSM   H14G13370   6.892   6.599   8.255  0.2721  1.6995 -0.1698
  125OSM   C15F13371   7.067   6.600   8.396 -0.3800 -0.1998  0.2605
  125OSM   H15F13372   7.177   6.599   8.376 -0.1662  0.6473  1.2982
  125OSM   H15G13373   7.040   6.518   8.465  2.6338  1.4527  3.7463
  125OSM   C16F13374   7.041   6.734   8.470  0.5362 -0.3982  0.0810
  125OSM   H16F13375   7.079   6.808   8.396 -0.4554 -0.7931 -0.8581
  125OSM   H16G13376   7.091   6.731   8.568 -1.3910 -0.9418  1.1100
  125OSM   C17F13377   6.891   6.761   8.497  0.3059  0.4588 -0.2462
  125OSM   H17F13378   6.834   6.725   8.408 -3.1456  2.0311  1.1324
  125OSM   H17G13379   6.872   6.870   8.497 -0.9341  0.3469 -3.1545
  125OSM   C18F13380   6.833   6.687   8.623 -0.5272  0.0166  0.9171
  125OSM   H18F13381   6.883   6.715   8.719 -0.1470 -0.3122  0.8191
  125OSM   H18G13382   6.847   6.577   8.614 -1.4372  0.0300 -1.0407
  125OSM   H18H13383   6.726   6.710   8.638 -0.8395  0.6728 -1.8771
  126OSM      N13384   2.658   6.582   6.409 -0.0587  0.3258  0.2095
  126OSM    C1513385   2.535   6.524   6.346  0.5114 -0.0622  0.2836
  126OSM   H15A13386   2.558   6.419   6.333 -3.8329 -1.2667  0.8681
  126OSM   H15B13387   2.500   6.582   6.262 -2.3542  0.0551  1.4430
  126OSM   H15C13388   2.456   6.526   6.420 -0.9121  1.8338 -1.1913
  126OSM    C1413389   2.772   6.547   6.315  0.1317 -0.0772 -0.2235
  126OSM   H14A13390   2.745   6.587   6.219  0.8942  0.7403 -0.1133
  126OSM   H14B13391   2.784   6.440   6.308  0.8000  0.0635 -1.3973
  126OSM   H14C13392   2.856   6.600   6.358  0.6549 -0.6279 -0.5533
  126OSM    C1313393   2.644   6.728   6.418  0.3935 -1.3286 -0.7745
  126OSM   H13A13394   2.598   6.768   6.329 -0.0556 -0.2507 -0.0721
  126OSM   H13B13395   2.742   6.772   6.427 -0.2732  0.4228 -1.6195
  126OSM   H13C13396   2.589   6.752   6.507 -1.8886 -1.9504 -1.9367
  126OSM    C1213397   2.673   6.529   6.549 -0.7503  0.1175  0.0779
  126OSM   H12A13398   2.669   6.421   6.552  2.8244 -0.1167  1.9220
  126OSM   H12B13399   2.587   6.565   6.604 -1.8696 -0.4750 -1.2193
  126OSM    C1113400   2.801   6.568   6.626  0.6380  0.7888 -0.5693
  126OSM   H11A13401   2.780   6.556   6.734  0.5910  1.2789 -0.5246
  126OSM   H11B13402   2.810   6.678   6.617  0.1095  0.9058  0.2442
  126OSM      P13403   3.054   6.544   6.610 -0.0625 -0.1309  0.0286
  126OSM    O1313404   3.156   6.446   6.577 -0.9969 -0.0088  0.2685
  126OSM    O1413405   3.071   6.673   6.553 -0.4642  0.0195  0.0473
  126OSM    O1113406   3.047   6.569   6.760  0.0018 -0.2110 -0.5235
  126OSM    O1213407   2.912   6.485   6.582  0.2183 -0.2266 -0.7335
  126OSM    C1S13408   3.045   6.467   6.868 -0.3992 -0.5912 -0.3724
  126OSM    H1S13409   3.123   6.392   6.840  0.1049 -0.0483 -0.4463
  126OSM    H1T13410   2.945   6.430   6.897  0.8491 -2.0194  2.5761
  126OSM     NF13411   3.125   6.440   7.107  0.1131  0.0254  0.0680
  126OSM    HNF13412   3.049   6.400   7.157  0.6710 -0.8424  0.2325
  126OSM    C2S13413   3.086   6.541   7.003  0.4575  0.0888  0.3446
  126OSM    H2S13414   3.170   6.614   6.995  0.3026  0.2071 -0.2359
  126OSM    C3S13415   2.959   6.630   7.043  0.2429 -0.5877  0.8669
  126OSM    H3S13416   2.874   6.559   7.045 -0.4529  0.0774 -1.3607
  126OSM     O313417   2.911   6.738   6.960  0.1576  0.3765  0.2662
  126OSM    HO313418   2.953   6.727   6.874  0.5501  0.0075  0.5006
  126OSM    C4S13419   2.977   6.684   7.182 -0.0088 -0.8599  0.2439
  126OSM    H4S13420   3.077   6.730   7.192 -0.2131 -0.4869  0.5804
  126OSM    C5S13421   2.890   6.687   7.287 -0.4437  0.2672 -0.2427
  126OSM    H5S13422   2.783   6.663   7.278 -0.3930  0.0342 -0.2314
  126OSM    C6S13423   2.920   6.748   7.420  0.3307 -0.0892 -1.3745
  126OSM    H6S13424   2.873   6.846   7.445 -0.6593 -0.8395 -0.1658
  126OSM    H6T13425   3.031   6.757   7.429  0.2383  0.8118 -1.0394
  126OSM    C7S13426   2.878   6.649   7.530  0.6855 -0.6524  0.0729
  126OSM    H7S13427   2.932   6.553   7.518 -1.3156 -1.7829 -0.3613
  126OSM    H7T13428   2.769   6.631   7.519  0.8345 -0.4165 -2.1076
  126OSM    C8S13429   2.885   6.697   7.677  0.0634  0.0861  0.3144
  126OSM    H8S13430   2.847   6.801   7.684 -0.3438 -0.0428 -0.0021
  126OSM    H8T13431   2.993   6.684   7.703 -0.1137 -4.2847 -0.2977
  126OSM    C9S13432   2.800   6.614   7.771  0.4335 -0.3179 -0.0108
  126OSM    H9S13433   2.852   6.518   7.753  0.7033  0.0376 -1.2475
  126OSM    H9T13434   2.697   6.595   7.734 -0.1462 -0.5924  1.6565
  126OSM   C10S13435   2.794   6.660   7.917 -0.1144 -0.5476 -0.6850
  126OSM   H10S13436   2.711   6.618   7.977  0.9607 -0.6207  0.7934
  126OSM   H10T13437   2.766   6.767   7.931 -0.7664 -0.7746 -0.2225
  126OSM   C11S13438   2.924   6.639   8.000  0.0175  0.3140  0.8546
  126OSM   H11S13439   3.015   6.670   7.945  0.2729 -0.7580  0.6389
  126OSM   H11T13440   2.944   6.532   8.021  1.9644  0.3896 -0.3274
  126OSM   C12S13441   2.923   6.717   8.133 -0.6058  0.0043 -0.2666
  126OSM   H12S13442   2.913   6.827   8.120  0.9404  0.0549 -1.3890
  126OSM   H12T13443   3.021   6.713   8.186 -1.5311  1.4121  1.6807
  126OSM   C13S13444   2.812   6.671   8.237 -0.5502  0.3971 -0.2215
  126OSM   H13S13445   2.820   6.565   8.267 -0.6891  0.1291 -1.1057
  126OSM   H13T13446   2.716   6.685   8.183 -1.8756  0.0355  1.9356
  126OSM   C14S13447   2.790   6.763   8.355 -0.4362  0.5611  0.2539
  126OSM   H14S13448   2.736   6.858   8.336 -1.0017  0.9168  3.1835
  126OSM   H14T13449   2.884   6.795   8.405 -0.7365  0.2299  1.0474
  126OSM   C15S13450   2.705   6.702   8.478 -0.1469  0.0858  0.4151
  126OSM   H15S13451   2.749   6.607   8.514 -0.2701 -0.2144 -0.2110
  126OSM   H15T13452   2.600   6.676   8.452 -0.7109 -0.6456  3.1324
  126OSM   C16S13453   2.688   6.806   8.587 -0.2908 -0.0647 -0.0080
  126OSM   H16S13454   2.615   6.886   8.561 -0.1265 -0.2950 -1.2446
  126OSM   H16T13455   2.780   6.866   8.604  0.4623 -0.7803 -1.3882
  126OSM   C17S13456   2.632   6.745   8.712 -0.2724 -0.2118 -0.0315
  126OSM   H17S13457   2.556   6.673   8.674  1.2581 -1.1665 -1.4142
  126OSM   H17T13458   2.586   6.830   8.769  1.3151 -0.6083  1.9468
  126OSM   C18S13459   2.742   6.698   8.808 -0.3493 -0.0347 -0.2374
  126OSM   H18S13460   2.802   6.788   8.835  0.5066 -0.5222 -0.4765
  126OSM   H18T13461   2.807   6.617   8.771  0.7233  0.3101  0.8026
  126OSM   H18U13462   2.705   6.662   8.907 -1.2442 -2.0756 -1.2654
  126OSM    C1F13463   3.236   6.369   7.086  0.5866  0.0462 -0.0893
  126OSM     OF13464   3.328   6.411   7.021 -0.1126  0.2411  0.3893
  126OSM    C2F13465   3.235   6.233   7.149  0.5446  0.6517  0.2840
  126OSM    H2F13466   3.209   6.164   7.066  0.6615 -0.0088  0.7976
  126OSM    H2G13467   3.163   6.232   7.234  0.3441  1.2470  0.1322
  126OSM    C3F13468   3.370   6.183   7.192  0.1315 -0.1028  0.2414
  126OSM    H3F13469   3.430   6.167   7.099 -0.3343 -0.9692  0.0786
  126OSM    H3G13470   3.360   6.078   7.226 -2.6443 -0.0106  0.0142
  126OSM    C4F13471   3.448   6.264   7.292 -0.6223  0.4211 -0.3110
  126OSM    H4F13472   3.455   6.369   7.254 -0.6948  0.8017  0.6916
  126OSM    H4G13473   3.551   6.224   7.304 -0.9002 -0.8021 -1.7066
  126OSM    C5F13474   3.386   6.265   7.437 -0.5865 -0.0088 -0.3860
  126OSM    H5F13475   3.367   6.160   7.465 -0.0444  0.3144  1.3149
  126OSM    H5G13476   3.292   6.324   7.437 -0.5695  0.0772  1.5461
  126OSM    C6F13477   3.481   6.302   7.555  0.1433 -1.1131 -0.5795
  126OSM    H6F13478   3.519   6.406   7.561  0.4911 -1.1460 -2.0433
  126OSM    H6G13479   3.571   6.238   7.551  1.1468  0.3502 -2.5273
  126OSM    C7F13480   3.405   6.270   7.686  0.2765 -0.0104 -0.8487
  126OSM    H7F13481   3.363   6.167   7.679 -1.3681  0.6319 -1.1056
  126OSM    H7G13482   3.313   6.333   7.683 -0.0801 -0.4489  0.1843
  126OSM    C8F13483   3.476   6.314   7.812 -0.4031  0.0592  0.0572
  126OSM    H8F13484   3.489   6.424   7.810 -2.4830  0.3309 -0.1658
  126OSM    H8G13485   3.578   6.270   7.809 -1.0195 -1.4882  0.7025
  126OSM    C9F13486   3.395   6.285   7.934  0.3671 -0.1997 -0.2434
  126OSM    H9F13487   3.286   6.277   7.922  0.0276  1.4816  1.2869
  126OSM   C10F13488   3.448   6.281   8.062  0.3657  0.0942 -0.2518
  126OSM   H10F13489   3.380   6.259   8.145 -0.9768  0.0349 -1.3262
  126OSM   C11F13490   3.597   6.287   8.105  0.1651 -0.3516 -0.0775
  126OSM   H11F13491   3.612   6.355   8.192 -0.2274  3.7170 -2.8609
  126OSM   H11G13492   3.652   6.344   8.027 -1.1087 -0.2313 -0.9273
  126OSM   C12F13493   3.644   6.150   8.139 -0.1055 -0.0874 -0.0704
  126OSM   H12F13494   3.654   6.087   8.048 -0.5712  1.1926 -1.0453
  126OSM   H12G13495   3.597   6.100   8.226  1.4514 -1.7278 -0.1097
  126OSM   C13F13496   3.796   6.167   8.177 -0.1629 -0.2321  0.2879
  126OSM   H13F13497   3.813   6.247   8.252 -0.0448 -0.7247  0.7937
  126OSM   H13G13498   3.850   6.186   8.082 -0.7791 -0.1445 -0.0489
  126OSM   C14F13499   3.852   6.035   8.234  0.0432 -0.9038 -0.7173
  126OSM   H14F13500   3.923   5.997   8.158  0.2022  1.3946 -1.8000
  126OSM   H14G13501   3.768   5.963   8.238  0.6949 -1.8085 -2.5265
  126OSM   C15F13502   3.908   6.041   8.379  0.8820 -0.2118  0.0811
  126OSM   H15F13503   3.819   6.058   8.443  0.2164  0.9663 -1.0863
  126OSM   H15G13504   3.973   6.130   8.393 -0.7753  1.2298 -0.9966
  126OSM   C16F13505   3.984   5.910   8.410 -0.3208  0.2659  0.0971
  126OSM   H16F13506   4.032   5.924   8.509 -1.0109 -1.4827  0.7154
  126OSM   H16G13507   4.076   5.899   8.348  0.0503  1.3974  0.4073
  126OSM   C17F13508   3.914   5.777   8.418  0.9390  0.7297 -0.4937
  126OSM   H17F13509   3.828   5.786   8.349 -0.1910 -2.0519  0.4384
  126OSM   H17G13510   3.865   5.749   8.514 -0.8815  1.1186 -1.2787
  126OSM   C18F13511   3.993   5.661   8.349 -0.1717  0.0779  0.0187
  126OSM   H18F13512   4.087   5.627   8.397  1.2425  0.9846 -1.9483
  126OSM   H18G13513   4.022   5.697   8.248 -2.9897  1.1357 -0.4975
  126OSM   H18H13514   3.924   5.574   8.338 -1.3862  1.0530 -0.2935
  127OSM      N13515   0.492   0.298   6.536  0.3780  0.2526  0.4564
  127OSM    C1513516   0.350   0.251   6.564 -0.2823  0.2160  0.1370
  127OSM   H15A13517   0.281   0.334   6.558 -0.6386 -0.0537  0.4907
  127OSM   H15B13518   0.349   0.222   6.668  0.5424 -0.5889 -0.0723
  127OSM   H15C13519   0.317   0.169   6.502  0.4824 -1.0405  1.3438
  127OSM    C1413520   0.590   0.211   6.610  0.6736  0.7991  0.0442
  127OSM   H14A13521   0.567   0.214   6.716 -3.9535 -1.6403 -0.6366
  127OSM   H14B13522   0.692   0.244   6.603  1.4779 -1.2795  1.0406
  127OSM   H14C13523   0.578   0.111   6.572  0.8961  1.3054 -1.4409
  127OSM    C1313524   0.535   0.285   6.393 -0.1800  0.2941 -0.7550
  127OSM   H13A13525   0.625   0.343   6.381 -1.9779  2.8260 -3.0834
  127OSM   H13B13526   0.465   0.335   6.328 -0.5543 -0.6887 -1.1291
  127OSM   H13C13527   0.546   0.183   6.360 -0.3538 -0.4859  1.4043
  127OSM    C1213528   0.496   0.441   6.598 -0.3500 -0.5201 -0.6093
  127OSM   H12A13529   0.600   0.460   6.619 -0.3709 -0.7667 -0.2780
  127OSM   H12B13530   0.445   0.427   6.692  1.8979 -0.3470  0.7024
  127OSM    C1113531   0.437   0.559   6.514 -0.0814  0.1605  0.1578
  127OSM   H11A13532   0.391   0.638   6.576 -2.2869 -0.4512 -0.5989
  127OSM   H11B13533   0.353   0.510   6.461 -2.1743 -0.4834  3.7090
  127OSM      P13534   0.674   0.628   6.443 -0.0713  0.0596 -0.1801
  127OSM    O1313535   0.737   0.498   6.476 -0.5918 -0.0238 -0.2547
  127OSM    O1413536   0.736   0.708   6.337 -0.4701 -0.2779 -0.0779
  127OSM    O1113537   0.658   0.725   6.579 -0.1403  0.0274 -0.1903
  127OSM    O1213538   0.519   0.611   6.411 -0.2759  0.6371 -0.4033
  127OSM    C1S13539   0.775   0.734   6.657  0.5101  0.2595  0.3676
  127OSM    H1S13540   0.855   0.787   6.601  1.7542  0.2299  2.0284
  127OSM    H1T13541   0.803   0.631   6.688 -1.3507 -0.4091 -0.0285
  127OSM     NF13542   0.866   0.869   6.849  0.2385  0.6127 -0.3908
  127OSM    HNF13543   0.898   0.817   6.928  0.4699 -2.2757 -2.2064
  127OSM    C2S13544   0.747   0.812   6.792 -0.0051 -0.2280 -0.0268
  127OSM    H2S13545   0.683   0.896   6.760  2.1916  0.9832 -1.4976
  127OSM    C3S13546   0.665   0.725   6.886  0.3951 -0.2201  0.0211
  127OSM    H3S13547   0.726   0.637   6.913 -1.3212 -1.4358  0.0621
  127OSM     O313548   0.544   0.671   6.832 -0.0133 -0.1150  0.4050
  127OSM    HO313549   0.556   0.685   6.738  0.2300 -1.8011  0.1598
  127OSM    C4S13550   0.638   0.809   7.012 -0.3632  0.2829  0.0000
  127OSM    H4S13551   0.733   0.796   7.067  0.2252 -1.7525 -1.3554
  127OSM    C5S13552   0.544   0.885   7.052 -0.2805  0.0346 -0.0246
  127OSM    H5S13553   0.456   0.895   6.987 -1.7497 -1.7913  1.5388
  127OSM    C6S13554   0.531   0.964   7.180  0.7592 -0.6038  0.1909
  127OSM    H6S13555   0.483   0.900   7.257 -0.1048  0.4301  0.5291
  127OSM    H6T13556   0.476   1.059   7.167 -0.1715 -1.2586 -0.8612
  127OSM    C7S13557   0.661   1.007   7.253 -0.6176  0.0955 -0.1277
  127OSM    H7S13558   0.733   1.062   7.188  2.6521 -2.5011  0.9914
  127OSM    H7T13559   0.731   0.927   7.287  0.2636  0.4221 -1.1167
  127OSM    C8S13560   0.634   1.095   7.374  0.4698  0.1288 -0.6583
  127OSM    H8S13561   0.529   1.078   7.406  0.7133  0.3471  0.2868
  127OSM    H8T13562   0.646   1.201   7.341  2.2103  0.2925  0.3927
  127OSM    C9S13563   0.731   1.068   7.491  0.2155 -0.6437  0.4259
  127OSM    H9S13564   0.828   1.027   7.454  1.2841  2.6298 -0.7303
  127OSM    H9T13565   0.680   0.991   7.553  0.0583 -0.6682  0.2677
  127OSM   C10S13566   0.751   1.196   7.574  0.4223  0.2768 -0.0181
  127OSM   H10S13567   0.661   1.230   7.629  0.5323  1.1364 -0.3519
  127OSM   H10T13568   0.764   1.284   7.507 -2.5647  0.4436 -0.5193
  127OSM   C11S13569   0.869   1.201   7.684  0.2058 -0.7977  0.6082
  127OSM   H11S13570   0.965   1.182   7.633 -0.0419 -0.0309 -0.1781
  127OSM   H11T13571   0.857   1.115   7.754 -0.4427 -1.8509 -0.7551
  127OSM   C12S13572   0.885   1.348   7.737 -0.3636  0.2422  0.3221
  127OSM   H12S13573   0.784   1.391   7.754 -0.4841  0.7055 -1.3454
  127OSM   H12T13574   0.935   1.421   7.670  0.2117  0.4085  0.9242
  127OSM   C13S13575   0.962   1.345   7.864  0.0029  0.5481  0.0594
  127OSM   H13S13576   1.064   1.309   7.837 -0.4203  1.8083 -3.8653
  127OSM   H13T13577   0.913   1.264   7.922 -1.6407 -0.2240 -2.2438
  127OSM   C14S13578   0.973   1.477   7.937 -0.3508 -0.0904  0.3066
  127OSM   H14S13579   0.868   1.511   7.936  0.0264  1.0969 -0.5650
  127OSM   H14T13580   1.037   1.543   7.875 -0.3979  0.1801  0.5440
  127OSM   C15S13581   1.035   1.476   8.077 -0.6251 -0.4655  0.1410
  127OSM   H15S13582   1.144   1.482   8.059 -1.0348  2.3428 -2.2253
  127OSM   H15T13583   1.004   1.384   8.130  0.8440 -1.9942 -1.5483
  127OSM   C16S13584   0.996   1.597   8.168  0.2160  1.0030  0.2253
  127OSM   H16S13585   0.890   1.605   8.201  0.3799  0.4451  0.9186
  127OSM   H16T13586   1.035   1.688   8.117  2.4102  0.0389  0.0689
  127OSM   C17S13587   1.080   1.602   8.303  0.4434 -0.0571 -0.1286
  127OSM   H17S13588   1.184   1.570   8.279  0.6965  1.1183 -0.6403
  127OSM   H17T13589   1.031   1.524   8.365 -2.0051  1.1025 -0.4882
  127OSM   C18S13590   1.066   1.735   8.387  0.3945  0.9939  0.1560
  127OSM   H18S13591   1.152   1.745   8.456  0.9148 -0.2325 -0.2835
  127OSM   H18T13592   0.964   1.738   8.432 -0.2178  1.9345 -1.2485
  127OSM   H18U13593   1.071   1.826   8.323  0.2075 -0.0081 -1.3371
  127OSM    C1F13594   0.928   0.973   6.809 -0.7803 -0.2487  0.6662
  127OSM     OF13595   0.898   1.019   6.703 -0.4448 -0.4343  0.2292
  127OSM    C2F13596   1.040   1.018   6.902 -0.8036  0.2379 -0.6638
  127OSM    H2F13597   1.138   1.000   6.853 -1.6455 -2.6841 -1.4806
  127OSM    H2G13598   1.044   0.950   6.989 -1.9269  0.7449 -0.1936
  127OSM    C3F13599   1.023   1.166   6.941 -0.3559  0.3320  0.0405
  127OSM    H3F13600   0.926   1.187   6.991 -0.9716 -0.0207 -0.9792
  127OSM    H3G13601   1.031   1.237   6.856  0.0930  0.5874  0.2912
  127OSM    C4F13602   1.142   1.210   7.038 -0.2963  0.3975  0.4573
  127OSM    H4F13603   1.157   1.320   7.032 -1.3165  0.5263  0.0394
  127OSM    H4G13604   1.234   1.164   6.996  1.5566  3.4418  0.8893
  127OSM    C5F13605   1.132   1.170   7.182 -0.1848  0.3960 -0.3287
  127OSM    H5F13606   1.124   1.059   7.188  1.8733  0.2618  0.6504
  127OSM    H5G13607   1.041   1.217   7.227 -0.2055 -0.2009  0.2659
  127OSM    C6F13608   1.252   1.211   7.262  0.8131  0.0782 -0.4809
  127OSM    H6F13609   1.283   1.309   7.221 -0.5246  0.6521 -0.1446
  127OSM    H6G13610   1.338   1.143   7.242  1.2981  0.3541  0.5875
  127OSM    C7F13611   1.231   1.217   7.416  0.2085  0.5873  0.0712
  127OSM    H7F13612   1.179   1.120   7.432  0.8609  0.3917  1.0424
  127OSM    H7G13613   1.149   1.288   7.443 -0.2359  0.2611 -0.3911
  127OSM    C8F13614   1.359   1.225   7.506 -0.1907 -0.2288  0.1309
  127OSM    H8F13615   1.431   1.144   7.479 -1.3688 -1.7255  1.3326
  127OSM    H8G13616   1.317   1.203   7.606 -0.7951  2.3022  0.5047
  127OSM    C9F13617   1.432   1.357   7.504 -0.2795 -0.2489  0.2012
  127OSM    H9F13618   1.501   1.370   7.419 -0.7037 -2.0808 -0.4611
  127OSM   C10F13619   1.408   1.460   7.590  0.3451  0.1121 -0.2608
  127OSM   H10F13620   1.460   1.555   7.569 -2.1939  1.7105  0.2624
  127OSM   C11F13621   1.308   1.460   7.698  0.5611  0.4288  0.2224
  127OSM   H11F13622   1.304   1.366   7.757 -0.1505 -0.3252 -0.9993
  127OSM   H11G13623   1.209   1.484   7.655  0.0907 -1.1136  0.3804
  127OSM   C12F13624   1.333   1.571   7.802  0.9434 -0.1931  0.2760
  127OSM   H12F13625   1.254   1.569   7.879  0.3505 -0.3712 -0.3300
  127OSM   H12G13626   1.306   1.667   7.752  0.4241 -0.4526  0.0546
  127OSM   C13F13627   1.479   1.563   7.864  0.4947 -0.0508  0.3606
  127OSM   H13F13628   1.560   1.563   7.788  0.5437  2.7427  0.3095
  127OSM   H13G13629   1.507   1.468   7.915  0.6109 -0.4406 -0.4231
  127OSM   C14F13630   1.507   1.671   7.965 -0.5042  0.1193  0.2412
  127OSM   H14F13631   1.423   1.676   8.037 -0.4579 -0.4149  0.3349
  127OSM   H14G13632   1.513   1.771   7.916 -2.0838 -0.8733 -2.1190
  127OSM   C15F13633   1.636   1.650   8.049  0.1554  0.3266 -0.3901
  127OSM   H15F13634   1.722   1.678   7.984 -0.7066  1.2517 -1.1703
  127OSM   H15G13635   1.642   1.541   8.070 -2.5515 -0.0000 -0.9588
  127OSM   C16F13636   1.642   1.744   8.175 -0.6535 -0.1510 -0.3544
  127OSM   H16F13637   1.541   1.751   8.222  0.0426  0.4058  1.0834
  127OSM   H16G13638   1.688   1.841   8.146  0.4465 -0.9332 -1.3123
  127OSM   C17F13639   1.733   1.681   8.282  0.1685  0.4812  0.5836
  127OSM   H17F13640   1.683   1.587   8.315  0.4290  0.6550  1.4818
  127OSM   H17G13641   1.743   1.749   8.369  2.4711  0.7807  0.1635
  127OSM   C18F13642   1.873   1.624   8.246 -0.4536 -0.6678  0.4225
  127OSM   H18F13643   1.861   1.532   8.184  2.2687 -1.5742  1.1074
  127OSM   H18G13644   1.915   1.601   8.346 -2.1693 -0.7441  1.1693
  127OSM   H18H13645   1.930   1.702   8.191 -0.3920 -1.0753 -0.1018
  128OSM      N13646   1.794   5.405   6.132 -0.0211 -0.0407 -0.7323
  128OSM    C1513647   1.845   5.263   6.149  0.3111  0.1666 -0.3247
  128OSM   H15A13648   1.853   5.214   6.053 -0.1378  0.0559 -0.3075
  128OSM   H15B13649   1.768   5.198   6.188 -0.6328  1.2232 -0.3783
  128OSM   H15C13650   1.937   5.243   6.202 -0.2949 -1.7335  0.1056
  128OSM    C1413651   1.900   5.486   6.057  0.0645  0.3376  0.0515
  128OSM   H14A13652   1.856   5.584   6.046 -1.7625 -0.4103  0.4454
  128OSM   H14B13653   1.914   5.434   5.963  2.1749 -0.0432  0.5255
  128OSM   H14C13654   1.995   5.485   6.109 -0.7325  1.1005  1.5799
  128OSM    C1313655   1.674   5.408   6.050 -1.0121 -0.2369  0.7390
  128OSM   H13A13656   1.632   5.507   6.037 -1.0607 -0.3535 -0.0345
  128OSM   H13B13657   1.604   5.335   6.087 -0.2859 -0.9116  0.8138
  128OSM   H13C13658   1.690   5.359   5.955 -1.2671  0.4931  0.3143
  128OSM    C1213659   1.759   5.477   6.266  0.5568 -0.1256  0.8474
  128OSM   H12A13660   1.706   5.568   6.242 -2.0377 -1.8223 -0.3843
  128OSM   H12B13661   1.848   5.493   6.325 -0.1293  0.7878  1.6554
  128OSM    C1113662   1.663   5.401   6.362 -0.2027  0.2942 -0.3039
  128OSM   H11A13663   1.665   5.450   6.462 -0.0549  0.8684 -0.5856
  128OSM   H11B13664   1.689   5.295   6.385 -1.0114 -0.1229 -1.2515
  128OSM      P13665   1.428   5.509   6.306 -0.6968 -0.0068 -0.1659
  128OSM    O1313666   1.483   5.615   6.224  0.3211  0.3100  0.2963
  128OSM    O1413667   1.296   5.457   6.272  0.7545  0.5109  0.1451
  128OSM    O1113668   1.438   5.551   6.457  0.2655 -0.3079  0.0454
  128OSM    O1213669   1.530   5.391   6.304  0.7109 -0.0775 -0.5437
  128OSM    C1S13670   1.402   5.458   6.554 -0.0252  0.7947 -0.4516
  128OSM    H1S13671   1.461   5.365   6.540  1.1130  1.4231  0.1051
  128OSM    H1T13672   1.293   5.435   6.558  0.1237  0.2215  1.1555
  128OSM     NF13673   1.428   5.403   6.798 -0.9966  0.7035  0.7319
  128OSM    HNF13674   1.343   5.379   6.843 -0.3461  0.0983  1.6865
  128OSM    C2S13675   1.433   5.506   6.698 -0.3666 -0.3989 -0.1030
  128OSM    H2S13676   1.536   5.547   6.700 -0.9711  1.1715  1.0471
  128OSM    C3S13677   1.339   5.627   6.727  0.4908  0.0136 -0.2026
  128OSM    H3S13678   1.236   5.596   6.753  0.6740 -0.0250  0.5056
  128OSM     O313679   1.342   5.729   6.629  0.2751 -0.3849  0.2437
  128OSM    HO313680   1.391   5.686   6.559  0.7820 -1.3233  1.1624
  128OSM    C4S13681   1.375   5.698   6.851  0.3259  0.6010  0.1519
  128OSM    H4S13682   1.470   5.754   6.850 -0.2181  1.5398 -0.8866
  128OSM    C5S13683   1.309   5.706   6.968 -0.0099 -0.5716  0.0354
  128OSM    H5S13684   1.220   5.641   6.980  0.6108 -1.8309 -1.7827
  128OSM    C6S13685   1.331   5.787   7.096 -0.4761 -0.1452  0.4289
  128OSM    H6S13686   1.328   5.721   7.185  0.3322  0.4612  0.9081
  128OSM    H6T13687   1.255   5.868   7.104  0.0193  0.3116  0.5665
  128OSM    C7S13688   1.473   5.863   7.107  0.1267  0.6958 -0.9208
  128OSM    H7S13689   1.484   5.933   7.022  0.7850 -1.3840 -2.6247
  128OSM    H7T13690   1.556   5.790   7.105  3.0455  3.7820 -0.2199
  128OSM    C8S13691   1.478   5.939   7.243  0.1519 -0.6764 -0.6677
  128OSM    H8S13692   1.376   5.965   7.276  0.9251  0.2602  1.0725
  128OSM    H8T13693   1.529   6.037   7.231 -1.9713  0.6200  0.4577
  128OSM    C9S13694   1.538   5.855   7.359 -0.2544  0.1654  0.2699
  128OSM    H9S13695   1.642   5.821   7.342 -0.9001 -2.4079  1.1133
  128OSM    H9T13696   1.475   5.766   7.376 -0.1357 -0.5174 -2.3228
  128OSM   C10S13697   1.546   5.944   7.488  0.2567 -0.0680 -0.1148
  128OSM   H10S13698   1.442   5.959   7.525 -0.2721 -3.2698 -0.0217
  128OSM   H10T13699   1.594   6.041   7.461  0.4566 -0.5788 -1.6905
  128OSM   C11S13700   1.620   5.874   7.599 -0.7902  0.9081 -0.0919
  128OSM   H11S13701   1.712   5.826   7.560 -0.2786  1.6440  0.1870
  128OSM   H11T13702   1.563   5.786   7.637  0.0697  0.5964  0.5246
  128OSM   C12S13703   1.642   5.963   7.721 -0.4129 -0.6431 -0.6486
  128OSM   H12S13704   1.550   6.017   7.751 -1.3101 -3.2802  1.7209
  128OSM   H12T13705   1.718   6.037   7.686 -2.2136  0.7434 -1.7948
  128OSM   C13S13706   1.691   5.888   7.842 -0.7538  0.2855 -0.3395
  128OSM   H13S13707   1.798   5.876   7.814 -0.1953  4.2930 -0.5674
  128OSM   H13T13708   1.630   5.795   7.849  1.9726 -1.6775 -1.0932
  128OSM   C14S13709   1.676   5.976   7.964  0.0545 -0.1663 -0.2457
  128OSM   H14S13710   1.574   6.021   7.972  0.0914 -0.3146  1.2894
  128OSM   H14T13711   1.750   6.057   7.945 -0.1292  0.2021  0.5770
  128OSM   C15S13712   1.707   5.904   8.097  0.3472  0.0824  0.1831
  128OSM   H15S13713   1.808   5.925   8.138  0.7613  1.3962 -1.4009
  128OSM   H15T13714   1.693   5.795   8.078 -0.8031  0.1270  0.6828
  128OSM   C16S13715   1.595   5.930   8.199 -0.0518 -0.0940  0.2056
  128OSM   H16S13716   1.497   5.897   8.160 -0.4637 -2.2515  2.7783
  128OSM   H16T13717   1.586   6.037   8.226 -0.3358 -0.6889  2.7953
  128OSM   C17S13718   1.614   5.850   8.335  0.1169  0.1878  0.3842
  128OSM   H17S13719   1.646   5.747   8.307  0.6792  0.9389 -2.0353
  128OSM   H17T13720   1.516   5.839   8.387  1.3774 -2.1109  2.4486
  128OSM   C18S13721   1.724   5.906   8.426  0.0812 -0.6009 -0.7669
  128OSM   H18S13722   1.736   5.848   8.519 -2.0441 -0.4601 -0.3395
  128OSM   H18T13723   1.703   6.014   8.445  0.9399 -0.3734 -1.0472
  128OSM   H18U13724   1.817   5.900   8.365  0.2890 -0.6418 -0.4428
  128OSM    C1F13725   1.521   5.301   6.802  1.1332 -0.4121  0.3748
  128OSM     OF13726   1.618   5.298   6.728  0.4703  0.4838 -0.0742
  128OSM    C2F13727   1.497   5.194   6.903 -0.4828 -0.5869  0.3951
  128OSM    H2F13728   1.596   5.161   6.941  1.3774  3.4316 -0.3548
  128OSM    H2G13729   1.449   5.107   6.855  3.8502 -1.2417 -3.3987
  128OSM    C3F13730   1.413   5.232   7.034 -0.1484  0.3772  0.3409
  128OSM    H3F13731   1.389   5.130   7.069  2.4022 -0.0959  0.9248
  128OSM    H3G13732   1.314   5.281   7.022 -0.5330 -0.4661 -0.0007
  128OSM    C4F13733   1.486   5.300   7.143 -0.6640 -0.4554 -0.0786
  128OSM    H4F13734   1.508   5.399   7.097  0.7627 -0.8010 -0.1641
  128OSM    H4G13735   1.582   5.254   7.175 -0.8528 -1.1783 -0.5515
  128OSM    C5F13736   1.392   5.323   7.266  0.0256  0.3902 -0.3875
  128OSM    H5F13737   1.364   5.221   7.299  1.2760 -0.2422 -1.1911
  128OSM    H5G13738   1.302   5.385   7.250 -0.6588 -0.6635 -0.7301
  128OSM    C6F13739   1.472   5.381   7.389  0.6066  0.2129  0.7646
  128OSM    H6F13740   1.505   5.484   7.364 -2.8227  1.0796 -0.8430
  128OSM    H6G13741   1.564   5.318   7.385  0.3261 -0.1783  0.2712
  128OSM    C7F13742   1.403   5.366   7.523  0.3581  0.2187 -0.2014
  128OSM    H7F13743   1.402   5.260   7.553 -3.4268 -0.2115 -1.3158
  128OSM    H7G13744   1.295   5.391   7.521  0.3725  0.7220  2.1181
  128OSM    C8F13745   1.460   5.471   7.623  0.3545  0.6248 -0.9851
  128OSM    H8F13746   1.370   5.493   7.683  0.5974 -2.6284  0.7669
  128OSM    H8G13747   1.485   5.566   7.570 -1.1650 -0.3541 -3.6178
  128OSM    C9F13748   1.565   5.408   7.705 -0.0474  0.5141 -0.6178
  128OSM    H9F13749   1.648   5.363   7.648  0.3143 -0.5550  0.7088
  128OSM   C10F13750   1.570   5.373   7.835  0.1423  0.1761  0.0292
  128OSM   H10F13751   1.662   5.328   7.875 -0.3581  0.9925  2.2151
  128OSM   C11F13752   1.461   5.413   7.929  0.6086  0.4610  0.0356
  128OSM   H11F13753   1.364   5.387   7.883  0.2590 -0.4775  1.2638
  128OSM   H11G13754   1.444   5.520   7.955 -0.6810  0.1805  0.4208
  128OSM   C12F13755   1.464   5.344   8.064  0.5936 -0.3664  0.7356
  128OSM   H12F13756   1.475   5.234   8.054 -0.7068 -0.3921 -0.6625
  128OSM   H12G13757   1.366   5.366   8.111 -0.4534 -2.4825 -0.3010
  128OSM   C13F13758   1.583   5.390   8.159  0.2374 -0.8002 -0.1856
  128OSM   H13F13759   1.591   5.499   8.143  3.1834 -0.6626  1.5443
  128OSM   H13G13760   1.672   5.334   8.121  1.1885 -1.0397  2.2125
  128OSM   C14F13761   1.573   5.335   8.300 -0.3853 -0.6468 -0.6587
  128OSM   H14F13762   1.555   5.225   8.291 -1.4356 -0.5855  0.4046
  128OSM   H14G13763   1.478   5.377   8.339  1.7154 -0.0401  4.6373
  128OSM   C15F13764   1.689   5.393   8.384 -0.4006 -0.1963  0.7673
  128OSM   H15F13765   1.690   5.504   8.385  3.8206 -0.0647  0.4495
  128OSM   H15G13766   1.787   5.355   8.348 -0.2610  0.0487  0.8828
  128OSM   C16F13767   1.666   5.351   8.525  0.5783  0.6082 -0.5002
  128OSM   H16F13768   1.674   5.240   8.529  0.2995  0.4850 -2.5581
  128OSM   H16G13769   1.562   5.378   8.554  0.2724  1.1449 -1.9954
  128OSM   C17F13770   1.769   5.406   8.631 -0.1015 -0.1143 -0.2679
  128OSM   H17F13771   1.875   5.398   8.597  0.1415  0.1963  0.4017
  128OSM   H17G13772   1.763   5.340   8.721 -1.3263  0.1581 -0.1303
  128OSM   C18F13773   1.753   5.553   8.666  0.4308  0.1177  0.1830
  128OSM   H18F13774   1.751   5.619   8.576 -1.5522  0.4913  0.4580
  128OSM   H18G13775   1.829   5.588   8.739  0.5998 -0.4235  0.2678
  128OSM   H18H13776   1.657   5.579   8.715  0.4237 -0.4261  0.4616
  129OSM      N13777   0.669   6.068   6.258  0.5877  0.0453  0.0406
  129OSM    C1513778   0.762   5.948   6.293 -0.4950 -0.0737 -0.2946
  129OSM   H15A13779   0.728   5.923   6.392  0.0235  2.4541  0.6036
  129OSM   H15B13780   0.863   5.986   6.300 -0.6510  1.0653 -3.0163
  129OSM   H15C13781   0.755   5.858   6.234  1.1303 -0.2497 -0.2799
  129OSM    C1413782   0.715   6.110   6.125  0.6191 -0.7313  0.4237
  129OSM   H14A13783   0.681   6.212   6.120 -1.0005 -1.2438  0.5834
  129OSM   H14B13784   0.674   6.050   6.046  0.0979  0.5294 -0.2990
  129OSM   H14C13785   0.823   6.116   6.123  0.5324  3.0482  0.1535
  129OSM    C1313786   0.528   6.018   6.261 -0.0959 -0.2141  0.5048
  129OSM   H13A13787   0.523   5.912   6.239 -0.5655 -0.1563  0.3272
  129OSM   H13B13788   0.456   6.065   6.197 -1.5797 -2.0086  0.7627
  129OSM   H13C13789   0.479   6.033   6.355 -2.3280  0.8806 -0.7643
  129OSM    C1213790   0.678   6.171   6.366  0.0944 -0.5098  0.0091
  129OSM   H12A13791   0.782   6.201   6.369  0.2364 -0.9607 -0.2984
  129OSM   H12B13792   0.638   6.132   6.458 -0.6716 -1.3129 -0.6416
  129OSM    C1113793   0.607   6.303   6.322 -0.1941  0.5424  0.5915
  129OSM   H11A13794   0.588   6.351   6.421  0.3065 -0.5723  1.2472
  129OSM   H11B13795   0.510   6.276   6.276 -0.1682  0.7629  0.4062
  129OSM      P13796   0.819   6.445   6.292  0.4232  0.4036  0.0813
  129OSM    O1313797   0.937   6.364   6.255 -0.0845 -0.2588 -0.3955
  129OSM    O1413798   0.829   6.586   6.247  0.3980  0.1791  0.0197
  129OSM    O1113799   0.800   6.427   6.448 -0.7299 -0.0779 -0.1988
  129OSM    O1213800   0.685   6.380   6.238 -0.7118 -0.3552 -0.0857
  129OSM    C1S13801   0.831   6.538   6.540  0.7252  0.7245  0.4692
  129OSM    H1S13802   0.742   6.604   6.546 -0.5709 -1.0439  4.6013
  129OSM    H1T13803   0.924   6.593   6.515  0.8532  0.6432  0.7601
  129OSM     NF13804   0.858   6.598   6.783  0.2553  0.8748  0.2516
  129OSM    HNF13805   0.950   6.606   6.821  0.4476  0.6139 -0.1479
  129OSM    C2S13806   0.848   6.491   6.682  0.0953 -0.4151 -0.3402
  129OSM    H2S13807   0.759   6.425   6.693 -0.3716  0.0348 -1.3155
  129OSM    C3S13808   0.980   6.397   6.695  0.6186 -1.1831  1.0039
  129OSM    H3S13809   1.071   6.453   6.666 -1.0232 -0.7289 -4.5297
  129OSM     O313810   0.990   6.300   6.592  0.7372 -0.7313  0.2060
  129OSM    HO313811   0.923   6.333   6.532 -0.0794  0.2288  1.5742
  129OSM    C4S13812   0.997   6.344   6.828  0.4917  1.3910 -0.6637
  129OSM    H4S13813   1.081   6.378   6.891  1.6662 -1.4988 -0.5121
  129OSM    C5S13814   0.917   6.243   6.881  0.2500  0.2074 -0.0759
  129OSM    H5S13815   0.819   6.215   6.841 -1.1896 -0.3566  3.5144
  129OSM    C6S13816   0.931   6.178   7.016 -0.2619 -0.3971  0.4867
  129OSM    H6S13817   1.019   6.111   7.010  0.1809  0.2678 -0.5745
  129OSM    H6T13818   0.831   6.129   7.025 -1.7799  2.3754  0.0401
  129OSM    C7S13819   0.953   6.262   7.143 -0.6397 -0.1082  0.3745
  129OSM    H7S13820   0.860   6.320   7.163 -0.3613  0.6653 -0.5289
  129OSM    H7T13821   1.032   6.338   7.132 -2.0380  1.2057 -1.0586
  129OSM    C8S13822   0.992   6.172   7.257  0.3971 -0.5193 -0.2302
  129OSM    H8S13823   1.099   6.142   7.250  0.1276 -2.1649  1.8493
  129OSM    H8T13824   0.929   6.081   7.253  1.0794 -1.1571  1.9971
  129OSM    C9S13825   0.969   6.249   7.389  0.1693  0.7702 -0.9453
  129OSM    H9S13826   0.861   6.249   7.413  0.4845 -2.4878  1.1265
  129OSM    H9T13827   1.008   6.352   7.378  1.0133  0.8188  1.7212
  129OSM   C10S13828   1.041   6.183   7.506 -0.4548 -0.5079  0.0463
  129OSM   H10S13829   1.145   6.217   7.490 -0.4850 -0.1351  0.6362
  129OSM   H10T13830   1.044   6.072   7.501 -1.0713 -0.5453  0.4074
  129OSM   C11S13831   0.989   6.213   7.642  1.1226  0.2328  0.6399
  129OSM   H11S13832   1.054   6.163   7.716  0.6087 -0.6470  0.5030
  129OSM   H11T13833   0.880   6.195   7.647  1.1811 -1.0674 -1.3731
  129OSM   C12S13834   1.003   6.363   7.668  0.0278  0.7401  0.1107
  129OSM   H12S13835   0.912   6.420   7.642  0.2165  0.6658 -0.7260
  129OSM   H12T13836   1.083   6.410   7.607  2.0910  0.7832  2.6582
  129OSM   C13S13837   1.040   6.402   7.811 -0.6015  0.3030 -0.2279
  129OSM   H13S13838   1.022   6.511   7.818  2.1848  0.8792 -0.9270
  129OSM   H13T13839   1.149   6.390   7.828 -0.8531  0.7346  2.0114
  129OSM   C14S13840   0.962   6.337   7.924 -0.6858  0.6758 -0.6031
  129OSM   H14S13841   0.988   6.231   7.939  1.1214  0.9893 -1.3366
  129OSM   H14T13842   0.851   6.345   7.912 -0.5522  1.4078 -1.4767
  129OSM   C15S13843   0.984   6.397   8.062  0.1046  0.2728  0.8971
  129OSM   H15S13844   0.959   6.503   8.040 -0.1009 -0.2449 -1.6068
  129OSM   H15T13845   1.092   6.394   8.086  1.2979  0.5905 -3.6021
  129OSM   C16S13846   0.904   6.346   8.185  0.1835  0.3683  0.4969
  129OSM   H16S13847   0.891   6.237   8.171 -0.0505  0.5506 -0.9127
  129OSM   H16T13848   0.807   6.401   8.194 -0.3811 -0.5957  0.4309
  129OSM   C17S13849   0.971   6.380   8.321  0.0089 -0.1319  0.6406
  129OSM   H17S13850   0.993   6.488   8.304 -1.6906  0.2425  0.7272
  129OSM   H17T13851   1.066   6.323   8.337 -0.4033 -1.2258 -0.6627
  129OSM   C18S13852   0.882   6.364   8.448 -0.6032  0.3947 -0.1515
  129OSM   H18S13853   0.855   6.257   8.457  0.0652  0.3992  3.3669
  129OSM   H18T13854   0.782   6.412   8.446 -1.1275 -0.6863 -0.7405
  129OSM   H18U13855   0.949   6.386   8.534  0.5343  0.3179 -0.9977
  129OSM    C1F13856   0.763   6.677   6.816  0.3879 -0.4525 -0.3924
  129OSM     OF13857   0.657   6.670   6.753 -0.3779 -0.8139  0.6868
  129OSM    C2F13858   0.781   6.775   6.928 -0.2433  0.4509  0.2415
  129OSM    H2F13859   0.704   6.855   6.926 -1.3147 -0.4564  2.5018
  129OSM    H2G13860   0.880   6.823   6.909 -0.4741  1.5854  1.6813
  129OSM    C3F13861   0.776   6.705   7.068 -0.7029 -0.3845 -0.0247
  129OSM    H3F13862   0.824   6.605   7.068 -0.0541 -0.1417 -2.6082
  129OSM    H3G13863   0.668   6.703   7.092 -0.2387  1.2070  2.7393
  129OSM    C4F13864   0.844   6.795   7.182  0.8104 -0.9432  0.0958
  129OSM    H4F13865   0.783   6.888   7.194  3.0784  0.6247 -0.0015
  129OSM    H4G13866   0.948   6.819   7.155  0.7531  2.0287  2.0144
  129OSM    C5F13867   0.847   6.715   7.313  0.1210  0.7114 -0.2676
  129OSM    H5F13868   0.909   6.624   7.302  0.8402  0.8795  1.8948
  129OSM    H5G13869   0.740   6.689   7.326  0.3250  0.6212  1.5502
  129OSM    C6F13870   0.903   6.790   7.432 -0.3732 -0.2677  0.1543
  129OSM    H6F13871   0.850   6.888   7.435  0.1466  0.1618 -2.1055
  129OSM    H6G13872   1.008   6.824   7.415 -0.9810  1.4694 -0.3543
  129OSM    C7F13873   0.910   6.725   7.571  0.0453 -0.5209 -0.2108
  129OSM    H7F13874   0.981   6.790   7.628  0.1757 -0.6910 -0.1772
  129OSM    H7G13875   0.969   6.633   7.553  1.8001  0.4737  0.2239
  129OSM    C8F13876   0.774   6.704   7.631  1.2101  0.2888 -0.0074
  129OSM    H8F13877   0.775   6.635   7.718  0.6921 -0.3509 -0.5057
  129OSM    H8G13878   0.707   6.667   7.551  0.3297  0.4293  0.6506
  129OSM    C9F13879   0.716   6.837   7.671 -0.0766 -0.6438 -0.0433
  129OSM    H9F13880   0.713   6.917   7.596 -1.0916  0.3740  1.0571
  129OSM   C10F13881   0.677   6.866   7.802  0.0085 -0.2545  1.0174
  129OSM   H10F13882   0.618   6.957   7.819 -1.1530 -0.6055 -0.7899
  129OSM   C11F13883   0.683   6.768   7.912  0.5527  0.0618 -0.1621
  129OSM   H11F13884   0.789   6.737   7.928  0.1465 -1.4477 -0.3021
  129OSM   H11G13885   0.627   6.677   7.882 -0.6778  0.9647 -0.6999
  129OSM   C12F13886   0.649   6.830   8.042  0.0782  0.4181 -0.8338
  129OSM   H12F13887   0.540   6.848   8.044 -0.0346 -0.2642 -0.3087
  129OSM   H12G13888   0.687   6.933   8.060 -1.1357  0.7430  0.0046
  129OSM   C13F13889   0.679   6.748   8.165 -1.0620  0.2057  0.1773
  129OSM   H13F13890   0.787   6.720   8.162 -0.5777  2.0227 -0.9106
  129OSM   H13G13891   0.617   6.655   8.168  0.0902 -0.5753  2.7388
  129OSM   C14F13892   0.649   6.828   8.294 -0.1890 -0.0410  0.2618
  129OSM   H14F13893   0.670   6.765   8.383 -1.4164 -0.4732  0.2613
  129OSM   H14G13894   0.539   6.842   8.284  0.2201  2.1021 -2.3709
  129OSM   C15F13895   0.734   6.957   8.307 -0.0067 -0.6270  0.2211
  129OSM   H15F13896   0.731   7.016   8.213 -2.0771 -1.2737 -0.1689
  129OSM   H15G13897   0.838   6.919   8.320  0.3383 -0.3459 -1.5728
  129OSM   C16F13898   0.689   7.046   8.422  0.5044  0.2393  0.8222
  129OSM   H16F13899   0.752   7.137   8.416  0.0494  0.5078  0.1407
  129OSM   H16G13900   0.691   6.992   8.519 -0.1196  0.0144  0.7112
  129OSM   C17F13901   0.539   7.088   8.420  0.2117 -0.8688  0.3326
  129OSM   H17F13902   0.512   7.136   8.516  0.8848 -0.7225  0.4526
  129OSM   H17G13903   0.464   7.009   8.400  0.3598 -0.3540 -2.8437
  129OSM   C18F13904   0.506   7.192   8.308 -0.7027 -0.0242 -0.3085
  129OSM   H18F13905   0.495   7.128   8.218  1.0388  0.3420 -0.8109
  129OSM   H18G13906   0.593   7.259   8.298  0.6271 -1.7411 -0.6752
  129OSM   H18H13907   0.414   7.250   8.331 -0.2804  0.4524  0.2003
  130OSM      N13908   0.508   3.138   6.512  0.4793  0.1891  0.3657
  130OSM    C1513909   0.497   3.126   6.663  0.1808 -0.2456  0.0576
  130OSM   H15A13910   0.416   3.189   6.697 -0.1985 -0.8376  0.2735
  130OSM   H15B13911   0.590   3.159   6.707  0.1247 -0.8827  0.6884
  130OSM   H15C13912   0.482   3.020   6.682 -0.8855 -0.4223 -1.6220
  130OSM    C1413913   0.599   3.027   6.471  0.1943  0.2835 -0.0009
  130OSM   H14A13914   0.703   3.035   6.500  0.1695 -1.2932  0.6058
  130OSM   H14B13915   0.599   2.996   6.368  0.8843 -3.0776  0.9160
  130OSM   H14C13916   0.561   2.938   6.518 -1.0508  0.8875  0.1793
  130OSM    C1313917   0.376   3.123   6.442  0.1737 -0.4248 -0.0620
  130OSM   H13A13918   0.314   3.211   6.450  0.7721 -0.1766  3.8362
  130OSM   H13B13919   0.320   3.042   6.486  0.9491 -1.3803 -0.7917
  130OSM   H13C13920   0.388   3.094   6.338  1.9836 -1.3444  0.3531
  130OSM    C1213921   0.574   3.265   6.473  0.2527 -0.3639 -0.2837
  130OSM   H12A13922   0.595   3.250   6.368  0.9549 -0.4064 -0.1439
  130OSM   H12B13923   0.674   3.273   6.512 -0.0121 -0.2729  0.3892
  130OSM    C1113924   0.510   3.404   6.481  1.1405 -0.5638 -0.0032
  130OSM   H11A13925   0.580   3.479   6.437  0.3492  2.5160  3.4609
  130OSM   H11B13926   0.495   3.447   6.582  1.3549  1.1533 -0.6568
  130OSM      P13927   0.284   3.521   6.412  0.3220 -0.2480  0.0767
  130OSM    O1313928   0.368   3.634   6.363 -0.1228 -0.6878 -0.0115
  130OSM    O1413929   0.165   3.478   6.327 -0.1212 -0.4631  0.0066
  130OSM    O1113930   0.234   3.532   6.559 -0.2392 -0.4904 -0.2535
  130OSM    O1213931   0.383   3.395   6.411  0.1094 -0.1471  0.0611
  130OSM    C1S13932   0.186   3.414   6.626  0.1427  0.6823  0.6537
  130OSM    H1S13933   0.264   3.334   6.624 -1.5738 -1.0509 -1.2676
  130OSM    H1T13934   0.096   3.367   6.580 -0.5186  1.6422  0.9514
  130OSM     NF13935   0.089   3.325   6.842 -0.0314 -0.2721 -0.0072
  130OSM    HNF13936  -0.007   3.311   6.821 -0.3477  0.0479  1.2023
  130OSM    C2S13937   0.140   3.444   6.772 -0.1986  0.0794 -0.5445
  130OSM    H2S13938   0.231   3.480   6.825  0.6739 -1.0728 -1.2200
  130OSM    C3S13939   0.042   3.561   6.768  0.1369 -0.3771  0.0457
  130OSM    H3S13940  -0.055   3.529   6.723 -1.4396 -1.4041  3.7609
  130OSM     O313941   0.102   3.675   6.710  0.1486  0.1646 -0.4924
  130OSM    HO313942   0.170   3.639   6.652  1.4876 -0.8197  1.5731
  130OSM    C4S13943   0.012   3.592   6.916  0.2856  0.1879 -0.1949
  130OSM    H4S13944   0.090   3.652   6.965 -0.4394  1.6179 -0.7416
  130OSM    C5S13945  -0.105   3.558   6.979  0.0638 -0.3809 -0.2012
  130OSM    H5S13946  -0.183   3.501   6.927  0.5798 -2.0631  0.7852
  130OSM    C6S13947  -0.123   3.593   7.127  0.8303  0.4677 -0.1397
  130OSM    H6S13948  -0.175   3.505   7.170  2.1620  0.3427  1.3165
  130OSM    H6T13949  -0.197   3.676   7.136 -0.9350 -1.1005  0.3977
  130OSM    C7S13950  -0.002   3.621   7.218  0.2267  0.2325  0.0021
  130OSM    H7S13951   0.035   3.718   7.179  0.0772  0.2899  0.0027
  130OSM    H7T13952   0.077   3.544   7.211  0.3595  0.4955 -1.7268
  130OSM    C8S13953  -0.035   3.644   7.368  0.0946  1.2356  0.2782
  130OSM    H8S13954  -0.134   3.693   7.363 -0.9485 -0.6321  1.4812
  130OSM    H8T13955   0.041   3.717   7.402 -1.3673  3.0636 -0.2192
  130OSM    C9S13956  -0.035   3.509   7.447  0.5533 -0.7743 -0.5358
  130OSM    H9S13957   0.070   3.476   7.435  0.6246  0.0577 -2.7448
  130OSM    H9T13958  -0.099   3.430   7.402  0.7177 -2.7902  2.4797
  130OSM   C10S13959  -0.077   3.535   7.597  0.5956  0.3903 -0.4110
  130OSM   H10S13960  -0.101   3.441   7.652 -0.3944  0.7607 -0.1846
  130OSM   H10T13961  -0.173   3.591   7.598 -0.0256 -0.5900  1.7994
  130OSM   C11S13962   0.023   3.608   7.679 -0.5393 -0.3683 -0.0790
  130OSM   H11S13963  -0.006   3.715   7.677 -0.8408 -0.3920  1.5627
  130OSM   H11T13964   0.122   3.578   7.639 -1.7442 -1.1561 -2.6340
  130OSM   C12S13965  -0.000   3.549   7.829  0.1537 -0.2591 -0.1580
  130OSM   H12S13966   0.099   3.530   7.874 -0.1590 -1.6305 -0.0215
  130OSM   H12T13967  -0.051   3.451   7.834  2.0256 -1.3176 -0.7865
  130OSM   C13S13968  -0.080   3.654   7.918 -0.2779  0.4727  0.7018
  130OSM   H13S13969  -0.185   3.637   7.887 -0.7705  1.2981  1.8624
  130OSM   H13T13970  -0.057   3.761   7.896 -2.0796  0.8236  0.4166
  130OSM   C14S13971  -0.067   3.633   8.065  0.3134  0.4497 -0.0741
  130OSM   H14S13972   0.042   3.642   8.082  0.4345 -0.0501 -0.5666
  130OSM   H14T13973  -0.083   3.526   8.092 -0.0859  0.4605 -0.2599
  130OSM   C15S13974  -0.162   3.725   8.142  0.0288 -0.0765 -0.1202
  130OSM   H15S13975  -0.264   3.696   8.111 -0.3910 -0.4884  1.5349
  130OSM   H15T13976  -0.148   3.834   8.128  2.7275 -0.1485  1.3296
  130OSM   C16S13977  -0.152   3.698   8.295 -0.1690  0.1457  0.4784
  130OSM   H16S13978  -0.042   3.710   8.309 -0.0401 -0.1471 -0.2862
  130OSM   H16T13979  -0.156   3.588   8.306 -0.0292 -0.3560 -3.3629
  130OSM   C17S13980  -0.241   3.789   8.383 -0.6255 -0.1800 -0.5474
  130OSM   H17S13981  -0.248   3.886   8.329 -1.5884  0.2135  0.2598
  130OSM   H17T13982  -0.188   3.794   8.481  1.9827  1.0174 -1.8864
  130OSM   C18S13983  -0.379   3.717   8.398 -0.0120  0.0308 -0.6077
  130OSM   H18S13984  -0.456   3.775   8.453  1.8832  0.1923  2.0831
  130OSM   H18T13985  -0.374   3.617   8.447  1.5397 -0.3093 -1.3961
  130OSM   H18U13986  -0.403   3.690   8.293  0.2141  1.7260 -1.1174
  130OSM    C1F13987   0.162   3.216   6.862 -0.2309 -0.2110 -0.7516
  130OSM     OF13988   0.286   3.212   6.868  0.3526  0.0007  0.0523
  130OSM    C2F13989   0.086   3.089   6.866  0.5800 -0.5010 -0.5096
  130OSM    H2F13990   0.101   3.024   6.777 -0.0176 -0.3959 -0.6912
  130OSM    H2G13991  -0.023   3.109   6.868  0.7848  0.8764  2.4942
  130OSM    C3F13992   0.120   3.007   6.994  0.6352 -0.5540 -0.0740
  130OSM    H3F13993   0.223   2.965   7.000  0.1932 -1.4395  3.3824
  130OSM    H3G13994   0.046   2.925   7.001 -0.5147  0.5367  1.0994
  130OSM    C4F13995   0.093   3.090   7.124 -0.5321  0.0500  0.4598
  130OSM    H4F13996  -0.007   3.139   7.122 -0.1859  0.7336 -1.0939
  130OSM    H4G13997   0.164   3.175   7.131 -1.3318  1.1127 -2.6066
  130OSM    C5F13998   0.111   3.012   7.255 -0.2068  1.1054  0.4163
  130OSM    H5F13999   0.215   2.972   7.263 -0.9990 -1.3320 -0.6807
  130OSM    H5G14000   0.039   2.928   7.246  0.2235  0.9398 -2.8152
  130OSM    C6F14001   0.075   3.092   7.383  0.6133 -0.9254  0.4233
  130OSM    H6F14002  -0.035   3.106   7.393  0.5089 -1.3491 -0.1155
  130OSM    H6G14003   0.123   3.193   7.380  1.0165 -1.1243  0.0685
  130OSM    C7F14004   0.111   3.021   7.519 -0.4700 -0.1247 -0.2673
  130OSM    H7F14005   0.220   2.998   7.515 -0.0887  1.6709 -3.1103
  130OSM    H7G14006   0.068   2.919   7.522  0.5293 -0.5449  1.9776
  130OSM    C8F14007   0.077   3.114   7.642  0.2518  0.4553 -0.2285
  130OSM    H8F14008   0.114   3.218   7.645  2.9178 -0.4574  1.1307
  130OSM    H8G14009   0.142   3.067   7.719  0.2983  0.5197 -0.2289
  130OSM    C9F14010  -0.073   3.114   7.670 -1.0017 -0.3031 -0.0150
  130OSM    H9F14011  -0.140   3.122   7.584 -1.9397 -1.6167  0.5639
  130OSM   C10F14012  -0.118   3.108   7.796 -0.3468  0.3098  0.0804
  130OSM   H10F14013  -0.227   3.100   7.808 -0.5802  0.9246 -1.3421
  130OSM   C11F14014  -0.030   3.088   7.918  0.8960 -0.2727 -0.5012
  130OSM   H11F14015   0.025   3.184   7.927 -1.1038  0.8251  0.4447
  130OSM   H11G14016   0.047   3.011   7.895 -0.1413 -1.3741 -0.4123
  130OSM   C12F14017  -0.100   3.056   8.048 -0.0165  0.4510 -0.5716
  130OSM   H12F14018  -0.132   2.950   8.058 -1.0075  0.9359  2.3018
  130OSM   H12G14019  -0.196   3.112   8.045 -0.9355 -1.0861 -0.9844
  130OSM   C13F14020  -0.021   3.095   8.169  0.4277 -0.3153  0.2967
  130OSM   H13F14021   0.042   3.184   8.149 -0.3011 -0.0848 -1.1027
  130OSM   H13G14022   0.050   3.014   8.197 -0.5129 -1.5190 -0.7030
  130OSM   C14F14023  -0.117   3.119   8.280 -0.6281  0.2464  0.5610
  130OSM   H14F14024  -0.162   3.023   8.312 -0.1331 -0.7522 -1.5583
  130OSM   H14G14025  -0.199   3.190   8.255 -2.4395 -1.8364  0.2880
  130OSM   C15F14026  -0.046   3.174   8.400  0.1361 -0.0228 -0.0438
  130OSM   H15F14027  -0.132   3.217   8.455 -1.0959 -0.6425 -1.4198
  130OSM   H15G14028   0.019   3.263   8.384 -0.4035  0.2312 -0.9235
  130OSM   C16F14029   0.031   3.076   8.494 -0.2305 -0.2872  0.4956
  130OSM   H16F14030   0.134   3.117   8.486 -1.5189  3.4170  0.8857
  130OSM   H16G14031   0.019   2.970   8.464 -0.4912 -1.0146  2.9341
  130OSM   C17F14032   0.015   3.095   8.647  0.1880  0.4138  0.4566
  130OSM   H17F14033  -0.093   3.070   8.659  0.4730 -1.0237  0.2598
  130OSM   H17G14034   0.047   3.196   8.680 -0.2298  0.5886  0.3290
  130OSM   C18F14035   0.091   2.998   8.731 -0.1684 -0.1923  0.5544
  130OSM   H18F14036   0.025   2.910   8.745  2.0443 -2.4527 -1.9903
  130OSM   H18G14037   0.119   3.048   8.827 -0.5015  1.3252 -0.0999
  130OSM   H18H14038   0.185   2.979   8.676  0.8841  1.2525  1.7635
  131OSM      N14039   0.828   1.215   6.381  0.1299  0.2468 -0.1930
  131OSM    C1514040   0.973   1.190   6.413 -0.2132  0.1511  0.0482
  131OSM   H15A14041   1.009   1.089   6.407  1.3286  0.3874  3.4546
  131OSM   H15B14042   1.004   1.235   6.506  0.9144  0.0333 -0.2615
  131OSM   H15C14043   1.036   1.238   6.339  0.6726 -2.3623 -0.9484
  131OSM    C1414044   0.789   1.158   6.253  0.0274 -0.3076  0.3112
  131OSM   H14A14045   0.683   1.174   6.243  0.0191  0.3684  1.3469
  131OSM   H14B14046   0.808   1.052   6.240 -0.7920 -0.1510 -2.7460
  131OSM   H14C14047   0.834   1.216   6.174  0.0598  2.5133  2.2630
  131OSM    C1314048   0.744   1.137   6.477  1.2175 -0.3967  0.1721
  131OSM   H13A14049   0.722   1.207   6.556 -0.0241  0.6454 -1.0362
  131OSM   H13B14050   0.801   1.059   6.526  3.1108  0.9199  0.1692
  131OSM   H13C14051   0.654   1.104   6.426 -0.5895  2.8918  0.9589
  131OSM    C1214052   0.802   1.362   6.394  0.1403 -0.3655  0.2306
  131OSM   H12A14053   0.701   1.389   6.368 -0.2763 -0.2324  1.8702
  131OSM   H12B14054   0.856   1.418   6.320 -1.6949  0.8352 -0.2507
  131OSM    C1114055   0.828   1.433   6.538  0.4593 -0.1193  0.3008
  131OSM   H11A14056   0.770   1.375   6.614 -0.4464 -0.4826 -0.6499
  131OSM   H11B14057   0.802   1.542   6.536  4.1101  0.8564 -1.0966
  131OSM      P14058   1.073   1.515   6.520  0.1711  0.2214 -0.0600
  131OSM    O1314059   1.203   1.450   6.534  0.2486  0.4956  0.1289
  131OSM    O1414060   1.042   1.571   6.388 -0.6155  0.1064  0.3241
  131OSM    O1114061   1.072   1.639   6.615 -0.4968  0.2602 -0.3469
  131OSM    O1214062   0.961   1.426   6.579 -0.0630 -0.4165 -0.7454
  131OSM    C1S14063   1.047   1.627   6.757 -0.1072  0.6433  0.1564
  131OSM    H1S14064   1.091   1.533   6.798 -0.4927  1.0846  1.6548
  131OSM    H1T14065   0.939   1.636   6.780 -0.2006 -1.1556  0.5738
  131OSM     NF14066   1.077   1.746   6.981  0.0627 -0.0558 -0.5115
  131OSM    HNF14067   0.988   1.785   7.002  0.6071  0.9120  0.1065
  131OSM    C2S14068   1.096   1.758   6.836 -0.7071 -0.2426  0.0744
  131OSM    H2S14069   1.205   1.762   6.814  0.0599 -1.1175  3.2730
  131OSM    C3S14070   1.019   1.886   6.774 -0.1252  0.0346 -0.2511
  131OSM    H3S14071   0.909   1.876   6.790 -0.2499 -2.2255 -2.0481
  131OSM     O314072   1.023   1.901   6.635  0.6239 -0.0968  0.2453
  131OSM    HO314073   1.077   1.823   6.616  1.2830  0.8461 -2.0662
  131OSM    C4S14074   1.078   2.004   6.842  0.2732 -0.2264  0.2730
  131OSM    H4S14075   1.044   2.011   6.946 -1.3249 -3.4916  0.1021
  131OSM    C5S14076   1.189   2.075   6.811  0.2626  0.3821 -0.1708
  131OSM    H5S14077   1.249   2.033   6.730 -3.2645 -2.6428 -1.4774
  131OSM    C6S14078   1.253   2.175   6.897 -0.0514  0.9241 -0.2979
  131OSM    H6S14079   1.176   2.253   6.916 -1.6779 -1.0768  1.9660
  131OSM    H6T14080   1.339   2.224   6.846  0.1733 -0.6390 -1.5003
  131OSM    C7S14081   1.300   2.134   7.042 -0.5390 -0.0406 -0.0117
  131OSM    H7S14082   1.370   2.048   7.041 -1.7870 -1.0806 -0.3696
  131OSM    H7T14083   1.204   2.112   7.095  0.1654 -1.0189  0.9202
  131OSM    C8S14084   1.370   2.251   7.103 -0.0635  0.6321 -0.0888
  131OSM    H8S14085   1.285   2.316   7.133 -0.8641  0.1766 -1.2866
  131OSM    H8T14086   1.434   2.300   7.026 -1.2686  1.2007 -0.7638
  131OSM    C9S14087   1.459   2.202   7.221 -0.0904 -0.3006 -0.6179
  131OSM    H9S14088   1.510   2.284   7.276 -1.7278  0.9372 -0.8646
  131OSM    H9T14089   1.542   2.133   7.194  0.3624 -0.6626  1.5595
  131OSM   C10S14090   1.377   2.122   7.329  0.8559 -0.2354  0.5823
  131OSM   H10S14091   1.418   2.019   7.332  0.1609 -0.5285  0.0868
  131OSM   H10T14092   1.267   2.125   7.316  0.9475  1.4216 -0.1121
  131OSM   C11S14093   1.415   2.164   7.471  0.4509  0.1824  0.2234
  131OSM   H11S14094   1.524   2.183   7.478  0.4508  0.0033  0.7987
  131OSM   H11T14095   1.394   2.079   7.540  2.3726 -0.3584  0.1956
  131OSM   C12S14096   1.333   2.283   7.510  0.2400  0.7123 -0.9853
  131OSM   H12S14097   1.224   2.260   7.501  0.2745 -0.5337  1.2250
  131OSM   H12T14098   1.351   2.368   7.441  0.3612  0.2072 -1.5795
  131OSM   C13S14099   1.355   2.344   7.653 -0.6765  0.4027  0.4010
  131OSM   H13S14100   1.463   2.352   7.680 -0.4424 -1.6860  0.2219
  131OSM   H13T14101   1.304   2.275   7.722 -0.9349 -0.4000 -0.5641
  131OSM   C14S14102   1.294   2.482   7.686  0.2602 -0.0113  0.0544
  131OSM   H14S14103   1.185   2.482   7.662  0.5108  3.6353 -1.9620
  131OSM   H14T14104   1.341   2.568   7.633 -2.0391  1.8946  0.8882
  131OSM   C15S14105   1.307   2.513   7.834 -1.1064  0.9381  1.1694
  131OSM   H15S14106   1.411   2.493   7.869 -1.0127 -1.6736 -0.3439
  131OSM   H15T14107   1.239   2.445   7.890  0.0456 -2.1885 -0.9372
  131OSM   C16S14108   1.252   2.658   7.861 -0.0428  0.3349 -0.7811
  131OSM   H16S14109   1.148   2.670   7.822 -0.2888 -1.3371 -0.7089
  131OSM   H16T14110   1.322   2.732   7.817  0.9884  0.2394  0.6394
  131OSM   C17S14111   1.244   2.690   8.014  0.1692  0.6808  0.0664
  131OSM   H17S14112   1.179   2.620   8.071 -1.0382  1.5291 -0.2189
  131OSM   H17T14113   1.198   2.787   8.041  1.3178  1.1792  0.2677
  131OSM   C18S14114   1.379   2.714   8.082 -0.3400  0.9614 -0.0178
  131OSM   H18S14115   1.372   2.718   8.193  3.3009  0.2388  0.3541
  131OSM   H18T14116   1.441   2.801   8.051 -0.4090  1.3167  0.8205
  131OSM   H18U14117   1.443   2.625   8.069 -1.9449 -0.9498  3.7415
  131OSM    C1F14118   1.137   1.648   7.058 -0.0997  0.5592 -1.0715
  131OSM     OF14119   1.218   1.576   7.005  0.7412  0.1917 -0.9661
  131OSM    C2F14120   1.081   1.627   7.200  0.3167 -0.4141 -0.5888
  131OSM    H2F14121   1.037   1.526   7.216  1.3130 -0.7443  0.1485
  131OSM    H2G14122   1.008   1.708   7.218  1.9366  0.8891  0.4510
  131OSM    C3F14123   1.195   1.666   7.300 -0.0593 -0.0700  0.0772
  131OSM    H3F14124   1.243   1.762   7.272  0.7194 -0.5400 -0.2445
  131OSM    H3G14125   1.272   1.589   7.281  1.1135  0.8957  0.7818
  131OSM    C4F14126   1.146   1.667   7.453 -0.8212  0.1243 -0.1281
  131OSM    H4F14127   1.237   1.689   7.512 -1.2941 -0.7400  0.9424
  131OSM    H4G14128   1.124   1.561   7.477 -0.5241 -0.0855 -0.7551
  131OSM    C5F14129   1.037   1.767   7.484 -0.2269  0.1814 -0.5020
  131OSM    H5F14130   0.939   1.732   7.444 -0.6041  1.7285 -0.9856
  131OSM    H5G14131   1.057   1.863   7.433 -0.0625  0.9660  0.9920
  131OSM    C6F14132   1.021   1.806   7.632  0.1711 -0.5470 -0.5590
  131OSM    H6F14133   1.012   1.710   7.688  0.1298 -0.0033  0.3822
  131OSM    H6G14134   0.932   1.872   7.641  1.0921  0.4536  2.2843
  131OSM    C7F14135   1.137   1.886   7.671  0.2591  0.1496 -0.8518
  131OSM    H7F14136   1.131   1.984   7.617  0.3241  0.6368  0.0125
  131OSM    H7G14137   1.232   1.836   7.642 -0.5394 -2.5013  0.7977
  131OSM    C8F14138   1.143   1.910   7.825 -0.5725 -0.4471  0.0113
  131OSM    H8F14139   1.247   1.948   7.838 -1.1609  1.4533 -0.4654
  131OSM    H8G14140   1.122   1.815   7.877 -2.5217 -0.1223 -0.1214
  131OSM    C9F14141   1.045   2.019   7.866 -0.7430  0.7305  0.8119
  131OSM    H9F14142   0.942   2.018   7.827 -0.3008  0.6216 -0.3917
  131OSM   C10F14143   1.083   2.117   7.945  0.4359  0.3062  0.5012
  131OSM   H10F14144   1.017   2.199   7.978  0.6370 -0.2853  2.4456
  131OSM   C11F14145   1.215   2.146   8.005  0.7743 -0.2057 -0.7957
  131OSM   H11F14146   1.270   2.228   7.954  1.5762 -0.4795 -0.3926
  131OSM   H11G14147   1.276   2.053   8.008 -3.1813 -3.1474 -2.5752
  131OSM   C12F14148   1.206   2.204   8.153  0.3844  0.3630  0.2415
  131OSM   H12F14149   1.145   2.296   8.162  1.2901  0.9778  0.2980
  131OSM   H12G14150   1.309   2.241   8.174 -0.2280  3.3979 -1.4785
  131OSM   C13F14151   1.163   2.104   8.263 -0.5183 -0.3802 -0.5495
  131OSM   H13F14152   1.227   2.013   8.261 -0.1664 -0.2136  1.4009
  131OSM   H13G14153   1.063   2.059   8.245  0.3492 -1.9181 -1.8473
  131OSM   C14F14154   1.198   2.160   8.399  0.8014 -0.3790  0.1403
  131OSM   H14F14155   1.135   2.251   8.408  1.3885  0.1110 -0.5306
  131OSM   H14G14156   1.303   2.196   8.407  0.9383 -0.8972  0.8076
  131OSM   C15F14157   1.161   2.081   8.521 -0.2916  0.0241 -0.5791
  131OSM   H15F14158   1.202   1.978   8.515  3.6146  1.1411  2.7016
  131OSM   H15G14159   1.050   2.078   8.520 -0.3121  0.4006  0.0823
  131OSM   C16F14160   1.204   2.155   8.654  0.1959 -0.3195 -0.8143
  131OSM   H16F14161   1.246   2.257   8.643  0.2619 -0.0092  1.7998
  131OSM   H16G14162   1.277   2.088   8.703  0.1542 -0.8466 -1.4553
  131OSM   C17F14163   1.089   2.168   8.758  1.0021  0.2542 -0.0422
  131OSM   H17F14164   1.056   2.066   8.786 -0.8027  0.0565 -2.5239
  131OSM   H17G14165   1.000   2.209   8.706  1.0106  0.6485  0.2538
  131OSM   C18F14166   1.127   2.250   8.884 -0.2676 -0.2542  0.5824
  131OSM   H18F14167   1.211   2.198   8.935  0.1213  0.7182  0.9582
  131OSM   H18G14168   1.044   2.265   8.956  0.7229  0.0449  1.7153
  131OSM   H18H14169   1.154   2.352   8.850 -0.2358 -0.5546 -0.3186
  132OSM      N14170   3.941   3.829   6.193 -0.7479 -0.9064 -0.4059
  132OSM    C1514171   3.993   3.719   6.280  0.2520 -0.5236 -0.3352
  132OSM   H15A14172   3.963   3.622   6.242 -0.9726  0.6364 -2.5474
  132OSM   H15B14173   3.942   3.734   6.374 -1.1511  1.9188 -1.3835
  132OSM   H15C14174   4.100   3.714   6.295 -0.0093 -1.3070  1.5542
  132OSM    C1414175   4.012   3.821   6.057 -0.0023 -0.0209 -0.2196
  132OSM   H14A14176   4.119   3.835   6.061  0.1994 -1.6114  0.4527
  132OSM   H14B14177   3.987   3.901   5.989  3.3050  0.5847 -0.8590
  132OSM   H14C14178   3.985   3.730   6.005  2.4793 -1.3910  0.7355
  132OSM    C1314179   3.794   3.811   6.166  0.3616  0.2952  0.3676
  132OSM   H13A14180   3.767   3.711   6.136  1.6244  0.6793 -2.3705
  132OSM   H13B14181   3.759   3.869   6.082  1.2505 -0.2156 -0.3771
  132OSM   H13C14182   3.735   3.855   6.245  1.0603  0.7448  0.6520
  132OSM    C1214183   3.978   3.964   6.248  0.1314 -0.2784 -0.1344
  132OSM   H12A14184   3.944   4.051   6.194  1.3560  1.2932  1.5102
  132OSM   H12B14185   4.086   3.973   6.250  0.2499 -1.7167  1.1761
  132OSM    C1114186   3.923   3.989   6.387 -0.0271 -0.3585 -0.5713
  132OSM   H11A14187   3.969   4.087   6.411 -1.0587  0.6601 -2.4917
  132OSM   H11B14188   3.962   3.916   6.462 -2.9879 -1.2114  0.2941
  132OSM      P14189   3.702   4.101   6.317  0.1917  0.2366  0.3688
  132OSM    O1314190   3.792   4.213   6.291 -0.6280  0.5798 -0.2322
  132OSM    O1414191   3.636   4.041   6.201  0.0304 -0.7789 -0.2682
  132OSM    O1114192   3.599   4.146   6.419  0.4103 -0.1126  0.3089
  132OSM    O1214193   3.776   3.984   6.384 -0.2262 -0.5232 -0.1035
  132OSM    C1S14194   3.615   4.128   6.557 -1.1866  0.1610  0.0065
  132OSM    H1S14195   3.706   4.184   6.588 -1.5948  1.3826 -0.9299
  132OSM    H1T14196   3.618   4.019   6.579  2.2767  0.1967  0.2806
  132OSM     NF14197   3.519   4.173   6.772 -0.0436  0.2957 -0.9907
  132OSM    HNF14198   3.464   4.107   6.822 -0.8645  0.0001 -2.2498
  132OSM    C2S14199   3.489   4.183   6.630  0.0305 -0.1475  0.1345
  132OSM    H2S14200   3.488   4.290   6.601  0.1621 -0.0733  0.4059
  132OSM    C3S14201   3.356   4.115   6.588  0.3647 -0.3097  0.3957
  132OSM    H3S14202   3.368   4.006   6.604  0.1145 -0.2303  1.1380
  132OSM     O314203   3.327   4.134   6.452  0.8123  0.1927 -0.3541
  132OSM    HO314204   3.412   4.149   6.410  0.1813  1.2012 -1.3266
  132OSM    C4S14205   3.239   4.179   6.663  0.0360  0.0856 -0.0346
  132OSM    H4S14206   3.217   4.285   6.646 -0.0638 -0.0855 -1.0859
  132OSM    C5S14207   3.150   4.108   6.731  0.0564 -0.4773 -0.3221
  132OSM    H5S14208   3.165   3.999   6.740 -2.6525 -1.2934 -3.5418
  132OSM    C6S14209   3.037   4.166   6.812 -0.0919  0.4755  0.0127
  132OSM    H6S14210   2.978   4.084   6.859  0.7356 -0.5633 -0.6954
  132OSM    H6T14211   2.967   4.220   6.745 -1.3895  1.0349  1.7578
  132OSM    C7S14212   3.085   4.271   6.917  0.8730 -0.2073  0.2042
  132OSM    H7S14213   3.000   4.330   6.956  0.8974  0.0896 -0.1894
  132OSM    H7T14214   3.143   4.350   6.865  1.3975 -0.9060 -0.2892
  132OSM    C8S14215   3.159   4.199   7.029 -0.5251 -0.2456  0.3213
  132OSM    H8S14216   3.239   4.133   6.990 -0.7073  0.2826 -0.9980
  132OSM    H8T14217   3.082   4.141   7.084 -1.4726 -0.0209 -0.7330
  132OSM    C9S14218   3.216   4.298   7.133  0.0663 -0.3230 -0.3526
  132OSM    H9S14219   3.138   4.352   7.192  0.7969  0.7714 -0.3496
  132OSM    H9T14220   3.271   4.381   7.083 -0.1908  0.2561  0.2981
  132OSM   C10S14221   3.311   4.231   7.234 -0.1666  0.1370 -0.4580
  132OSM   H10S14222   3.404   4.217   7.176  0.4611 -2.9711  1.0797
  132OSM   H10T14223   3.278   4.129   7.264  0.4255 -0.4954 -1.8651
  132OSM   C11S14224   3.336   4.321   7.356 -0.4705  0.2822 -0.5829
  132OSM   H11S14225   3.242   4.367   7.392  0.0264  0.6516  0.2733
  132OSM   H11T14226   3.387   4.412   7.318  2.4184 -1.3258 -0.8125
  132OSM   C12S14227   3.414   4.250   7.469 -0.4702  0.4603  0.2026
  132OSM   H12S14228   3.500   4.210   7.411 -0.8486  1.6140 -1.2274
  132OSM   H12T14229   3.349   4.175   7.519  0.2990 -1.5018 -1.5644
  132OSM   C13S14230   3.469   4.341   7.582  0.1239  0.4893  0.8164
  132OSM   H13S14231   3.385   4.380   7.642 -0.2938  1.0761 -0.1379
  132OSM   H13T14232   3.530   4.421   7.534 -0.1721 -0.2144 -0.8118
  132OSM   C14S14233   3.565   4.265   7.683  0.4896 -0.3069  0.3460
  132OSM   H14S14234   3.666   4.247   7.642  2.5174 -0.0314  4.6474
  132OSM   H14T14235   3.522   4.167   7.712  1.0912 -0.8455 -0.5600
  132OSM   C15S14236   3.569   4.342   7.814  0.2883 -1.1543  0.0328
  132OSM   H15S14237   3.478   4.403   7.830 -0.4445 -1.8496 -1.3197
  132OSM   H15T14238   3.658   4.408   7.812 -1.7643  1.9206  1.6775
  132OSM   C16S14239   3.602   4.251   7.935 -0.2615 -0.4356  0.5803
  132OSM   H16S14240   3.692   4.191   7.908  0.5284 -0.3054  2.7857
  132OSM   H16T14241   3.521   4.175   7.941 -2.9824  2.3494  1.3750
  132OSM   C17S14242   3.614   4.322   8.066  0.1151 -0.2023  0.2773
  132OSM   H17S14243   3.630   4.243   8.143  0.6228  0.0098  0.3942
  132OSM   H17T14244   3.512   4.363   8.078  0.8201  1.7443 -0.0417
  132OSM   C18S14245   3.710   4.440   8.088  0.4880 -0.1513  0.2159
  132OSM   H18S14246   3.816   4.420   8.061  0.4053  0.0569 -0.2635
  132OSM   H18T14247   3.704   4.478   8.192 -1.3131 -0.6104  0.3195
  132OSM   H18U14248   3.684   4.520   8.016  0.0828 -0.6361 -0.1823
  132OSM    C1F14249   3.617   4.248   6.827 -0.3955  0.4947  0.0615
  132OSM     OF14250   3.658   4.345   6.768 -0.0900  0.2209 -0.2758
  132OSM    C2F14251   3.650   4.212   6.965 -0.0759  0.9533  0.4399
  132OSM    H2F14252   3.728   4.134   6.975 -0.7894  0.1846  0.1363
  132OSM    H2G14253   3.560   4.173   7.017  0.5178  0.6542  1.2605
  132OSM    C3F14254   3.703   4.335   7.043 -0.2095 -0.1065 -0.0870
  132OSM    H3F14255   3.625   4.414   7.045 -0.0262  0.0832 -0.3441
  132OSM    H3G14256   3.782   4.379   6.978 -0.2205  0.7083  0.4304
  132OSM    C4F14257   3.760   4.297   7.173 -0.2542  0.0331  0.3327
  132OSM    H4F14258   3.845   4.230   7.150  2.2473  3.0265  0.2065
  132OSM    H4G14259   3.690   4.244   7.241 -1.3208 -0.5415 -1.1491
  132OSM    C5F14260   3.815   4.415   7.252 -0.1562 -0.1655  0.8951
  132OSM    H5F14261   3.746   4.500   7.234  0.8731  0.1961 -1.8474
  132OSM    H5G14262   3.906   4.443   7.194  0.1082 -0.0941  1.3441
  132OSM    C6F14263   3.837   4.378   7.394 -0.6288  0.1482 -0.4416
  132OSM    H6F14264   3.929   4.318   7.413  0.9877  2.8656  0.9125
  132OSM    H6G14265   3.750   4.323   7.436  0.0942 -0.1167  0.7845
  132OSM    C7F14266   3.863   4.497   7.483 -0.1834 -0.3597 -1.4039
  132OSM    H7F14267   3.770   4.558   7.492  1.2216  1.6650  0.5224
  132OSM    H7G14268   3.933   4.565   7.429  1.1223 -1.1613 -0.7753
  132OSM    C8F14269   3.927   4.470   7.622 -0.0073 -0.1127 -0.0564
  132OSM    H8F14270   3.891   4.369   7.651  1.0055 -0.4015  0.2524
  132OSM    H8G14271   3.878   4.542   7.691  0.0668  1.5971 -1.6972
  132OSM    C9F14272   4.080   4.456   7.618 -0.1626 -0.0274  0.1836
  132OSM    H9F14273   4.116   4.388   7.539 -1.9462  0.5466 -1.1841
  132OSM   C10F14274   4.178   4.512   7.686 -0.3531  0.0273  0.5644
  132OSM   H10F14275   4.283   4.492   7.660 -1.1938 -0.7573 -2.6494
  132OSM   C11F14276   4.174   4.606   7.805  0.0559  0.2982  0.0806
  132OSM   H11F14277   4.082   4.660   7.836  0.6554  1.3804  0.0186
  132OSM   H11G14278   4.231   4.694   7.769  0.3259  0.4729  0.9184
  132OSM   C12F14279   4.243   4.536   7.924  0.2882 -0.2014 -0.0588
  132OSM   H12F14280   4.351   4.520   7.905  0.4772 -0.5128  1.1482
  132OSM   H12G14281   4.184   4.443   7.939 -2.1034  0.7600 -2.7046
  132OSM   C13F14282   4.234   4.616   8.055 -0.2648  0.8843  0.5339
  132OSM   H13F14283   4.128   4.643   8.070 -1.5586 -2.5072 -1.3137
  132OSM   H13G14284   4.300   4.705   8.043  0.5420  0.1110 -1.1770
  132OSM   C14F14285   4.278   4.533   8.178 -0.2761 -0.4056  0.7108
  132OSM   H14F14286   4.371   4.476   8.162 -0.3775 -0.1428 -1.0970
  132OSM   H14G14287   4.205   4.450   8.186 -0.7914 -0.0107  0.2167
  132OSM   C15F14288   4.289   4.603   8.309 -0.0010  0.8292 -0.6489
  132OSM   H15F14289   4.370   4.679   8.309 -0.4038  1.2659 -0.9573
  132OSM   H15G14290   4.307   4.520   8.380  1.0182  0.6226 -1.1292
  132OSM   C16F14291   4.153   4.660   8.348  0.4075 -0.2459  0.3483
  132OSM   H16F14292   4.076   4.582   8.364  0.7907 -0.6251  0.3571
  132OSM   H16G14293   4.119   4.721   8.262  0.0442  2.0300  2.0112
  132OSM   C17F14294   4.161   4.764   8.458 -0.3106  0.2680 -0.2911
  132OSM   H17F14295   4.250   4.830   8.454  0.4808 -0.7582  0.1623
  132OSM   H17G14296   4.189   4.714   8.553  1.8768 -0.5392 -1.3245
  132OSM   C18F14297   4.024   4.830   8.493  0.3071  0.2100  0.0230
  132OSM   H18F14298   4.046   4.938   8.509  1.6347  0.0218 -0.4695
  132OSM   H18G14299   3.972   4.789   8.583  0.4020  2.0561  0.9678
  132OSM   H18H14300   3.951   4.825   8.410  0.1832  1.8398 -0.0131
  133SAPE     N14301   3.697   2.884  11.096  0.2397 -0.8658 -0.4253
  133SAPE   HN114302   3.709   2.963  11.030  2.9988 -0.4659  0.4164
  133SAPE   HN214303   3.648   2.921  11.181 -0.9582 -2.5596 -0.3391
  133SAPE   HN314304   3.793   2.853  11.124  1.0845  1.0663 -1.0260
  133SAPE   C1214305   3.603   2.766  11.056 -0.4523 -0.8448 -0.1611
  133SAPE  H12A14306   3.511   2.807  11.009 -2.4666 -2.3949  2.1743
  133SAPE  H12B14307   3.582   2.705  11.146  0.0393 -1.1105 -0.2181
  133SAPE   C1114308   3.668   2.677  10.949 -0.1674  0.2359  0.1191
  133SAPE  H11A14309   3.683   2.745  10.862 -0.2909  0.8057  0.5353
  133SAPE  H11B14310   3.592   2.599  10.930 -0.6416  0.8230 -0.4475
  133SAPE     P14311   3.927   2.661  10.945 -0.0489 -0.3458  0.3240
  133SAPE   O1314312   3.968   2.793  11.013  0.0647  0.5183 -0.4523
  133SAPE   O1414313   4.004   2.537  10.969  0.7142 -0.1253 -0.1141
  133SAPE   O1214314   3.785   2.623  11.006  0.0722  0.6384  0.5575
  133SAPE   O1114315   3.912   2.687  10.785  0.4551 -0.1548  0.0321
  133SAPE    C114316   3.870   2.571  10.704  0.1080 -0.0712  0.1150
  133SAPE    HA14317   3.962   2.512  10.682 -0.0476 -0.9468  1.6912
  133SAPE    HB14318   3.794   2.502  10.744  0.1660 -0.0139  0.3235
  133SAPE    C214319   3.808   2.621  10.563 -0.4451  0.2448 -0.0216
  133SAPE    HS14320   3.727   2.691  10.590  1.2644  1.6291  1.8636
  133SAPE   O2114321   3.772   2.508  10.487 -0.5017  0.0318  0.2339
  133SAPE   C2114322   3.661   2.436  10.518 -0.3724  0.1513 -0.5453
  133SAPE   O2214323   3.587   2.455  10.613 -0.0984  0.4201  0.8938
  133SAPE   C2214324   3.636   2.332  10.413 -0.3761  0.3196  0.2333
  133SAPE   H2R14325   3.667   2.232  10.452 -0.4140  0.0981 -0.2900
  133SAPE   H2S14326   3.528   2.324  10.388  0.1288  0.6104 -2.2427
  133SAPE    C314327   3.917   2.708  10.492 -0.2962 -0.0061 -0.4830
  133SAPE    HX14328   4.008   2.645  10.495 -0.3874 -0.1070  0.2786
  133SAPE    HY14329   3.933   2.803  10.548  1.8610  0.3496 -1.5848
  133SAPE   O3114330   3.866   2.715  10.360  0.8573  0.1456 -0.2818
  133SAPE   C3114331   3.964   2.771  10.284  0.1165  0.5040 -0.1812
  133SAPE   O3214332   4.077   2.795  10.318  0.2085 -0.2368  0.6105
  133SAPE   C3214333   3.904   2.772  10.146 -0.6309  0.1167  0.1905
  133SAPE   H2X14334   3.845   2.866  10.153  1.1980  1.5377 -1.9058
  133SAPE   H2Y14335   3.851   2.678  10.122 -0.5695  0.1748 -0.1838
  133SAPE   C2314336   3.697   2.377  10.271 -0.3701  0.1084 -0.8050
  133SAPE   H3R14337   3.807   2.366  10.284 -0.6474 -1.9252  0.0598
  133SAPE   H3S14338   3.667   2.480  10.243 -0.1097  0.9231  1.6957
  133SAPE   C2414339   3.651   2.271  10.176  0.4689 -0.1302 -0.4492
  133SAPE   H4R14340   3.650   2.176  10.233 -2.3982  0.7809  1.2738
  133SAPE   H4S14341   3.709   2.262  10.082  0.3593 -0.2196 -0.5083
  133SAPE   C2514342   3.507   2.277  10.138 -0.0922 -0.5122 -0.2601
  133SAPE   H5R14343   3.431   2.282  10.218 -0.9142  1.6304 -1.0928
  133SAPE   C2614344   3.449   2.293  10.015  0.0688 -0.7251  0.2090
  133SAPE   H6R14345   3.339   2.304  10.009  0.0065 -0.3612  1.7275
  133SAPE   C2714346   3.528   2.305   9.887 -0.1271 -0.1162 -0.2543
  133SAPE   H7R14347   3.555   2.205   9.847 -0.2827  0.4912 -1.9545
  133SAPE   H7S14348   3.623   2.356   9.913 -0.6709  1.6901 -1.6054
  133SAPE   C2814349   3.452   2.373   9.781  0.4282 -0.6604 -0.8902
  133SAPE   H8R14350   3.430   2.477   9.808  1.8427 -0.0417 -2.0166
  133SAPE   C2914351   3.404   2.324   9.668 -0.3635  0.4445  0.6932
  133SAPE   H9R14352   3.349   2.381   9.591 -0.8283 -2.6889 -1.4614
  133SAPE  C21014353   3.411   2.180   9.620  0.2486  0.0372  0.0533
  133SAPE  H10R14354   3.335   2.163   9.541 -0.4844 -1.5847  1.0646
  133SAPE  H10S14355   3.393   2.118   9.710  1.1175 -0.3335 -0.0142
  133SAPE  C21114356   3.544   2.135   9.568  0.4859 -1.1855  0.3696
  133SAPE  H11R14357   3.626   2.163   9.637  0.2124 -0.6262  0.4736
  133SAPE  C21214358   3.575   2.094   9.446 -0.3490 -0.6091 -0.0350
  133SAPE  H12R14359   3.681   2.081   9.420 -0.5130 -0.6365 -0.7048
  133SAPE  C21314360   3.477   2.075   9.336  0.2292 -0.3079 -0.2533
  133SAPE  H13R14361   3.377   2.054   9.381  0.6416  1.4040  1.6069
  133SAPE  H13S14362   3.495   1.975   9.292  0.2878 -0.3634 -0.1049
  133SAPE  C21414363   3.485   2.187   9.237 -0.1184  0.2039  0.5217
  133SAPE  H14R14364   3.575   2.249   9.246  0.0748  0.1054 -0.6575
  133SAPE  C21514365   3.407   2.210   9.127  0.0623  1.0363 -0.5299
  133SAPE  H15R14366   3.411   2.303   9.069  1.9611  0.4316 -1.4448
  133SAPE  C21614367   3.283   2.130   9.093  0.5275  0.4869 -0.4246
  133SAPE  H16R14368   3.200   2.200   9.117 -0.4331 -0.2414 -1.5229
  133SAPE  H16S14369   3.269   2.032   9.143 -2.3316  0.5052 -1.0349
  133SAPE  C21714370   3.276   2.102   8.939  0.0905  0.4026 -0.4629
  133SAPE  H17R14371   3.359   2.031   8.919  0.5667  0.8921 -0.2830
  133SAPE  H17S14372   3.295   2.196   8.882  2.2568 -0.7814 -1.8428
  133SAPE  C21814373   3.143   2.039   8.901  0.3917  0.0504  1.2129
  133SAPE  H18R14374   3.156   1.989   8.803 -0.9372  1.5454  0.2201
  133SAPE  H18S14375   3.072   2.123   8.884 -0.0334  0.7780  5.4782
  133SAPE  C21914376   3.085   1.942   8.999  0.3888  0.3590 -0.1317
  133SAPE  H19R14377   3.063   1.989   9.097  1.6968 -1.1364  0.9320
  133SAPE  H19S14378   3.146   1.852   9.022 -3.9847 -2.7569  0.4942
  133SAPE  C22014379   2.945   1.886   8.954  0.1192  0.0905 -0.7759
  133SAPE  H20R14380   2.865   1.963   8.965  0.5466  0.4619 -0.2666
  133SAPE  H20S14381   2.925   1.793   9.011  2.5702  0.2360  0.4197
  133SAPE  H20T14382   2.944   1.869   8.844  1.7839 -0.5137 -0.7209
  133SAPE   C3314383   4.006   2.792  10.032 -0.2338 -0.4249  0.3233
  133SAPE   H3X14384   4.079   2.709  10.033  0.6651  0.3482  0.2076
  133SAPE   H3Y14385   4.068   2.881  10.057  1.0800  0.2111 -4.1805
  133SAPE   C3414386   3.949   2.794   9.888  1.4093 -1.2379 -0.6004
  133SAPE   H4X14387   3.872   2.874   9.891  1.3091 -1.3339  2.2814
  133SAPE   H4Y14388   3.887   2.705   9.865  0.3360 -0.8434  0.6356
  133SAPE   C3514389   4.043   2.836   9.776 -0.1519  0.8580 -0.6652
  133SAPE   H5X14390   4.081   2.740   9.735  0.4602  0.4553  0.7605
  133SAPE   H5Y14391   4.120   2.897   9.828  1.2864 -0.4599 -1.1867
  133SAPE   C3614392   3.984   2.919   9.659 -0.0482 -0.0087  1.0996
  133SAPE   H6X14393   3.995   3.023   9.697  0.9574  0.7285 -1.0812
  133SAPE   H6Y14394   3.876   2.899   9.640  0.3876  0.4287 -2.3728
  133SAPE   C3714395   4.063   2.915   9.527  0.7858 -0.4204  0.2468
  133SAPE   H7X14396   4.029   2.821   9.478 -1.6145  0.6186 -0.2792
  133SAPE   H7Y14397   4.172   2.923   9.547  0.9646  0.4454 -0.9975
  133SAPE   C3814398   4.015   3.029   9.428 -0.1685  0.2126  1.4944
  133SAPE   H8X14399   4.056   3.127   9.460 -1.3816  1.9703 -1.8496
  133SAPE   H8Y14400   3.904   3.036   9.427 -0.1011  2.6622 -1.4142
  133SAPE   C3914401   4.051   2.998   9.280  0.0129 -0.6060 -0.0161
  133SAPE   H9X14402   4.013   2.895   9.271  1.2564 -0.9519 -1.7990
  133SAPE   H9Y14403   4.161   3.006   9.270 -0.1293  1.3778 -0.4445
  133SAPE  C31014404   3.979   3.088   9.170  0.1553 -0.1999  0.7350
  133SAPE  H10X14405   3.868   3.086   9.185 -0.0663  0.3532 -0.6596
  133SAPE  H10Y14406   4.014   3.045   9.074 -2.3346  0.0631 -0.3759
  133SAPE  C31114407   4.012   3.238   9.151  0.1185  0.6539  0.6764
  133SAPE  H11X14408   4.118   3.271   9.153 -0.2776  2.1065 -0.3710
  133SAPE  H11Y14409   3.964   3.287   9.239 -0.3807 -1.0076  1.3710
  133SAPE  C31214410   3.932   3.298   9.032  0.0370 -0.1101 -1.2101
  133SAPE  H12X14411   3.825   3.272   9.044  0.3951 -1.2477 -0.2888
  133SAPE  H12Y14412   3.966   3.256   8.935  0.0324 -0.7256 -0.9457
  133SAPE  C31314413   3.953   3.451   9.021 -0.6592  0.3454 -0.0643
  133SAPE  H13X14414   3.939   3.497   9.121 -0.2254 -0.2173  0.2619
  133SAPE  H13Y14415   3.874   3.490   8.954  0.2081 -0.5040 -1.6381
  133SAPE  C31414416   4.088   3.496   8.955  0.2248  0.0872 -0.0663
  133SAPE  H14X14417   4.096   3.451   8.853 -1.9374 -1.5142  0.4118
  133SAPE  H14Y14418   4.164   3.463   9.029 -1.2536 -1.6798  0.7283
  133SAPE  C31514419   4.100   3.651   8.934  0.5025  0.4612  0.0103
  133SAPE  H15X14420   4.119   3.699   9.032  0.8541  1.3465 -0.4821
  133SAPE  H15Y14421   3.996   3.678   8.904  1.0079  0.9433 -1.3484
  133SAPE  C31614422   4.204   3.688   8.822 -0.8786 -0.6393  0.2158
  133SAPE  H16X14423   4.196   3.799   8.813 -1.3576 -0.6047  0.9106
  133SAPE  H16Y14424   4.184   3.636   8.726  2.2708 -2.1798  0.2722
  133SAPE  C31714425   4.350   3.658   8.865  0.6878 -0.4074  0.2187
  133SAPE  H17X14426   4.409   3.673   8.772 -1.9227 -0.2172 -1.4958
  133SAPE  H17Y14427   4.357   3.550   8.893  0.5351 -1.0678 -2.1128
  133SAPE  C31814428   4.402   3.754   8.979  0.2198 -0.0843  0.4428
  133SAPE  H18X14429   4.508   3.739   9.010  0.1890 -1.2499  0.0035
  133SAPE  H18Y14430   4.348   3.729   9.073 -1.3061  0.5439 -0.2373
  133SAPE  H18Z14431   4.379   3.859   8.950  0.0315 -0.5183 -1.0577
  134SAPE     N14432   0.511   2.957  10.580  0.3608  0.2345  0.6147
  134SAPE   HN114433   0.501   3.041  10.641 -0.4450  1.1260 -0.6810
  134SAPE   HN214434   0.611   2.931  10.572  0.3482  0.4870 -0.5336
  134SAPE   HN314435   0.461   2.970  10.490  2.3235  0.7401 -0.4511
  134SAPE   C1214436   0.444   2.841  10.644  0.4914 -0.7525  0.3713
  134SAPE  H12A14437   0.479   2.836  10.750 -0.3414  1.7163  0.8110
  134SAPE  H12B14438   0.468   2.746  10.591 -0.5878 -2.1108  2.2029
  134SAPE   C1114439   0.294   2.866  10.642  0.5235 -0.4153  0.2978
  134SAPE  H11A14440   0.243   2.773  10.675  1.3162  0.1319  3.3119
  134SAPE  H11B14441   0.257   2.887  10.539  3.2076 -0.1770 -0.6771
  134SAPE     P14442   0.106   2.998  10.754 -0.3205  0.0316 -0.2887
  134SAPE   O1314443   0.081   3.037  10.896 -0.8294 -0.3200 -0.2127
  134SAPE   O1414444   0.064   3.099  10.653 -0.9395  0.1090  0.6141
  134SAPE   O1214445   0.262   2.974  10.733  0.9136 -0.1605  0.7618
  134SAPE   O1114446   0.042   2.865  10.716  0.6287  0.0981 -0.4288
  134SAPE    C114447  -0.088   2.854  10.651 -0.1101 -0.0319 -0.5511
  134SAPE    HA14448  -0.143   2.779  10.712  3.5574 -2.5139  0.0288
  134SAPE    HB14449  -0.160   2.939  10.657  1.4837  1.2904  0.9330
  134SAPE    C214450  -0.084   2.796  10.507 -0.2723  0.4777  1.0174
  134SAPE    HS14451  -0.182   2.744  10.491  0.9085 -2.4303  2.4725
  134SAPE   O2114452   0.028   2.702  10.495  0.1000  0.1441  0.2131
  134SAPE   C2114453   0.018   2.586  10.558 -0.2415  0.1028 -0.2570
  134SAPE   O2214454  -0.076   2.550  10.629 -0.4984 -0.0077 -0.2283
  134SAPE   C2214455   0.141   2.508  10.549  0.1709  0.9314 -0.1354
  134SAPE   H2R14456   0.227   2.570  10.515  0.6179  0.2497 -0.2720
  134SAPE   H2S14457   0.161   2.473  10.652  1.3698  0.6193 -0.4568
  134SAPE    C314458  -0.063   2.918  10.415 -0.1363 -0.2387 -0.0024
  134SAPE    HX14459   0.026   2.975  10.449 -0.1088 -1.3992  2.0458
  134SAPE    HY14460  -0.143   2.993  10.434  1.3937  1.0427  1.6574
  134SAPE   O3114461  -0.066   2.869  10.280  0.1168 -0.6933 -0.0840
  134SAPE   C3114462   0.055   2.856  10.223 -0.2126  0.0646  0.3524
  134SAPE   O3214463   0.163   2.895  10.267  0.3727 -0.1316  0.4399
  134SAPE   C3214464   0.036   2.798  10.083  0.0808  0.0014 -0.0487
  134SAPE   H2X14465  -0.073   2.809  10.068 -0.0452  0.2324  0.9265
  134SAPE   H2Y14466   0.061   2.690  10.077  1.5543  0.2769  0.4870
  134SAPE   C2314467   0.116   2.389  10.443  1.0292 -0.2654  0.3821
  134SAPE   H3R14468   0.013   2.351  10.428  1.7854 -1.6692 -1.7265
  134SAPE   H3S14469   0.181   2.307  10.481 -0.3174 -0.6062  2.0909
  134SAPE   C2414470   0.170   2.422  10.297 -0.1742 -0.7367 -0.5710
  134SAPE   H4R14471   0.278   2.435  10.320 -0.7625  1.8356  1.1865
  134SAPE   H4S14472   0.119   2.517  10.268 -0.8768 -1.6731 -2.5536
  134SAPE   C2514473   0.144   2.319  10.185  0.7364 -0.5697 -0.6425
  134SAPE   H5R14474   0.036   2.299  10.179 -0.0916  2.8829  0.2183
  134SAPE   C2614475   0.229   2.261  10.102 -0.0650 -0.3105  0.1910
  134SAPE   H6R14476   0.195   2.197  10.019 -1.0683  0.1402  0.2384
  134SAPE   C2714477   0.383   2.282  10.117  0.0847 -0.0702  0.4918
  134SAPE   H7R14478   0.412   2.240  10.216  0.9915 -0.4265  0.0835
  134SAPE   H7S14479   0.406   2.389  10.136  0.8404 -0.1613  0.0892
  134SAPE   C2814480   0.462   2.220  10.010  0.1425 -0.0231  0.3254
  134SAPE   H8R14481   0.498   2.119  10.033 -3.3626 -2.0928 -2.1851
  134SAPE   C2914482   0.472   2.266   9.887 -0.4936 -0.6682 -0.3594
  134SAPE   H9R14483   0.519   2.205   9.808  0.2104  1.6544 -1.8338
  134SAPE  C21014484   0.404   2.389   9.826 -0.7727  0.2740  0.2851
  134SAPE  H10R14485   0.485   2.442   9.771 -0.1142  0.1890  1.1512
  134SAPE  H10S14486   0.370   2.457   9.908 -1.9097  0.8123 -0.5850
  134SAPE  C21114487   0.299   2.365   9.721  0.4962 -0.4541  0.2265
  134SAPE  H11R14488   0.213   2.300   9.744 -0.6230  0.2196 -1.7676
  134SAPE  C21214489   0.292   2.434   9.605 -0.2218  0.1556 -0.9832
  134SAPE  H12R14490   0.215   2.411   9.530 -1.2230 -0.5686  0.2354
  134SAPE  C21314491   0.390   2.536   9.558  0.0382  0.0909  0.9922
  134SAPE  H13R14492   0.423   2.602   9.641 -1.6835  1.0036  1.0143
  134SAPE  H13S14493   0.346   2.613   9.491 -1.8610 -1.0023  0.8930
  134SAPE  C21414494   0.512   2.474   9.495 -0.5396  0.5905 -0.6674
  134SAPE  H14R14495   0.567   2.401   9.557  1.8123 -0.1591 -3.4634
  134SAPE  C21514496   0.547   2.475   9.362  0.3016 -0.9055 -1.0282
  134SAPE  H15R14497   0.626   2.406   9.329 -0.0478 -1.2952 -1.0531
  134SAPE  C21614498   0.489   2.549   9.244 -0.9068 -0.1679 -0.1382
  134SAPE  H16R14499   0.566   2.605   9.188 -0.0097 -1.1776  0.0525
  134SAPE  H16S14500   0.428   2.636   9.277  0.2777 -0.5003  3.3266
  134SAPE  C21714501   0.402   2.488   9.131 -0.5295 -0.5331 -0.5454
  134SAPE  H17R14502   0.301   2.461   9.169  0.2957 -1.8403  0.8612
  134SAPE  H17S14503   0.451   2.396   9.092  0.8538  0.2104 -0.6544
  134SAPE  C21814504   0.378   2.593   9.013 -0.5975 -0.1445 -0.2969
  134SAPE  H18R14505   0.477   2.641   8.997 -0.3549  0.3134  2.1655
  134SAPE  H18S14506   0.307   2.666   9.057 -0.8328 -0.9536  0.7142
  134SAPE  C21914507   0.326   2.525   8.886 -0.6881 -0.1837  0.8403
  134SAPE  H19R14508   0.246   2.454   8.913  0.7391 -1.6259  1.4834
  134SAPE  H19S14509   0.406   2.463   8.839 -3.0578 -1.2362 -2.0571
  134SAPE  C22014510   0.277   2.642   8.797 -0.6116 -0.0385  0.4164
  134SAPE  H20R14511   0.203   2.708   8.847  0.3739 -1.6834  4.4393
  134SAPE  H20S14512   0.237   2.610   8.699 -0.4883  1.9051 -0.3177
  134SAPE  H20T14513   0.369   2.695   8.763  0.6255 -2.7832 -0.7868
  134SAPE   C3314514   0.124   2.868   9.982 -0.9149  0.4705  0.1596
  134SAPE   H3X14515   0.230   2.854  10.013 -0.8101 -0.1104 -0.4474
  134SAPE   H3Y14516   0.097   2.975   9.965  1.2151  1.1194  0.4231
  134SAPE   C3414517   0.104   2.817   9.839  0.6695  1.2261  0.2706
  134SAPE   H4X14518  -0.007   2.807   9.829  0.8766 -1.4702 -0.0345
  134SAPE   H4Y14519   0.150   2.719   9.819  0.7347  1.1418  0.8250
  134SAPE   C3514520   0.162   2.904   9.727  0.7242  0.0215  0.1858
  134SAPE   H5X14521   0.274   2.903   9.729  0.8580  3.6382  1.0628
  134SAPE   H5Y14522   0.126   3.008   9.743  0.0694 -0.1932  0.1304
  134SAPE   C3614523   0.103   2.856   9.600  0.0950 -0.0391  0.2023
  134SAPE   H6X14524  -0.005   2.843   9.621  0.3452 -0.8107  1.0597
  134SAPE   H6Y14525   0.140   2.754   9.578 -0.2240 -0.0422 -0.3242
  134SAPE   C3714526   0.114   2.951   9.483  0.0934 -0.5963 -0.6320
  134SAPE   H7X14527   0.070   3.050   9.504  1.1429  0.7675 -4.1609
  134SAPE   H7Y14528   0.058   2.910   9.396  1.0879  1.6694 -2.4287
  134SAPE   C3814529   0.260   2.991   9.429  0.1615 -0.3281  0.1757
  134SAPE   H8X14530   0.329   2.905   9.417  0.8153  0.3799 -1.5044
  134SAPE   H8Y14531   0.306   3.052   9.509  0.9480 -0.6057 -0.0584
  134SAPE   C3914532   0.255   3.066   9.296 -0.0582  0.3729  0.6010
  134SAPE   H9X14533   0.323   3.149   9.323 -0.5594  1.0975 -0.2949
  134SAPE   H9Y14534   0.153   3.109   9.284  0.2354  1.6752  2.4000
  134SAPE  C31014535   0.304   2.993   9.167  0.3247 -0.2230  0.7818
  134SAPE  H10X14536   0.234   2.908   9.154  0.7189 -0.6479  1.3875
  134SAPE  H10Y14537   0.405   2.951   9.185  0.8662  1.8918  3.2963
  134SAPE  C31114538   0.297   3.085   9.046 -0.0024 -0.0537  0.4348
  134SAPE  H11X14539   0.207   3.149   9.052  0.6958  1.4270 -2.5513
  134SAPE  H11Y14540   0.285   3.033   8.948 -1.0139  0.5007  0.2553
  134SAPE  C31214541   0.422   3.176   9.027  0.5394 -0.7010  0.0634
  134SAPE  H12X14542   0.511   3.110   9.020  1.8563  0.7991  1.7162
  134SAPE  H12Y14543   0.428   3.246   9.113 -0.9520 -0.5072  0.0331
  134SAPE  C31314544   0.407   3.245   8.897  0.2402 -0.2986 -0.3729
  134SAPE  H13X14545   0.312   3.303   8.897  0.4733  0.0860 -0.5478
  134SAPE  H13Y14546   0.398   3.176   8.811  1.8769 -2.6305  1.1875
  134SAPE  C31414547   0.535   3.332   8.883 -0.2440  0.2848 -0.0160
  134SAPE  H14X14548   0.615   3.254   8.878  0.2921  0.8117  0.2741
  134SAPE  H14Y14549   0.545   3.388   8.978  0.6346 -1.8989  1.2649
  134SAPE  C31514550   0.543   3.418   8.760  1.3937  0.3198  0.0174
  134SAPE  H15X14551   0.466   3.498   8.758 -0.2067 -1.1833 -1.1400
  134SAPE  H15Y14552   0.526   3.361   8.666  0.8613  0.4609  0.0269
  134SAPE  C31614553   0.680   3.488   8.767 -0.5647 -0.0835 -0.1229
  134SAPE  H16X14554   0.758   3.410   8.781  0.9551  0.9400 -2.2277
  134SAPE  H16Y14555   0.661   3.552   8.856  1.5244 -0.0522  0.3670
  134SAPE  C31714556   0.707   3.591   8.647  0.4204 -0.0546 -0.3161
  134SAPE  H17X14557   0.636   3.676   8.653 -0.8040 -1.0001 -0.9153
  134SAPE  H17Y14558   0.670   3.539   8.556 -0.8344  2.0809 -1.1047
  134SAPE  C31814559   0.856   3.637   8.631 -0.3126  0.0540 -0.2259
  134SAPE  H18X14560   0.858   3.708   8.545  2.2055 -1.5630 -1.6355
  134SAPE  H18Y14561   0.924   3.556   8.597  0.4467  0.8539 -0.6420
  134SAPE  H18Z14562   0.893   3.680   8.726  2.0990 -1.2419 -0.5215
  135SAPE     N14563   0.108   2.283  11.028 -0.2167 -0.4605  0.2766
  135SAPE   HN114564   0.021   2.229  11.042  0.2552 -0.9606  1.3807
  135SAPE   HN214565   0.198   2.233  11.040  0.6643  1.2096  1.0312
  135SAPE   HN314566   0.106   2.372  11.081  0.4517  1.7817 -3.1267
  135SAPE   C1214567   0.126   2.321  10.878  0.1288 -0.8436 -0.0230
  135SAPE  H12A14568   0.220   2.379  10.867 -0.1662 -0.3280  0.1103
  135SAPE  H12B14569   0.048   2.395  10.848  1.3718  1.5407  2.2094
  135SAPE   C1114570   0.117   2.200  10.786  0.1214  0.0078 -0.4098
  135SAPE  H11A14571   0.116   2.235  10.681  2.5314 -0.1704 -0.5572
  135SAPE  H11B14572   0.020   2.146  10.796 -0.1031  0.6677  1.2919
  135SAPE     P14573   0.353   2.120  10.724 -0.1018 -0.1694  0.0721
  135SAPE   O1314574   0.350   2.244  10.642 -0.2530  0.3080 -0.7540
  135SAPE   O1414575   0.464   2.101  10.819  0.2449  0.3243  0.2023
  135SAPE   O1214576   0.227   2.112  10.807 -0.0667  0.2778 -0.2148
  135SAPE   O1114577   0.344   1.999  10.620 -0.5387  0.0172 -0.4052
  135SAPE    C114578   0.218   1.994  10.548  0.3861 -0.4839 -0.1328
  135SAPE    HA14579   0.131   1.991  10.616  1.4551 -1.4988  1.2432
  135SAPE    HB14580   0.205   2.083  10.483  0.4211  0.2373  0.8271
  135SAPE    C214581   0.206   1.875  10.450  0.6937  0.3264  0.0577
  135SAPE    HS14582   0.204   1.785  10.515 -0.6717  1.9195  2.3697
  135SAPE   O2114583   0.317   1.879  10.357  0.0644 -0.2014  0.7709
  135SAPE   C2114584   0.367   1.767  10.329  0.2890 -0.4013  0.2624
  135SAPE   O2214585   0.327   1.659  10.372  0.1035  0.1399 -0.4782
  135SAPE   C2214586   0.483   1.776  10.228  0.7341 -0.6759 -0.4007
  135SAPE   H2R14587   0.527   1.878  10.231 -1.3490  0.2529  0.5673
  135SAPE   H2S14588   0.559   1.702  10.263 -0.2963 -0.8097  1.6836
  135SAPE    C314589   0.077   1.888  10.366  0.1872  0.2571  0.0095
  135SAPE    HX14590   0.069   1.978  10.303  0.5136 -0.0286 -0.4449
  135SAPE    HY14591  -0.004   1.897  10.442 -2.8865 -3.2831 -2.4735
  135SAPE   O3114592   0.053   1.768  10.282 -0.8494  0.1498 -0.5309
  135SAPE   C3114593   0.010   1.654  10.352  0.4253 -0.0309  0.6329
  135SAPE   O3214594  -0.032   1.654  10.465 -0.4839 -0.4587 -0.1376
  135SAPE   C3214595   0.012   1.528  10.256 -0.4550 -1.0927 -0.7644
  135SAPE   H2X14596  -0.069   1.460  10.288 -1.6327  0.7698  0.3529
  135SAPE   H2Y14597   0.115   1.493  10.280  0.2242  1.9508  1.2089
  135SAPE   C2314598   0.435   1.740  10.084 -0.5336 -0.3467 -0.0074
  135SAPE   H3R14599   0.407   1.632  10.086 -1.3042 -0.1974 -1.6747
  135SAPE   H3S14600   0.527   1.738  10.022 -1.0593  0.8862 -0.8694
  135SAPE   C2414601   0.331   1.836  10.023 -1.2969 -0.3601 -0.1541
  135SAPE   H4R14602   0.382   1.934  10.011  1.6724 -1.7539  0.1279
  135SAPE   H4S14603   0.250   1.842  10.099 -0.1516  1.9927  1.0120
  135SAPE   C2514604   0.286   1.777   9.891  0.7721 -0.5504 -0.3065
  135SAPE   H5R14605   0.190   1.725   9.901  0.6798 -0.3400 -0.0975
  135SAPE   C2614606   0.344   1.765   9.773 -0.4520  0.1522 -0.5511
  135SAPE   H6R14607   0.285   1.735   9.684 -0.0486 -1.2514 -0.3641
  135SAPE   C2714608   0.477   1.816   9.732  0.0601 -0.1869 -0.4410
  135SAPE   H7R14609   0.547   1.810   9.818  0.8981 -2.1226 -1.1980
  135SAPE   H7S14610   0.460   1.923   9.709  0.0955  0.3240  1.7534
  135SAPE   C2814611   0.545   1.764   9.612 -0.5368 -0.5659 -0.2492
  135SAPE   H8R14612   0.633   1.703   9.636  0.9876  0.9319 -1.8083
  135SAPE   C2914613   0.516   1.800   9.490 -0.1744  0.1137 -0.0119
  135SAPE   H9R14614   0.586   1.773   9.409  2.7213 -0.6278  2.5596
  135SAPE  C21014615   0.418   1.905   9.446  0.1176 -0.5866 -0.2049
  135SAPE  H10R14616   0.344   1.916   9.528 -0.5205 -1.2147 -0.6868
  135SAPE  H10S14617   0.358   1.856   9.366 -1.4073  1.3591 -0.3417
  135SAPE  C21114618   0.468   2.041   9.412  0.1775  0.0178 -0.4968
  135SAPE  H11R14619   0.517   2.101   9.490  2.1199 -1.7989 -0.2498
  135SAPE  C21214620   0.481   2.087   9.283  1.0455 -0.1541  1.4106
  135SAPE  H12R14621   0.510   2.192   9.265  1.8919 -0.4401  1.0553
  135SAPE  C21314622   0.445   2.010   9.155 -0.0574 -0.8099 -0.1423
  135SAPE  H13R14623   0.337   1.985   9.161 -0.0242 -0.8006  0.6423
  135SAPE  H13S14624   0.485   1.907   9.156 -2.8531 -1.9701 -0.3188
  135SAPE  C21414625   0.491   2.087   9.035 -0.5164  1.2347  0.0752
  135SAPE  H14R14626   0.436   2.179   9.011  2.3213  2.1068 -4.1899
  135SAPE  C21514627   0.599   2.061   8.961 -0.3073 -0.0062  0.0394
  135SAPE  H15R14628   0.617   2.119   8.870  1.5101 -0.2282  0.2179
  135SAPE  C21614629   0.695   1.944   8.995  0.7596 -0.2979  0.4969
  135SAPE  H16R14630   0.659   1.867   9.066  0.0104 -0.4363 -0.0198
  135SAPE  H16S14631   0.794   1.978   9.034  1.6604  0.2133 -2.0135
  135SAPE  C21714632   0.735   1.876   8.864 -0.1850  0.6224 -0.5147
  135SAPE  H17R14633   0.780   1.778   8.890 -2.2893 -0.9756 -2.5400
  135SAPE  H17S14634   0.798   1.933   8.791  0.9898  0.5981  0.4407
  135SAPE  C21814635   0.611   1.821   8.773 -0.4026 -0.1649  0.1047
  135SAPE  H18R14636   0.563   1.901   8.712 -2.7022 -2.0716 -0.7384
  135SAPE  H18S14637   0.542   1.772   8.845 -2.1755  1.7068 -0.2191
  135SAPE  C21914638   0.653   1.710   8.676  0.1402  0.3527 -0.0712
  135SAPE  H19R14639   0.681   1.617   8.728  0.2680 -0.3469 -1.3401
  135SAPE  H19S14640   0.738   1.745   8.613  2.1742 -0.8104  1.9252
  135SAPE  C22014641   0.534   1.677   8.577 -0.2743  0.2706 -0.4314
  135SAPE  H20R14642   0.443   1.666   8.640 -0.0639 -0.4627 -0.2496
  135SAPE  H20S14643   0.562   1.583   8.525 -0.5274 -0.4242  0.6305
  135SAPE  H20T14644   0.524   1.759   8.504  0.8265  1.0042  0.2099
  135SAPE   C3314645   0.009   1.566  10.112  0.3291 -0.2821 -0.0916
  135SAPE   H3X14646   0.057   1.485  10.053 -1.1178  0.3370 -2.2310
  135SAPE   H3Y14647   0.070   1.656  10.092  1.1374 -0.5446  1.1093
  135SAPE   C3414648  -0.140   1.585  10.065  0.0541 -0.2103  0.2189
  135SAPE   H4X14649  -0.169   1.683  10.108  0.7180 -0.0780  0.3771
  135SAPE   H4Y14650  -0.215   1.518  10.113 -2.0826  1.8746 -0.0325
  135SAPE   C3514651  -0.157   1.599   9.911 -0.0044  0.0373 -0.2264
  135SAPE   H5X14652  -0.099   1.515   9.867  0.2173 -0.1294  0.3766
  135SAPE   H5Y14653  -0.117   1.700   9.890 -0.7439  0.3438 -0.1972
  135SAPE   C3614654  -0.301   1.575   9.861  0.3877 -0.7313  1.0251
  135SAPE   H6X14655  -0.369   1.648   9.909  0.6661 -0.6238  1.2558
  135SAPE   H6Y14656  -0.338   1.474   9.889  0.3460 -1.3090 -0.9583
  135SAPE   C3714657  -0.324   1.577   9.706 -0.0845 -1.1704 -0.1466
  135SAPE   H7X14658  -0.321   1.681   9.669 -1.7877 -1.0293  0.0343
  135SAPE   H7Y14659  -0.429   1.541   9.698 -0.8288  0.6141  1.0368
  135SAPE   C3814660  -0.215   1.491   9.628 -0.8127  0.3856  0.8245
  135SAPE   H8X14661  -0.219   1.397   9.686 -1.7058 -1.0973 -1.4873
  135SAPE   H8Y14662  -0.111   1.530   9.635 -0.8853  0.7742 -0.0304
  135SAPE   C3914663  -0.245   1.473   9.473  0.2755  0.3155 -0.2326
  135SAPE   H9X14664  -0.335   1.408   9.467  0.5412  0.0368 -1.3921
  135SAPE   H9Y14665  -0.171   1.399   9.436  1.9627  1.6788  0.3306
  135SAPE  C31014666  -0.253   1.595   9.384  0.1417  0.2670 -0.1470
  135SAPE  H10X14667  -0.147   1.620   9.362  0.7205 -2.1561 -0.3950
  135SAPE  H10Y14668  -0.296   1.680   9.441  0.7912 -0.5066  1.5349
  135SAPE  C31114669  -0.327   1.576   9.250  0.4870 -0.2072 -0.1096
  135SAPE  H11X14670  -0.424   1.628   9.264 -0.7453 -2.9082  2.6135
  135SAPE  H11Y14671  -0.352   1.470   9.232  0.5311 -0.1265 -0.6641
  135SAPE  C31214672  -0.244   1.622   9.133 -0.1778 -0.3540  0.0754
  135SAPE  H12X14673  -0.142   1.577   9.141 -0.2649 -1.2666 -2.7843
  135SAPE  H12Y14674  -0.218   1.730   9.140  0.9176 -0.5541 -0.6349
  135SAPE  C31314675  -0.311   1.582   8.999  0.4215 -0.6855  0.5603
  135SAPE  H13X14676  -0.413   1.625   8.997  0.5130 -0.4274 -2.8184
  135SAPE  H13Y14677  -0.314   1.471   8.994  1.0420 -0.6486 -2.2922
  135SAPE  C31414678  -0.221   1.629   8.886  0.4137 -0.1340  0.0064
  135SAPE  H14X14679  -0.123   1.582   8.907  0.7112  0.2105 -0.5577
  135SAPE  H14Y14680  -0.197   1.738   8.880  0.1168 -0.0231  0.7176
  135SAPE  C31514681  -0.273   1.593   8.745 -0.7029 -0.5335  0.4453
  135SAPE  H15X14682  -0.331   1.498   8.749  3.3432 -3.3681 -1.3701
  135SAPE  H15Y14683  -0.191   1.576   8.672 -1.3509 -0.0715 -0.4141
  135SAPE  C31614684  -0.355   1.700   8.671 -0.3897 -0.3098  0.1678
  135SAPE  H16X14685  -0.289   1.780   8.632 -0.2656  0.7681  2.4188
  135SAPE  H16Y14686  -0.424   1.754   8.740 -1.1241 -1.0425  0.0143
  135SAPE  C31714687  -0.439   1.656   8.549  0.3954 -0.0438 -0.0152
  135SAPE  H17X14688  -0.507   1.583   8.599  0.6479 -0.6701 -0.5697
  135SAPE  H17Y14689  -0.368   1.603   8.482  1.1276  1.2884 -0.3165
  135SAPE  C31814690  -0.517   1.771   8.483 -0.1115  0.2828 -0.3891
  135SAPE  H18X14691  -0.577   1.741   8.395 -0.3611  2.6870 -1.1050
  135SAPE  H18Y14692  -0.446   1.847   8.445  0.8605  0.1076  1.0085
  135SAPE  H18Z14693  -0.582   1.822   8.558 -1.5528 -1.2773 -0.5013
  136SAPE     N14694   1.922   0.235  10.975  0.4713 -0.1075  0.5840
  136SAPE   HN114695   1.938   0.170  11.055  0.5791 -0.6885  0.0948
  136SAPE   HN214696   1.957   0.329  11.002  0.1531  1.0749 -2.7218
  136SAPE   HN314697   1.821   0.246  10.955  0.6186  2.4041  0.9530
  136SAPE   C1214698   2.010   0.214  10.852  0.0781  0.6328  0.0386
  136SAPE  H12A14699   1.957   0.151  10.777  0.1688  1.4076 -0.6981
  136SAPE  H12B14700   2.109   0.172  10.880  0.5443  1.1926 -0.7158
  136SAPE   C1114701   2.048   0.348  10.785 -0.1807 -0.3356 -0.5861
  136SAPE  H11A14702   1.960   0.392  10.733 -0.1928 -0.0524 -0.3228
  136SAPE  H11B14703   2.137   0.324  10.721  0.1048  0.7084 -0.5889
  136SAPE     P14704   2.129   0.577  10.873 -0.3132  0.2328 -0.2194
  136SAPE   O1314705   2.003   0.659  10.899  0.2960  0.0125  0.8039
  136SAPE   O1414706   2.249   0.614  10.947  0.3757  0.3883  0.6486
  136SAPE   O1214707   2.100   0.425  10.902  0.1937 -0.5336  0.3394
  136SAPE   O1114708   2.161   0.589  10.721 -0.6466  0.2480 -0.3811
  136SAPE    C114709   2.287   0.536  10.667  1.0466 -0.3039 -0.0320
  136SAPE    HA14710   2.374   0.603  10.687  0.3858  1.2212 -1.9356
  136SAPE    HB14711   2.311   0.441  10.719  2.8832 -0.0058 -0.2330
  136SAPE    C214712   2.273   0.509  10.515  0.6786  0.4392  0.0703
  136SAPE    HS14713   2.265   0.612  10.474  0.0788  0.1760 -0.4881
  136SAPE   O2114714   2.153   0.430  10.504  0.3147 -0.2101 -0.5437
  136SAPE   C2114715   2.082   0.445  10.387 -0.1731  0.4549 -0.5967
  136SAPE   O2214716   2.110   0.518  10.296 -0.8420  0.0516  0.0366
  136SAPE   C2214717   1.958   0.361  10.395  0.0647  0.4891  0.4384
  136SAPE   H2R14718   1.890   0.396  10.475  0.5586 -0.0827  1.1255
  136SAPE   H2S14719   1.901   0.376  10.301  0.6076  4.0232  0.5601
  136SAPE    C314720   2.391   0.430  10.449  0.2215 -0.6678 -0.2110
  136SAPE    HX14721   2.375   0.325  10.482 -3.2245 -0.4021 -0.6398
  136SAPE    HY14722   2.491   0.458  10.490  0.9405 -0.2848 -2.1192
  136SAPE   O3114723   2.394   0.449  10.304  0.6046  0.1155 -0.8859
  136SAPE   C3114724   2.448   0.566  10.270  0.4192 -0.5259  0.0347
  136SAPE   O3214725   2.489   0.650  10.347  0.3261  0.0100  0.9640
  136SAPE   C3214726   2.440   0.571  10.116  0.2882  0.3463  0.0724
  136SAPE   H2X14727   2.341   0.534  10.084 -0.6611  1.0557  1.9918
  136SAPE   H2Y14728   2.514   0.502  10.071 -0.9670  0.0217 -1.5636
  136SAPE   C2314729   1.980   0.211  10.411 -0.1133  0.3619 -0.5737
  136SAPE   H3R14730   1.876   0.177  10.432 -0.1812  1.3122  0.7028
  136SAPE   H3S14731   2.048   0.191  10.496  1.9512 -1.4796 -2.5299
  136SAPE   C2414732   2.026   0.132  10.285 -0.0272  1.0003 -0.3571
  136SAPE   H4R14733   1.937   0.128  10.219 -0.1721  0.6469 -0.1463
  136SAPE   H4S14734   2.047   0.025  10.309 -0.5441  1.0069  0.1561
  136SAPE   C2514735   2.155   0.187  10.226  0.2524  0.1547 -0.7616
  136SAPE   H5R14736   2.246   0.169  10.287  0.3554 -4.3599 -1.8856
  136SAPE   C2614737   2.171   0.240  10.105  0.2529  0.0818  0.4190
  136SAPE   H6R14738   2.266   0.283  10.072 -0.1792  0.3591 -0.5088
  136SAPE   C2714739   2.060   0.260  10.000 -0.0411 -0.3384  0.3088
  136SAPE   H7R14740   2.031   0.367   9.993 -0.4259 -0.4635 -0.0279
  136SAPE   H7S14741   1.966   0.216  10.039  0.2586  1.0183  2.7446
  136SAPE   C2814742   2.104   0.198   9.874  0.2087 -0.2169 -0.1606
  136SAPE   H8R14743   2.164   0.106   9.886  1.2016  0.5668  1.1837
  136SAPE   C2914744   2.086   0.238   9.743  0.3391 -0.3433 -0.2021
  136SAPE   H9R14745   2.150   0.187   9.669  0.1688 -1.5208  0.4261
  136SAPE  C21014746   2.017   0.363   9.698 -0.2532  0.5970 -1.2369
  136SAPE  H10R14747   2.086   0.438   9.655 -0.1208  0.2282 -1.6718
  136SAPE  H10S14748   1.967   0.419   9.780 -0.0795  1.7636 -1.9214
  136SAPE  C21114749   1.924   0.320   9.588  0.5505  0.3389  0.2246
  136SAPE  H11R14750   1.821   0.295   9.618  0.7436 -0.4281  0.2532
  136SAPE  C21214751   1.948   0.316   9.457 -0.6555 -0.2991  0.1555
  136SAPE  H12R14752   1.871   0.281   9.388 -1.0995  0.0175  0.4879
  136SAPE  C21314753   2.073   0.346   9.376 -0.5311 -0.5757 -0.4025
  136SAPE  H13R14754   2.156   0.374   9.444 -0.6043 -1.6932  0.1715
  136SAPE  H13S14755   2.047   0.427   9.304  2.3790  1.2189  0.3875
  136SAPE  C21414756   2.115   0.215   9.316 -0.3447  0.1523 -0.7474
  136SAPE  H14R14757   2.111   0.126   9.379  2.1624  0.5274  0.0688
  136SAPE  C21514758   2.152   0.198   9.187  0.2786  0.2029  0.1807
  136SAPE  H15R14759   2.178   0.103   9.139 -1.3752  0.1244 -0.6422
  136SAPE  C21614760   2.158   0.307   9.081  0.0308 -0.1022 -0.2263
  136SAPE  H16R14761   2.254   0.294   9.025 -0.1737  1.9116 -1.1406
  136SAPE  H16S14762   2.158   0.411   9.119 -0.6386  1.2943 -3.6674
  136SAPE  C21714763   2.039   0.290   8.984 -1.0496  0.0126 -0.7843
  136SAPE  H17R14764   2.024   0.372   8.911 -1.8972 -0.8638 -1.6360
  136SAPE  H17S14765   1.947   0.293   9.046  0.2306  1.3560  1.1525
  136SAPE  C21814766   2.067   0.169   8.897  0.4961  0.5421 -0.0540
  136SAPE  H18R14767   2.105   0.074   8.940 -0.7956  0.2330  0.4698
  136SAPE  H18S14768   2.141   0.210   8.826 -0.2029  3.1355  0.6144
  136SAPE  C21914769   1.950   0.120   8.811  0.0845  0.0203 -0.4347
  136SAPE  H19R14770   1.982   0.046   8.735  1.3470 -0.4082  0.4787
  136SAPE  H19S14771   1.911   0.207   8.754 -1.9178  1.4345  2.8091
  136SAPE  C22014772   1.836   0.058   8.893 -0.9127  0.1492  0.3475
  136SAPE  H20R14773   1.821   0.127   8.979  1.6495  1.2376  0.0155
  136SAPE  H20S14774   1.876  -0.036   8.936  0.2142  0.6115  0.3409
  136SAPE  H20T14775   1.743   0.035   8.837  0.0322  1.1274 -1.7312
  136SAPE   C3314776   2.454   0.707  10.053 -0.2487 -0.6689 -0.1746
  136SAPE   H3X14777   2.558   0.736  10.080 -0.5537 -0.0785  0.4007
  136SAPE   H3Y14778   2.379   0.772  10.104 -0.2401 -0.6389 -0.2016
  136SAPE   C3414779   2.439   0.710   9.904 -0.0925 -0.0286  0.3342
  136SAPE   H4X14780   2.500   0.633   9.852  1.7874  1.7877 -0.2657
  136SAPE   H4Y14781   2.470   0.809   9.866 -0.9094  0.3664  0.6838
  136SAPE   C3514782   2.289   0.706   9.856  0.0748  0.5777  0.0148
  136SAPE   H5X14783   2.227   0.787   9.899 -1.5898 -1.1507  1.0412
  136SAPE   H5Y14784   2.249   0.606   9.886  1.0434  0.4211  0.8841
  136SAPE   C3614785   2.288   0.722   9.704  0.0796  0.2293 -0.3304
  136SAPE   H6X14786   2.335   0.633   9.656 -0.5248  0.2998 -1.0682
  136SAPE   H6Y14787   2.342   0.812   9.668  1.5093 -1.1388 -1.7920
  136SAPE   C3714788   2.144   0.738   9.642 -0.5925  0.2124 -0.7328
  136SAPE   H7X14789   2.119   0.836   9.688 -1.4781 -0.3429 -0.0033
  136SAPE   H7Y14790   2.083   0.650   9.671 -1.5309  1.1927  0.3350
  136SAPE   C3814791   2.140   0.760   9.489 -0.5841 -1.1355 -0.7838
  136SAPE   H8X14792   2.219   0.693   9.447  0.9218  0.4189 -0.5227
  136SAPE   H8Y14793   2.180   0.860   9.463  0.2639 -0.5423  2.3888
  136SAPE   C3914794   2.007   0.738   9.405 -0.2260  0.3990 -0.5960
  136SAPE   H9X14795   1.924   0.778   9.467  0.0083 -1.7148  1.2193
  136SAPE   H9Y14796   1.984   0.631   9.392 -0.1664  0.4069 -0.7708
  136SAPE  C31014797   2.011   0.800   9.267  0.1786 -0.3827  0.3872
  136SAPE  H10X14798   2.119   0.792   9.241  0.8426  3.0891  1.5560
  136SAPE  H10Y14799   1.992   0.909   9.280  2.6058  0.2695 -0.8485
  136SAPE  C31114800   1.929   0.735   9.158  0.7158 -0.5353  0.3511
  136SAPE  H11X14801   1.820   0.752   9.166  0.3269 -2.5545 -0.1495
  136SAPE  H11Y14802   1.958   0.628   9.156 -0.8020 -0.9900  1.3738
  136SAPE  C31214803   1.963   0.796   9.017 -0.0471  0.1548  0.1211
  136SAPE  H12X14804   2.073   0.808   9.011  0.0201  0.4300  1.4385
  136SAPE  H12Y14805   1.930   0.901   9.013 -1.2493 -0.2249 -0.2401
  136SAPE  C31314806   1.891   0.731   8.907 -0.0422 -0.0652  0.0972
  136SAPE  H13X14807   1.783   0.726   8.934 -0.8009  0.5414 -2.5153
  136SAPE  H13Y14808   1.915   0.626   8.879 -1.1198  0.3838 -2.8671
  136SAPE  C31414809   1.897   0.809   8.780 -0.8010 -0.1695  0.3712
  136SAPE  H14X14810   2.000   0.802   8.739 -1.2023 -2.2209 -0.4252
  136SAPE  H14Y14811   1.873   0.916   8.797  2.2406  0.5281  0.7745
  136SAPE  C31514812   1.801   0.754   8.671  0.8984 -0.7518 -0.0561
  136SAPE  H15X14813   1.698   0.739   8.710 -0.4366  0.1165 -2.9854
  136SAPE  H15Y14814   1.829   0.652   8.637 -0.9509 -0.9207 -1.2060
  136SAPE  C31614815   1.791   0.852   8.553  0.4883 -0.1190  0.5505
  136SAPE  H16X14816   1.892   0.883   8.521 -0.5678  1.7194 -1.2641
  136SAPE  H16Y14817   1.751   0.951   8.582 -1.7392 -1.4024  2.1782
  136SAPE  C31714818   1.711   0.810   8.430 -0.8183  0.0456  0.4902
  136SAPE  H17X14819   1.729   0.706   8.394 -1.2576 -0.3054  1.2597
  136SAPE  H17Y14820   1.732   0.878   8.344 -0.5348 -0.5462  0.0882
  136SAPE  C31814821   1.564   0.837   8.455 -0.5652  0.8460  0.4458
  136SAPE  H18X14822   1.527   0.758   8.524  1.3367  1.5049  2.3308
  136SAPE  H18Y14823   1.519   0.826   8.354 -1.4446 -3.7087  1.1406
  136SAPE  H18Z14824   1.548   0.936   8.504  2.5789  1.1987  0.9843
  137SAPE     N14825   6.442   4.278  10.965  0.0572 -0.1461  0.2079
  137SAPE   HN114826   6.409   4.183  10.992 -0.2848 -0.4636 -1.2496
  137SAPE   HN214827   6.385   4.306  10.883 -0.5549 -3.0103 -0.4643
  137SAPE   HN314828   6.544   4.268  10.946  0.2472 -1.6592  1.6834
  137SAPE   C1214829   6.433   4.374  11.078 -0.1852  0.4921  0.5880
  137SAPE  H12A14830   6.444   4.475  11.034 -1.9091  0.1814 -0.6580
  137SAPE  H12B14831   6.517   4.352  11.147  2.0980  1.2734 -1.7806
  137SAPE   C1114832   6.300   4.360  11.152  1.0316 -0.0427  0.2082
  137SAPE  H11A14833   6.297   4.427  11.241 -2.5550 -2.3332  2.0916
  137SAPE  H11B14834   6.295   4.259  11.198  2.4451 -1.4304 -2.5070
  137SAPE     P14835   6.124   4.513  11.030 -0.2919 -0.0806  0.2201
  137SAPE   O1314836   6.002   4.527  11.114 -0.2810 -0.4219 -0.3274
  137SAPE   O1414837   6.223   4.617  11.045 -0.4285  0.2949  0.4699
  137SAPE   O1214838   6.183   4.373  11.069 -0.2063 -0.1263  0.0336
  137SAPE   O1114839   6.073   4.519  10.883  0.3604 -0.0169  0.5372
  137SAPE    C114840   6.002   4.403  10.832 -0.5291 -0.2065 -0.2994
  137SAPE    HA14841   5.967   4.334  10.912 -1.9873  1.5124  0.6171
  137SAPE    HB14842   5.911   4.435  10.778 -0.0281  0.8892 -0.5098
  137SAPE    C214843   6.091   4.310  10.740  0.6593  0.6314  0.4899
  137SAPE    HS14844   6.173   4.255  10.792  0.2000  1.4899  2.1910
  137SAPE   O2114845   6.132   4.398  10.637  0.2263  0.8104  0.5437
  137SAPE   C2114846   6.258   4.426  10.652  0.1011 -0.5760 -0.2043
  137SAPE   O2214847   6.323   4.400  10.751  0.1239  0.0896  0.5398
  137SAPE   C2214848   6.300   4.508  10.534 -0.0952 -0.5169  0.4217
  137SAPE   H2R14849   6.310   4.440  10.447 -0.0147 -0.1829  0.1667
  137SAPE   H2S14850   6.221   4.586  10.524 -0.2348 -0.4442  1.8865
  137SAPE    C314851   6.006   4.190  10.679 -0.7049 -0.0271  0.5963
  137SAPE    HX14852   5.998   4.108  10.754  3.0051 -1.8620 -0.7594
  137SAPE    HY14853   6.070   4.160  10.593 -3.1893  1.7633 -2.0402
  137SAPE   O3114854   5.879   4.239  10.637  0.0504 -0.0711  0.0021
  137SAPE   C3114855   5.803   4.149  10.569  0.4566  0.2373 -0.4964
  137SAPE   O3214856   5.818   4.026  10.572  0.3186 -0.1340 -0.0385
  137SAPE   C3214857   5.694   4.221  10.493 -0.1383  0.4873  0.6113
  137SAPE   H2X14858   5.644   4.295  10.560  0.8772  0.2594  1.6513
  137SAPE   H2Y14859   5.618   4.157  10.444 -0.2797  1.7487 -0.8778
  137SAPE   C2314860   6.436   4.574  10.554 -0.3044  0.7506 -0.3168
  137SAPE   H3R14861   6.439   4.627  10.652 -0.7372 -0.0480  0.1375
  137SAPE   H3S14862   6.450   4.654  10.479 -1.4737 -0.4559 -1.8823
  137SAPE   C2414863   6.551   4.477  10.538  0.1435  0.1824  0.4333
  137SAPE   H4R14864   6.550   4.451  10.430 -2.6873 -1.3317  0.7192
  137SAPE   H4S14865   6.549   4.378  10.589 -0.0237  0.7113  1.4919
  137SAPE   C2514866   6.688   4.545  10.565 -0.1147 -0.3647 -0.0165
  137SAPE   H5R14867   6.689   4.613  10.652  1.4765 -0.3962  0.0046
  137SAPE   C2614868   6.806   4.528  10.495 -0.1991  0.3330 -0.5696
  137SAPE   H6R14869   6.903   4.568  10.529 -0.4823  0.5106  0.0323
  137SAPE   C2714870   6.830   4.442  10.371  0.2806  0.2887 -0.0909
  137SAPE   H7R14871   6.858   4.513  10.290 -1.7048 -0.4285 -1.4808
  137SAPE   H7S14872   6.747   4.382  10.329 -0.5950  1.9348 -0.7961
  137SAPE   C2814873   6.947   4.343  10.401  0.1035 -0.2091  0.8327
  137SAPE   H8R14874   6.935   4.282  10.491 -1.5128  1.0486  1.5189
  137SAPE   C2914875   7.055   4.324  10.325 -0.0722 -0.2813  0.4261
  137SAPE   H9R14876   7.142   4.270  10.367  1.5480  1.6464 -0.2871
  137SAPE  C21014877   7.078   4.390  10.189 -0.6928 -0.1158 -0.3806
  137SAPE  H10R14878   7.183   4.412  10.161 -1.4276  2.0454 -1.7366
  137SAPE  H10S14879   7.048   4.496  10.208  0.2106  0.1353 -0.3233
  137SAPE  C21114880   6.998   4.328  10.082  0.1776  0.3540  0.2515
  137SAPE  H11R14881   6.906   4.281  10.120  0.8846 -2.0004 -0.7676
  137SAPE  C21214882   7.044   4.301   9.957  0.1104 -0.3756  0.1171
  137SAPE  H12R14883   6.968   4.248   9.897 -3.4926  2.4445  1.8086
  137SAPE  C21314884   7.173   4.344   9.887  0.3965  0.0144  0.0827
  137SAPE  H13R14885   7.217   4.427   9.946 -0.2494 -0.2146  0.9093
  137SAPE  H13S14886   7.147   4.397   9.793  1.8115 -0.5159 -0.6354
  137SAPE  C21414887   7.274   4.229   9.877  0.1149  0.3125  0.7276
  137SAPE  H14R14888   7.278   4.173   9.972 -0.4459 -0.3087  0.3902
  137SAPE  C21514889   7.355   4.187   9.781  0.2412 -0.5530 -0.2287
  137SAPE  H15R14890   7.412   4.096   9.806  1.3176  0.5012  1.3349
  137SAPE  C21614891   7.361   4.244   9.642 -0.3694  0.0624 -0.0934
  137SAPE  H16R14892   7.445   4.316   9.635 -2.1661  2.0920 -3.5344
  137SAPE  H16S14893   7.278   4.313   9.614  1.7070  1.9642 -1.9686
  137SAPE  C21714894   7.388   4.138   9.537  0.4437  0.1930 -0.2339
  137SAPE  H17R14895   7.292   4.083   9.524  1.1242 -0.9128 -0.7955
  137SAPE  H17S14896   7.470   4.073   9.575  2.6944  1.2305 -3.0075
  137SAPE  C21814897   7.443   4.196   9.400  0.5905  0.3910 -0.9070
  137SAPE  H18R14898   7.542   4.244   9.417 -0.3430  2.6107 -1.3414
  137SAPE  H18S14899   7.381   4.281   9.365  2.0747  1.7572 -0.3616
  137SAPE  C21914900   7.465   4.093   9.297  0.2625  0.2802  0.7864
  137SAPE  H19R14901   7.371   4.038   9.278  1.2127 -2.3246  2.9629
  137SAPE  H19S14902   7.523   4.008   9.338  0.6007 -0.6691 -1.5525
  137SAPE  C22014903   7.526   4.149   9.168 -0.0549  0.7277 -0.3782
  137SAPE  H20R14904   7.440   4.192   9.113  0.0960  3.5967  1.4009
  137SAPE  H20S14905   7.561   4.067   9.102 -0.6336 -0.0933  0.3108
  137SAPE  H20T14906   7.604   4.224   9.194 -0.0165  0.6981 -0.4114
  137SAPE   C3314907   5.754   4.308  10.379  0.3460  0.3797 -0.3818
  137SAPE   H3X14908   5.809   4.250  10.301 -1.6920  0.5622 -2.0682
  137SAPE   H3Y14909   5.825   4.383  10.420  0.1958  1.1106 -1.3870
  137SAPE   C3414910   5.639   4.387  10.309  0.7843  0.3787  0.1112
  137SAPE   H4X14911   5.606   4.457  10.389 -0.7686 -0.0846 -0.0738
  137SAPE   H4Y14912   5.560   4.318  10.272  0.6347  0.7913 -0.3657
  137SAPE   C3514913   5.678   4.462  10.182  0.0619 -0.0741 -0.4387
  137SAPE   H5X14914   5.737   4.550  10.214 -2.0828  1.5887 -0.8189
  137SAPE   H5Y14915   5.582   4.503  10.144 -0.8394 -0.8401  0.9075
  137SAPE   C3614916   5.750   4.375  10.079 -0.3052 -0.1019 -0.7602
  137SAPE   H6X14917   5.711   4.272  10.093 -0.3595  0.2849  2.9987
  137SAPE   H6Y14918   5.860   4.361  10.090 -0.2358  1.0511  0.2673
  137SAPE   C3714919   5.706   4.410   9.937 -0.5007 -0.2680 -0.3362
  137SAPE   H7X14920   5.595   4.420   9.941 -0.3032  2.0647  2.4663
  137SAPE   H7Y14921   5.742   4.329   9.869 -2.4378  0.1370 -1.9602
  137SAPE   C3814922   5.768   4.546   9.890 -0.4208  0.2817  0.3863
  137SAPE   H8X14923   5.873   4.529   9.858 -0.2853 -1.7790  1.7087
  137SAPE   H8Y14924   5.778   4.615   9.977 -2.3295  1.5274 -0.3364
  137SAPE   C3914925   5.693   4.625   9.779 -0.0383  0.4112  0.0532
  137SAPE   H9X14926   5.762   4.706   9.747  2.1375 -1.0430  0.7577
  137SAPE   H9Y14927   5.603   4.664   9.831 -0.2502 -1.7771  1.4569
  137SAPE  C31014928   5.656   4.537   9.663 -0.1745 -0.1664 -0.2403
  137SAPE  H10X14929   5.566   4.474   9.678 -0.0078 -0.4174 -0.2851
  137SAPE  H10Y14930   5.746   4.475   9.642  0.8974  1.9641 -2.4297
  137SAPE  C31114931   5.638   4.607   9.521  0.1814 -0.6435 -0.5445
  137SAPE  H11X14932   5.716   4.686   9.512 -1.0211  0.5863 -0.4259
  137SAPE  H11Y14933   5.537   4.650   9.506  0.3511 -0.2971 -0.7064
  137SAPE  C31214934   5.661   4.518   9.398 -0.0887 -0.1140 -0.3199
  137SAPE  H12X14935   5.572   4.453   9.389 -0.8152  0.5408  1.5898
  137SAPE  H12Y14936   5.746   4.449   9.419  1.2925  1.8947  1.1001
  137SAPE  C31314937   5.667   4.587   9.259 -0.2079 -1.0120 -0.2949
  137SAPE  H13X14938   5.753   4.657   9.249 -0.2524 -0.1253  3.7694
  137SAPE  H13Y14939   5.572   4.644   9.254 -0.4387 -1.0010  2.3731
  137SAPE  C31414940   5.676   4.495   9.138  0.4792 -1.0177  0.2507
  137SAPE  H14X14941   5.585   4.430   9.134 -0.4106  0.2346 -1.1942
  137SAPE  H14Y14942   5.769   4.435   9.146  1.2528  0.3846  2.6279
  137SAPE  C31514943   5.677   4.571   8.999  0.2645  0.0693  0.1366
  137SAPE  H15X14944   5.764   4.639   9.010  0.6715 -0.5148  0.6337
  137SAPE  H15Y14945   5.581   4.626   8.993  1.4521  2.0655 -1.9018
  137SAPE  C31614946   5.702   4.488   8.873 -0.3195 -0.3760  0.0076
  137SAPE  H16X14947   5.622   4.410   8.867  1.7814 -2.6802  0.3874
  137SAPE  H16Y14948   5.801   4.438   8.876 -0.1855 -0.0782  0.6335
  137SAPE  C31714949   5.688   4.569   8.749  0.1698 -0.3427 -0.4218
  137SAPE  H17X14950   5.776   4.636   8.746  0.1655 -0.1401  2.0420
  137SAPE  H17Y14951   5.597   4.632   8.740  0.3654 -0.3116 -2.6888
  137SAPE  C31814952   5.693   4.490   8.619 -0.3583  0.3776  0.2659
  137SAPE  H18X14953   5.623   4.404   8.618  1.5427 -1.2865 -1.7306
  137SAPE  H18Y14954   5.796   4.449   8.610 -1.0603 -1.5198  0.5253
  137SAPE  H18Z14955   5.664   4.559   8.537 -0.8044  0.4533  0.4837
  138SAPE     N14956   6.212   5.929  10.749  0.2006 -0.2786 -0.2480
  138SAPE   HN114957   6.219   5.889  10.845 -3.4629  1.5554  0.9895
  138SAPE   HN214958   6.265   5.861  10.691  0.3059 -0.9764  0.6418
  138SAPE   HN314959   6.248   6.026  10.751 -1.9172  0.5665  1.9221
  138SAPE   C1214960   6.071   5.911  10.698  0.7562 -0.2109  0.3239
  138SAPE  H12A14961   6.059   5.905  10.588  0.9337 -2.0932  0.3828
  138SAPE  H12B14962   6.011   5.995  10.740  0.8085 -0.3880  0.7641
  138SAPE   C1114963   6.015   5.782  10.764  0.1968 -0.9947  0.4072
  138SAPE  H11A14964   6.029   5.779  10.875  1.1561  1.6516  0.4392
  138SAPE  H11B14965   6.054   5.682  10.736 -1.2528 -1.1233 -1.3314
  138SAPE     P14966   5.748   5.790  10.827 -0.3090 -0.0966  0.4495
  138SAPE   O1314967   5.768   5.897  10.925  0.4375  0.1031  0.7420
  138SAPE   O1414968   5.643   5.813  10.732  0.8739  0.3962  0.1921
  138SAPE   O1214969   5.878   5.770  10.735 -0.4537  0.0911 -0.2212
  138SAPE   O1114970   5.725   5.656  10.904  0.2267 -0.1341  0.5793
  138SAPE    C114971   5.782   5.535  10.859  0.2353 -0.5880  0.1218
  138SAPE    HA14972   5.876   5.545  10.800  0.1261  2.0590  0.3064
  138SAPE    HB14973   5.804   5.474  10.950  1.6357  0.8219  0.7801
  138SAPE    C214974   5.685   5.457  10.768  0.2343 -0.6861  0.2320
  138SAPE    HS14975   5.732   5.366  10.725  2.8544  2.5147 -4.6674
  138SAPE   O2114976   5.662   5.543  10.655  0.1943  0.6532  0.0947
  138SAPE   C2114977   5.746   5.551  10.562 -0.5380 -0.6256  0.7309
  138SAPE   O2214978   5.847   5.481  10.555  0.3568  0.1960  0.3296
  138SAPE   C2214979   5.697   5.642  10.449  0.5670  0.5374 -0.1331
  138SAPE   H2R14980   5.609   5.696  10.491  0.9161  0.3451  0.8534
  138SAPE   H2S14981   5.772   5.724  10.441  0.7424  0.8345  3.2872
  138SAPE    C314982   5.551   5.425  10.848  0.0915  1.0173 -0.5335
  138SAPE    HX14983   5.496   5.520  10.864  1.0247  1.4939 -0.0491
  138SAPE    HY14984   5.585   5.378  10.943  2.1212 -0.8116 -2.0612
  138SAPE   O3114985   5.465   5.329  10.773  0.3062 -0.9598 -0.2874
  138SAPE   C3114986   5.390   5.379  10.676 -0.0150  0.3192  0.7427
  138SAPE   O3214987   5.347   5.494  10.667 -0.5010 -0.2129 -0.4319
  138SAPE   C3214988   5.343   5.266  10.589  0.2515  0.0182  0.5537
  138SAPE   H2X14989   5.275   5.199  10.646  2.0361 -1.5190  0.9587
  138SAPE   H2Y14990   5.430   5.208  10.553 -1.3111 -2.2478  0.2563
  138SAPE   C2314991   5.646   5.566  10.325  0.6468 -0.1397 -0.7678
  138SAPE   H3R14992   5.586   5.644  10.275  1.5842  0.0563 -1.6358
  138SAPE   H3S14993   5.579   5.482  10.352  1.2843 -0.5965 -0.5641
  138SAPE   C2414994   5.762   5.516  10.242  0.1915  0.4813 -0.5133
  138SAPE   H4R14995   5.826   5.448  10.303  1.3778  0.7614 -1.3943
  138SAPE   H4S14996   5.824   5.608  10.229  0.7465  0.1699 -0.1004
  138SAPE   C2514997   5.723   5.457  10.107  0.5058 -0.3911 -0.4616
  138SAPE   H5R14998   5.646   5.379  10.113 -1.1693  1.2872  1.3184
  138SAPE   C2614999   5.756   5.503   9.984  0.3968  0.7468 -0.1228
  138SAPE   H6R15000   5.697   5.472   9.896  1.0084 -0.4632 -0.1183
  138SAPE   C2715001   5.849   5.618   9.958  0.8915 -0.3640  0.1495
  138SAPE   H7R15002   5.947   5.565   9.947  1.1396  0.0983  0.1056
  138SAPE   H7S15003   5.855   5.683  10.048 -2.0535  0.6733 -0.3125
  138SAPE   C2815004   5.813   5.703   9.838 -0.1895  0.1504  0.7323
  138SAPE   H8R15005   5.752   5.791   9.863 -1.4628 -0.1595 -1.0823
  138SAPE   C2915006   5.848   5.690   9.705 -0.2635  0.3172  0.3052
  138SAPE   H9R15007   5.802   5.759   9.633  0.5177  1.6819  1.0653
  138SAPE  C21015008   5.941   5.585   9.648  0.3106  0.1050 -0.2616
  138SAPE  H10R15009   5.961   5.508   9.727 -3.3497 -0.0732  0.6888
  138SAPE  H10S15010   6.038   5.636   9.634 -0.4111  1.7827  0.5271
  138SAPE  C21115011   5.893   5.520   9.523 -0.1998  0.2666 -0.3633
  138SAPE  H11R15012   5.800   5.462   9.536  1.3605 -1.8296  2.5765
  138SAPE  C21215013   5.960   5.507   9.405  0.3071  0.1454 -0.3382
  138SAPE  H12R15014   5.923   5.437   9.329  0.1053 -0.0862 -0.0300
  138SAPE  C21315015   6.098   5.565   9.379  0.6149 -0.2671 -0.6017
  138SAPE  H13R15016   6.103   5.675   9.393  0.6339 -0.2292 -0.9031
  138SAPE  H13S15017   6.113   5.560   9.269  0.7673  0.8352 -0.6325
  138SAPE  C21415018   6.195   5.477   9.454 -0.2635  0.3173 -0.3268
  138SAPE  H14R15019   6.153   5.411   9.531 -2.3491  0.7977 -0.9999
  138SAPE  C21515020   6.328   5.498   9.452 -0.0672  1.0685 -0.5192
  138SAPE  H15R15021   6.380   5.441   9.531 -1.7569  1.1978  0.7477
  138SAPE  C21615022   6.405   5.598   9.375  0.0554 -0.1929 -0.4401
  138SAPE  H16R15023   6.497   5.618   9.433  0.5238 -1.5249 -0.6877
  138SAPE  H16S15024   6.347   5.693   9.377 -1.3619 -1.0355  1.0263
  138SAPE  C21715025   6.440   5.554   9.232  0.0356 -0.6157  0.3310
  138SAPE  H17R15026   6.351   5.584   9.173  0.7818 -0.6859 -0.8663
  138SAPE  H17S15027   6.443   5.443   9.229 -0.1373 -0.6848  1.6892
  138SAPE  C21815028   6.569   5.620   9.193 -0.2517  0.4458 -0.2641
  138SAPE  H18R15029   6.650   5.622   9.268  0.6998  0.1314 -1.2545
  138SAPE  H18S15030   6.551   5.729   9.189  0.1566  0.5159 -0.2585
  138SAPE  C21915031   6.623   5.564   9.063  0.0642 -0.4299  0.2510
  138SAPE  H19R15032   6.612   5.454   9.054 -2.0433 -0.2601  0.2163
  138SAPE  H19S15033   6.731   5.576   9.041  0.1676  0.1839  1.0740
  138SAPE  C22015034   6.547   5.626   8.941  0.6537 -0.5138 -0.0219
  138SAPE  H20R15035   6.437   5.624   8.960  0.5199 -0.4717 -0.7521
  138SAPE  H20S15036   6.547   5.565   8.848 -0.4649  0.7841 -0.9216
  138SAPE  H20T15037   6.591   5.725   8.917  0.7527 -0.6273 -0.3120
  138SAPE   C3315038   5.266   5.332  10.471  0.3091 -0.3552  0.1219
  138SAPE   H3X15039   5.334   5.405  10.421  0.5105  1.5116  2.8941
  138SAPE   H3Y15040   5.191   5.402  10.514  0.6363  3.2882 -4.4088
  138SAPE   C3415041   5.214   5.233  10.371 -0.3460  0.4711 -0.0048
  138SAPE   H4X15042   5.132   5.184  10.427 -0.8718  0.6814 -0.5777
  138SAPE   H4Y15043   5.287   5.150  10.359 -4.1546 -3.4889  1.5831
  138SAPE   C3515044   5.169   5.304  10.241  0.7293  0.0069  0.2936
  138SAPE   H5X15045   5.105   5.394  10.256  0.8964 -0.0249  1.2493
  138SAPE   H5Y15046   5.100   5.229  10.196 -0.6814  1.1407  0.4803
  138SAPE   C3615047   5.275   5.334  10.135  0.0692  1.1399  0.1900
  138SAPE   H6X15048   5.336   5.244  10.110 -0.5202  0.9791 -0.6922
  138SAPE   H6Y15049   5.348   5.410  10.170  0.7129  1.0640 -0.9458
  138SAPE   C3715050   5.194   5.370  10.010 -0.0344  0.4271  0.7947
  138SAPE   H7X15051   5.117   5.449  10.027  0.1144  0.6479  0.4473
  138SAPE   H7Y15052   5.142   5.278   9.976  1.6290  0.0845 -0.9747
  138SAPE   C3815053   5.271   5.408   9.883  0.1516 -0.2683 -0.5611
  138SAPE   H8X15054   5.193   5.439   9.811  1.6879  2.1702 -1.3190
  138SAPE   H8Y15055   5.318   5.316   9.840 -0.3800 -0.9757  0.3469
  138SAPE   C3915056   5.380   5.516   9.900 -0.3350  0.4100 -0.0018
  138SAPE   H9X15057   5.443   5.500   9.990 -1.6489  1.2215  1.0849
  138SAPE   H9Y15058   5.314   5.604   9.911 -2.5702 -0.8883 -2.1155
  138SAPE  C31015059   5.462   5.530   9.771 -0.2917 -0.8635 -0.4456
  138SAPE  H10X15060   5.501   5.430   9.742 -1.3234 -1.4048 -0.0190
  138SAPE  H10Y15061   5.547   5.588   9.813  0.3491 -2.7085  0.9344
  138SAPE  C31115062   5.398   5.597   9.653  0.1905 -0.1576  0.0168
  138SAPE  H11X15063   5.349   5.691   9.684 -3.5063 -1.8060 -0.3737
  138SAPE  H11Y15064   5.311   5.534   9.627 -0.7144 -0.6919  3.7764
  138SAPE  C31215065   5.493   5.611   9.528  0.2239  0.3776 -0.6498
  138SAPE  H12X15066   5.507   5.507   9.491 -0.0658  0.1460 -0.1197
  138SAPE  H12Y15067   5.589   5.645   9.573 -0.1454  1.5725 -0.7390
  138SAPE  C31315068   5.439   5.690   9.407 -0.5872  0.2051 -0.9404
  138SAPE  H13X15069   5.419   5.797   9.432  1.2024  0.0848  1.2984
  138SAPE  H13Y15070   5.339   5.649   9.384 -1.4721  1.4857  0.4500
  138SAPE  C31415071   5.536   5.679   9.286 -0.1444 -0.7040 -0.4672
  138SAPE  H14X15072   5.539   5.583   9.230 -0.9569 -0.4347 -0.9935
  138SAPE  H14Y15073   5.640   5.683   9.325  0.1357 -0.3956 -1.2362
  138SAPE  C31515074   5.500   5.788   9.186  0.9140  0.3354  0.0485
  138SAPE  H15X15075   5.515   5.890   9.228  1.7429 -0.1268  0.9119
  138SAPE  H15Y15076   5.391   5.778   9.166  0.9078  0.0127  0.2273
  138SAPE  C31615077   5.576   5.781   9.056 -0.7589  0.0028 -0.0945
  138SAPE  H16X15078   5.576   5.674   9.024 -1.5788  0.3373 -1.2673
  138SAPE  H16Y15079   5.680   5.806   9.086 -0.4857 -0.2386 -0.8202
  138SAPE  C31715080   5.545   5.873   8.938  0.2457 -0.5601  0.0841
  138SAPE  H17X15081   5.609   5.842   8.853 -1.5319 -2.0531 -0.7860
  138SAPE  H17Y15082   5.571   5.977   8.967 -2.2442  0.1598  0.0095
  138SAPE  C31815083   5.394   5.866   8.891 -0.1369  0.1968 -0.1686
  138SAPE  H18X15084   5.378   5.769   8.838  1.9657  1.1884 -2.8711
  138SAPE  H18Y15085   5.369   5.954   8.827  0.2604 -0.0732 -0.7106
  138SAPE  H18Z15086   5.327   5.866   8.980 -2.5966 -0.3933 -1.8941
  139SAPE     N15087   3.650   3.810  10.788  0.5224 -0.1760 -0.7912
  139SAPE   HN115088   3.721   3.873  10.744  0.6816  1.3372  1.4293
  139SAPE   HN215089   3.580   3.874  10.830  0.9511 -0.4813  0.4351
  139SAPE   HN315090   3.700   3.761  10.865  0.4409  0.6637 -0.1776
  139SAPE   C1215091   3.599   3.712  10.688 -0.7366  0.0711 -1.0825
  139SAPE  H12A15092   3.544   3.628  10.736  0.8756 -1.1214 -1.2619
  139SAPE  H12B15093   3.689   3.672  10.637 -0.2231  0.9368 -0.8773
  139SAPE   C1115094   3.510   3.781  10.594 -0.2397 -0.4962  0.0903
  139SAPE  H11A15095   3.456   3.712  10.527  1.6608 -1.6812 -0.3119
  139SAPE  H11B15096   3.574   3.840  10.525  1.1948  1.9060  3.1979
  139SAPE     P15097   3.277   3.879  10.705 -0.1249  0.0716  0.3098
  139SAPE   O1315098   3.279   3.799  10.837 -0.3384 -0.1540  0.2971
  139SAPE   O1415099   3.242   4.022  10.715  0.6546  0.2302 -0.3305
  139SAPE   O1215100   3.423   3.877  10.648  0.5961 -0.3250  0.1595
  139SAPE   O1115101   3.189   3.814  10.595  0.2175  0.0346 -0.2992
  139SAPE    C115102   3.207   3.856  10.466  0.3406  1.0312  0.0074
  139SAPE    HA15103   3.179   3.961  10.440  0.2140  1.0742  0.3157
  139SAPE    HB15104   3.312   3.859  10.431  0.6746 -1.0856  0.6750
  139SAPE    C215105   3.135   3.768  10.360 -0.7909  0.4697 -0.0922
  139SAPE    HS15106   3.025   3.785  10.355 -0.7960  0.7070  0.6686
  139SAPE   O2115107   3.170   3.621  10.369  0.4691 -0.8984  0.0006
  139SAPE   C2115108   3.092   3.554  10.452 -0.8487  0.5197 -0.1557
  139SAPE   O2215109   2.989   3.591  10.499 -0.0907 -0.0523  0.1272
  139SAPE   C2215110   3.155   3.416  10.482  0.1868  0.5361  0.9608
  139SAPE   H2R15111   3.228   3.400  10.400 -0.8911  2.0019 -0.3484
  139SAPE   H2S15112   3.210   3.419  10.578  0.1147 -0.9041  1.0645
  139SAPE    C315113   3.185   3.830  10.218  0.5359 -0.0048 -0.3317
  139SAPE    HX15114   3.289   3.793  10.205  1.2991  1.8741  0.0665
  139SAPE    HY15115   3.197   3.940  10.226 -1.1039  0.2652 -1.1455
  139SAPE   O3115116   3.116   3.784  10.099 -0.5853  0.3199 -0.8197
  139SAPE   C3115117   3.016   3.858  10.068  0.4810 -0.3717  0.2425
  139SAPE   O3215118   2.982   3.963  10.120  0.2058 -0.0440  0.2975
  139SAPE   C3215119   2.939   3.778   9.961  0.6931 -0.2302 -0.0299
  139SAPE   H2X15120   2.872   3.703  10.007  0.3913  0.9349  1.5036
  139SAPE   H2Y15121   3.010   3.730   9.890  1.6980 -2.1598  2.1334
  139SAPE   C2315122   3.053   3.293  10.498  0.7203 -0.4856  0.4276
  139SAPE   H3R15123   2.996   3.313  10.591 -1.2659  0.1042 -0.8615
  139SAPE   H3S15124   3.114   3.209  10.538  0.3810 -0.0512  1.9303
  139SAPE   C2415125   2.968   3.251  10.374 -0.8995  0.4112 -0.1181
  139SAPE   H4R15126   2.916   3.154  10.389  1.9265 -1.0479  1.1581
  139SAPE   H4S15127   3.038   3.256  10.288 -0.4474  1.0186  0.2748
  139SAPE   C2515128   2.867   3.352  10.346 -0.3632 -0.8493 -0.7661
  139SAPE   H5R15129   2.824   3.406  10.432 -1.5935 -1.5914 -0.8772
  139SAPE   C2615130   2.831   3.392  10.221 -0.2195 -0.4630  0.1231
  139SAPE   H6R15131   2.765   3.479  10.206  1.2708  0.3199 -2.6206
  139SAPE   C2715132   2.880   3.336  10.088  1.1558  0.6075  0.5686
  139SAPE   H7R15133   2.794   3.340  10.018  1.8863 -1.0467 -0.4689
  139SAPE   H7S15134   2.893   3.226  10.091 -2.1404 -0.1342 -3.5570
  139SAPE   C2815135   2.996   3.403  10.028  0.4868 -0.1995  0.6152
  139SAPE   H8R15136   3.067   3.438  10.104  1.2283 -0.3364 -0.0066
  139SAPE   C2915137   3.023   3.420   9.897  0.1153  0.1161  0.0341
  139SAPE   H9R15138   3.117   3.473   9.873  0.3843 -0.8702 -1.2040
  139SAPE  C21015139   2.938   3.375   9.786 -0.1961  0.0708 -0.3321
  139SAPE  H10R15140   2.888   3.469   9.754 -2.5769 -0.9479  0.1767
  139SAPE  H10S15141   2.859   3.301   9.811  1.1276 -0.8095  1.4683
  139SAPE  C21115142   3.015   3.324   9.668  0.4603 -0.4044  0.1212
  139SAPE  H11R15143   3.081   3.240   9.693  0.9194 -1.0939 -3.0448
  139SAPE  C21215144   3.010   3.353   9.538  0.6902  0.3264  0.7902
  139SAPE  H12R15145   3.077   3.303   9.467 -2.4238 -1.5112 -1.0467
  139SAPE  C21315146   2.925   3.456   9.464  0.3800  0.0900 -0.0921
  139SAPE  H13R15147   2.984   3.541   9.423  1.8836 -0.2671  1.1872
  139SAPE  H13S15148   2.853   3.514   9.525  1.7575 -1.3308  3.1550
  139SAPE  C21415149   2.850   3.399   9.347  0.3238 -0.5862  0.1533
  139SAPE  H14R15150   2.748   3.361   9.366  1.1823 -2.5941  0.9639
  139SAPE  C21515151   2.886   3.404   9.219  0.5358  0.3287 -0.0160
  139SAPE  H15R15152   2.817   3.378   9.138  1.1882  0.3191 -0.5775
  139SAPE  C21615153   3.022   3.460   9.162 -0.4935 -0.3686 -0.1470
  139SAPE  H16R15154   3.081   3.518   9.236 -2.9345  1.7622  0.2557
  139SAPE  H16S15155   3.002   3.531   9.078  1.1052 -0.0836 -0.3298
  139SAPE  C21715156   3.114   3.352   9.106 -0.2568 -0.1576  0.2009
  139SAPE  H17R15157   3.074   3.270   9.042  0.3597 -1.4117  1.3729
  139SAPE  H17S15158   3.148   3.302   9.199 -1.5530 -0.4794  0.5098
  139SAPE  C21815159   3.233   3.407   9.025  0.8741 -0.9069 -0.7620
  139SAPE  H18R15160   3.307   3.330   8.995  2.6907  0.7430 -0.6835
  139SAPE  H18S15161   3.279   3.483   9.092  2.1243 -0.5114 -2.0387
  139SAPE  C21915162   3.186   3.460   8.896  0.4740 -0.5603 -0.0333
  139SAPE  H19R15163   3.087   3.510   8.905 -0.6484 -2.4304 -1.1755
  139SAPE  H19S15164   3.166   3.370   8.834 -0.0059  0.9439 -2.1859
  139SAPE  C22015165   3.276   3.574   8.836 -0.2806 -0.8067  0.0746
  139SAPE  H20R15166   3.375   3.527   8.820 -0.6023 -1.6407  0.4718
  139SAPE  H20S15167   3.283   3.665   8.900  0.1942 -0.5818 -0.2924
  139SAPE  H20T15168   3.248   3.612   8.736  1.6740  1.2149  0.1999
  139SAPE   C3315169   2.838   3.875   9.891 -0.4214  0.3800  0.1800
  139SAPE   H3X15170   2.890   3.955   9.834  0.0913 -0.3653 -0.4301
  139SAPE   H3Y15171   2.773   3.923   9.967 -1.3142 -0.0819 -0.2761
  139SAPE   C3415172   2.758   3.791   9.790  0.6790  0.4824  0.4956
  139SAPE   H4X15173   2.675   3.860   9.765  1.5413  1.5795  0.5730
  139SAPE   H4Y15174   2.713   3.695   9.823  0.8590 -1.5663 -4.4065
  139SAPE   C3515175   2.829   3.770   9.658 -1.0394 -0.1307 -0.0163
  139SAPE   H5X15176   2.892   3.679   9.649  2.4125  2.1491 -0.8354
  139SAPE   H5Y15177   2.901   3.854   9.654 -0.5554 -0.4922  0.8541
  139SAPE   C3615178   2.735   3.778   9.541 -0.4689 -0.0666  0.4826
  139SAPE   H6X15179   2.659   3.856   9.563  1.5163  1.3723  2.6801
  139SAPE   H6Y15180   2.679   3.682   9.535 -2.4278  1.0821 -3.1448
  139SAPE   C3715181   2.794   3.823   9.402  0.3269 -0.1438  0.3955
  139SAPE   H7X15182   2.888   3.765   9.387  0.5195  0.7608 -2.5120
  139SAPE   H7Y15183   2.828   3.928   9.405  0.6148 -0.2439  0.6769
  139SAPE   C3815184   2.703   3.779   9.283 -0.0450 -0.6645  0.0597
  139SAPE   H8X15185   2.614   3.846   9.283  0.3730 -0.0967 -0.2667
  139SAPE   H8Y15186   2.679   3.671   9.287  0.4946 -0.8268 -0.9301
  139SAPE   C3915187   2.764   3.802   9.138 -0.2530  0.2913 -0.7833
  139SAPE   H9X15188   2.873   3.777   9.135 -0.3455 -0.9639  2.4047
  139SAPE   H9Y15189   2.760   3.912   9.129  2.6225  0.7488  1.6868
  139SAPE  C31015190   2.687   3.734   9.038 -0.1537  0.5070  0.7616
  139SAPE  H10X15191   2.578   3.754   9.050 -0.6566 -1.3787 -0.2692
  139SAPE  H10Y15192   2.709   3.627   9.056 -0.5886  0.3712  0.5090
  139SAPE  C31115193   2.723   3.770   8.894 -0.3088 -0.1011 -0.6103
  139SAPE  H11X15194   2.827   3.734   8.877  0.5146  0.7960  1.9242
  139SAPE  H11Y15195   2.722   3.880   8.879 -0.7505  0.0398  0.3400
  139SAPE  C31215196   2.621   3.698   8.799 -0.7423  0.5733 -0.2927
  139SAPE  H12X15197   2.650   3.591   8.802  1.1221  1.0332 -0.2107
  139SAPE  H12Y15198   2.648   3.737   8.698  1.0084 -0.1063 -0.1319
  139SAPE  C31315199   2.467   3.708   8.827  0.1677  0.5135  0.2746
  139SAPE  H13X15200   2.454   3.676   8.933 -2.1306 -0.8461 -0.3575
  139SAPE  H13Y15201   2.419   3.623   8.775  0.2823  0.1266  0.7993
  139SAPE  C31415202   2.404   3.842   8.788 -0.1647  0.2181  0.3567
  139SAPE  H14X15203   2.398   3.836   8.678  0.8162 -3.0275  0.3708
  139SAPE  H14Y15204   2.448   3.938   8.821 -1.4899 -0.2196  3.9177
  139SAPE  C31515205   2.257   3.873   8.837 -1.0156 -0.2103 -0.0719
  139SAPE  H15X15206   2.220   3.772   8.862 -1.9956  0.4848  1.3891
  139SAPE  H15Y15207   2.196   3.914   8.753 -0.5432  1.2118  0.2440
  139SAPE  C31615208   2.240   3.958   8.968 -0.8168  0.2681 -0.5676
  139SAPE  H16X15209   2.311   3.920   9.045 -1.6765 -0.7775 -0.2733
  139SAPE  H16Y15210   2.257   4.067   8.955 -1.5290  0.2640 -1.6865
  139SAPE  C31715211   2.103   3.954   9.033 -0.6668 -0.6701 -0.4313
  139SAPE  H17X15212   2.094   3.848   9.066  1.2370 -1.2058 -1.5109
  139SAPE  H17Y15213   2.032   3.983   8.953 -0.5665  1.0230  0.0586
  139SAPE  C31815214   2.092   4.043   9.160  0.9124  0.0558  0.7387
  139SAPE  H18X15215   2.011   4.005   9.227 -0.0178 -1.8707 -1.3480
  139SAPE  H18Y15216   2.062   4.147   9.137 -2.6589 -1.2082 -1.1208
  139SAPE  H18Z15217   2.183   4.041   9.223  2.1682 -0.0358 -1.0371
  140SAPE     N15218   5.924   1.265  11.260  0.2528  0.1737  0.3740
  140SAPE   HN115219   5.894   1.221  11.349  0.1668  3.8074  2.3440
  140SAPE   HN215220   5.959   1.357  11.292 -0.1290  1.4001 -2.3560
  140SAPE   HN315221   5.840   1.287  11.202 -0.3706  0.6610  1.4373
  140SAPE   C1215222   6.024   1.175  11.188  0.4110 -0.5929  0.3184
  140SAPE  H12A15223   5.967   1.089  11.148 -0.4173 -0.0405  0.2824
  140SAPE  H12B15224   6.100   1.141  11.261 -0.4503  0.1656  1.6122
  140SAPE   C1115225   6.088   1.272  11.082 -0.1167 -0.1067 -0.0842
  140SAPE  H11A15226   6.007   1.299  11.011  0.3138 -2.6820 -1.6888
  140SAPE  H11B15227   6.165   1.225  11.018  2.2687  0.4960  2.1514
  140SAPE     P15228   6.194   1.509  11.062 -0.2758 -0.1262 -0.1933
  140SAPE   O1315229   6.076   1.601  11.077  0.3844 -0.6448  0.3162
  140SAPE   O1415230   6.321   1.546  11.120 -0.9013  0.2780  0.1310
  140SAPE   O1215231   6.151   1.381  11.143  0.0046  0.2438 -0.5134
  140SAPE   O1115232   6.196   1.458  10.910  0.6121 -0.9054 -0.8003
  140SAPE    C115233   6.314   1.437  10.836  0.0869  0.1111  0.1898
  140SAPE    HA15234   6.404   1.427  10.899 -0.2446  0.9866  0.8375
  140SAPE    HB15235   6.304   1.336  10.791 -1.2068 -1.2005  3.1630
  140SAPE    C215236   6.337   1.539  10.721 -0.2159  0.4618  0.3116
  140SAPE    HS15237   6.321   1.640  10.766  1.2908  1.0442 -0.4196
  140SAPE   O2115238   6.237   1.522  10.612  0.2115  0.8861 -0.1359
  140SAPE   C2115239   6.232   1.614  10.516  0.0895  1.0922  0.4190
  140SAPE   O2215240   6.267   1.727  10.526  0.2353 -0.5761  0.2709
  140SAPE   C2215241   6.160   1.554  10.401  1.1844 -0.1068  0.0724
  140SAPE   H2R15242   6.156   1.443  10.401 -1.7990 -0.1240 -2.1497
  140SAPE   H2S15243   6.053   1.581  10.410  0.1633 -2.4482 -3.0135
  140SAPE    C315244   6.479   1.533  10.660  0.3137 -0.7955  0.2460
  140SAPE    HX15245   6.545   1.548  10.749  0.3404 -2.5283  0.5465
  140SAPE    HY15246   6.495   1.614  10.586 -0.7287  0.7829  1.6580
  140SAPE   O3115247   6.517   1.404  10.615  0.6179 -0.5710  0.2210
  140SAPE   C3115248   6.493   1.377  10.486 -0.5876  0.4475  0.2403
  140SAPE   O3215249   6.480   1.461  10.399  0.2767 -0.3470 -0.0622
  140SAPE   C3215250   6.500   1.218  10.463 -0.3596 -0.1124  0.4729
  140SAPE   H2X15251   6.507   1.162  10.559 -0.5916  1.1672  1.2617
  140SAPE   H2Y15252   6.603   1.200  10.424 -0.8549 -1.6882 -0.2090
  140SAPE   C2315253   6.217   1.596  10.261  0.1430 -0.0635  0.2667
  140SAPE   H3R15254   6.328   1.597  10.264  0.3230 -3.2922 -0.8902
  140SAPE   H3S15255   6.189   1.703  10.257  0.6624  0.0858  0.6656
  140SAPE   C2415256   6.159   1.528  10.126 -0.2522  0.4224 -0.0896
  140SAPE   H4R15257   6.196   1.427  10.097 -1.4552  0.1127 -0.6359
  140SAPE   H4S15258   6.191   1.581  10.034 -0.7337 -1.4320 -1.4056
  140SAPE   C2515259   6.006   1.523  10.116  0.0074 -0.4678 -0.0228
  140SAPE   H5R15260   5.959   1.621  10.097 -2.6590 -1.2541  1.9256
  140SAPE   C2615261   5.928   1.419  10.143 -0.0341 -0.3682 -0.8978
  140SAPE   H6R15262   5.818   1.419  10.144 -0.0897 -2.2218 -2.1032
  140SAPE   C2715263   5.974   1.281  10.184 -0.1989 -0.5474  0.4732
  140SAPE   H7R15264   6.058   1.296  10.255 -1.5092  0.3349  1.9051
  140SAPE   H7S15265   6.020   1.234  10.095  0.1137  2.0744 -0.8675
  140SAPE   C2815266   5.866   1.192  10.242  0.4700  0.6319  0.5944
  140SAPE   H8R15267   5.843   1.192  10.349  0.0535  2.6050  0.5419
  140SAPE   C2915268   5.801   1.085  10.174  0.2445 -1.2521 -0.5748
  140SAPE   H9R15269   5.729   1.026  10.232  0.2899  0.1097  0.9499
  140SAPE  C21015270   5.808   1.045  10.029 -0.0413 -0.1645 -0.1923
  140SAPE  H10R15271   5.838   0.938  10.032 -0.8457 -0.3790  1.2296
  140SAPE  H10S15272   5.888   1.108   9.985  1.3760  0.0772  2.5568
  140SAPE  C21115273   5.683   1.070   9.955  1.3483 -0.0538  0.2343
  140SAPE  H11R15274   5.589   1.051  10.009  1.6378  1.6904  1.4433
  140SAPE  C21215275   5.673   1.100   9.825 -0.0108 -0.0021 -0.9176
  140SAPE  H12R15276   5.571   1.124   9.790  0.6362  0.0807 -2.8708
  140SAPE  C21315277   5.780   1.124   9.718 -0.1886 -0.1289  0.5752
  140SAPE  H13R15278   5.723   1.117   9.623  1.2035  0.3170 -0.3267
  140SAPE  H13S15279   5.857   1.044   9.713  1.1828  1.1721  0.0451
  140SAPE  C21415280   5.843   1.261   9.743  0.2227  0.2753  0.2867
  140SAPE  H14R15281   5.774   1.333   9.791 -2.6314 -0.7169 -1.9838
  140SAPE  C21515282   5.971   1.294   9.715 -0.0213  0.0424 -0.6078
  140SAPE  H15R15283   6.019   1.393   9.720  0.5367 -0.2539  0.2855
  140SAPE  C21615284   6.064   1.191   9.647  0.4520 -0.8068  0.0033
  140SAPE  H16R15285   6.009   1.107   9.598  0.1250 -0.5980  0.0085
  140SAPE  H16S15286   6.146   1.162   9.717  0.4879  1.1448  0.8327
  140SAPE  C21715287   6.139   1.256   9.532 -0.0635  0.0073 -0.0925
  140SAPE  H17R15288   6.194   1.176   9.479 -0.2896 -1.2591  1.5059
  140SAPE  H17S15289   6.216   1.330   9.563 -1.4883  0.7878  1.8133
  140SAPE  C21815290   6.051   1.325   9.429  0.3797  0.1154  0.4876
  140SAPE  H18R15291   5.996   1.407   9.480  0.8388  0.5704  0.2550
  140SAPE  H18S15292   5.979   1.246   9.396  1.7496 -1.9783  2.2311
  140SAPE  C21915293   6.129   1.398   9.321 -0.6204  0.6599  0.1632
  140SAPE  H19R15294   6.200   1.463   9.377 -0.6234  0.7982  0.0074
  140SAPE  H19S15295   6.067   1.465   9.258  2.1611  1.5493 -1.8229
  140SAPE  C22015296   6.190   1.293   9.233  1.6745  0.1637 -0.6385
  140SAPE  H20R15297   6.266   1.238   9.292  1.1569  0.7514  0.6257
  140SAPE  H20S15298   6.239   1.333   9.142 -1.2873 -1.9808 -3.3941
  140SAPE  H20T15299   6.110   1.222   9.204 -1.1128  2.9730 -0.2880
  140SAPE   C3315300   6.393   1.147  10.382  0.8651 -0.1371  0.1273
  140SAPE   H3X15301   6.290   1.180  10.407  1.0409  0.5717 -0.0567
  140SAPE   H3Y15302   6.395   1.039  10.408  1.4944 -0.2933 -0.5217
  140SAPE   C3415303   6.418   1.153  10.229 -0.3154 -0.6044 -0.6939
  140SAPE   H4X15304   6.524   1.124  10.214  0.1201  0.3912  0.2927
  140SAPE   H4Y15305   6.417   1.259  10.198  0.7842  0.5710  2.7438
  140SAPE   C3515306   6.329   1.061  10.146 -0.7984  0.3472 -0.7194
  140SAPE   H5X15307   6.223   1.070  10.177 -0.2064 -2.1047  2.6775
  140SAPE   H5Y15308   6.366   0.959  10.170 -3.5719 -0.1566  2.1719
  140SAPE   C3615309   6.329   1.102  10.001  0.0854  0.1881  0.2591
  140SAPE   H6X15310   6.283   1.202   9.985 -0.2985 -0.2727 -1.8451
  140SAPE   H6Y15311   6.243   1.045   9.959 -0.8181  1.3168  0.5369
  140SAPE   C3715312   6.462   1.092   9.927  0.7843 -0.0141 -0.3839
  140SAPE   H7X15313   6.503   0.992   9.954 -3.4008 -2.6426 -2.6528
  140SAPE   H7Y15314   6.536   1.170   9.954 -1.0536  1.2605  1.1802
  140SAPE   C3815315   6.437   1.084   9.775 -0.7648  0.4626 -0.4270
  140SAPE   H8X15316   6.373   1.170   9.745 -1.8068  0.2117  0.9864
  140SAPE   H8Y15317   6.389   0.984   9.769 -2.2631  1.0932  0.5346
  140SAPE   C3915318   6.564   1.083   9.699 -0.4847 -0.1898  1.1056
  140SAPE   H9X15319   6.638   1.010   9.737  1.1584  0.4398 -0.7351
  140SAPE   H9Y15320   6.611   1.183   9.710 -1.8562  0.6132 -0.0386
  140SAPE  C31015321   6.549   1.059   9.547 -0.2272  0.1150 -0.3151
  140SAPE  H10X15322   6.475   1.127   9.499 -2.7229 -0.8413  1.9241
  140SAPE  H10Y15323   6.513   0.956   9.528 -0.6608  0.3837 -1.0111
  140SAPE  C31115324   6.692   1.076   9.485 -0.3724  0.0428 -0.2170
  140SAPE  H11X15325   6.765   1.010   9.537 -0.2632 -0.3004 -0.7984
  140SAPE  H11Y15326   6.715   1.184   9.491 -2.1649  0.4409  0.0045
  140SAPE  C31215327   6.701   1.025   9.342  0.7498 -0.0794  0.6520
  140SAPE  H12X15328   6.634   0.935   9.341 -1.1139  1.2070  2.0008
  140SAPE  H12Y15329   6.804   0.988   9.324  0.9274  0.5042  0.4893
  140SAPE  C31315330   6.653   1.124   9.238  0.7051 -0.9221 -0.2450
  140SAPE  H13X15331   6.736   1.197   9.224  0.9304 -0.6117  2.3322
  140SAPE  H13Y15332   6.568   1.180   9.282  0.8543 -0.8714 -0.0219
  140SAPE  C31415333   6.610   1.059   9.110 -0.0928  0.5773 -0.9238
  140SAPE  H14X15334   6.541   0.976   9.139  0.7729  0.2955  0.3920
  140SAPE  H14Y15335   6.700   1.020   9.057  2.0164  2.0191  1.4150
  140SAPE  C31515336   6.546   1.158   9.016 -0.0255  0.2327  0.1560
  140SAPE  H15X15337   6.622   1.235   8.992  0.3779 -0.9745 -2.8224
  140SAPE  H15Y15338   6.465   1.207   9.074 -1.9288 -0.8314 -1.5105
  140SAPE  C31615339   6.495   1.087   8.888  0.5379 -0.2157  0.0066
  140SAPE  H16X15340   6.406   1.026   8.915 -1.6358  2.9290  0.4826
  140SAPE  H16Y15341   6.589   1.042   8.851  2.3097  1.8218  1.8304
  140SAPE  C31715342   6.437   1.182   8.789  0.3045 -0.1488 -0.5421
  140SAPE  H17X15343   6.408   1.114   8.705 -1.6589 -0.1530  0.0901
  140SAPE  H17Y15344   6.517   1.252   8.757  1.2167 -1.8566 -2.2074
  140SAPE  C31815345   6.317   1.275   8.832  0.0846  0.4864 -0.5583
  140SAPE  H18X15346   6.298   1.358   8.760 -0.7320 -0.4674 -1.4744
  140SAPE  H18Y15347   6.340   1.317   8.932  2.1216 -0.0895 -0.7535
  140SAPE  H18Z15348   6.228   1.211   8.856  2.1174 -2.3236 -0.0084
  141SAPE     N15349   6.769   1.287  10.937  0.1561  0.5796  0.8919
  141SAPE   HN115350   6.789   1.319  10.841 -0.8389  1.1577  0.8656
  141SAPE   HN215351   6.677   1.238  10.928 -0.6733  2.4901 -2.3601
  141SAPE   HN315352   6.756   1.369  11.000  0.5125  2.3986 -1.2909
  141SAPE   C1215353   6.875   1.195  10.994  0.0405 -0.4949  0.9094
  141SAPE  H12A15354   6.834   1.144  11.084 -0.0703 -1.4697  0.3260
  141SAPE  H12B15355   6.961   1.260  11.018 -0.9122  1.1507  0.0666
  141SAPE   C1115356   6.923   1.086  10.894 -1.1847 -1.1292  0.2438
  141SAPE  H11A15357   7.012   1.029  10.927 -1.9143 -2.6710 -0.3787
  141SAPE  H11B15358   6.951   1.143  10.803 -0.2512  1.5364  2.0343
  141SAPE     P15359   6.781   0.881  10.967 -0.3446 -0.5148  0.2519
  141SAPE   O1315360   6.896   0.851  11.055 -0.3665  0.3092  0.8365
  141SAPE   O1415361   6.653   0.905  11.037 -0.3208  0.3172 -0.4779
  141SAPE   O1215362   6.818   0.996  10.871  0.4927  0.1011  0.4017
  141SAPE   O1115363   6.754   0.773  10.866 -0.1185  0.0938 -0.0604
  141SAPE    C115364   6.860   0.708  10.790 -0.1222  0.1149  0.0503
  141SAPE    HA15365   6.964   0.742  10.809  0.3852 -0.0573 -2.1819
  141SAPE    HB15366   6.868   0.608  10.837  0.6330  0.1778  0.0633
  141SAPE    C215367   6.840   0.700  10.640  0.5572 -0.0419 -0.6896
  141SAPE    HS15368   6.937   0.662  10.601  0.2043  0.1434 -1.8034
  141SAPE   O2115369   6.806   0.825  10.587 -0.4210 -0.6534  0.1887
  141SAPE   C2115370   6.896   0.919  10.600  0.3512 -0.5610 -0.4758
  141SAPE   O2215371   7.007   0.909  10.642 -0.4019 -0.2558 -0.2441
  141SAPE   C2215372   6.826   1.048  10.552 -0.3034  0.5430 -0.3794
  141SAPE   H2R15373   6.728   1.026  10.504 -0.2840  0.2908 -0.3035
  141SAPE   H2S15374   6.819   1.103  10.648 -0.0595 -2.7101  1.6567
  141SAPE    C315375   6.732   0.592  10.606 -0.5406 -0.1976 -0.7034
  141SAPE    HX15376   6.641   0.618  10.664  0.6205 -0.1407  1.1792
  141SAPE    HY15377   6.779   0.500  10.647  3.6507  1.9994 -0.0054
  141SAPE   O3115378   6.710   0.586  10.466  0.0411  0.3580  0.0680
  141SAPE   C3115379   6.627   0.669  10.414 -0.1075 -0.5444  0.0641
  141SAPE   O3215380   6.577   0.766  10.465 -0.1918  0.4376  0.6323
  141SAPE   C3215381   6.608   0.632  10.264 -0.7729 -0.1265  0.4002
  141SAPE   H2X15382   6.557   0.533  10.264  0.5075 -0.9005 -2.6974
  141SAPE   H2Y15383   6.711   0.616  10.226 -1.7430  0.5837 -2.8160
  141SAPE   C2315384   6.924   1.124  10.456  0.6035 -0.5953 -0.0288
  141SAPE   H3R15385   7.011   1.145  10.523 -1.5917  1.4045  2.4171
  141SAPE   H3S15386   6.875   1.224  10.449  1.3697 -0.2143 -0.1126
  141SAPE   C2415387   6.973   1.060  10.322  0.8178  0.7945 -0.5170
  141SAPE   H4R15388   7.042   0.976  10.342 -2.0108 -1.6359 -0.2948
  141SAPE   H4S15389   7.032   1.142  10.274 -0.3700  0.3677 -2.8858
  141SAPE   C2515390   6.861   1.009  10.239 -0.5288  0.0968  0.7765
  141SAPE   H5R15391   6.798   0.926  10.275 -1.1327 -0.4054 -1.2778
  141SAPE   C2615392   6.824   1.056  10.113  0.0838  0.1007  0.7595
  141SAPE   H6R15393   6.726   1.018  10.083 -0.4098  1.4533  0.5928
  141SAPE   C2715394   6.900   1.155  10.034 -0.1268 -0.7942  0.6515
  141SAPE   H7R15395   7.010   1.157  10.049 -0.2208 -0.3202  1.3168
  141SAPE   H7S15396   6.859   1.256  10.057  0.5813 -0.2051 -0.5678
  141SAPE   C2815397   6.883   1.131   9.884 -0.0842 -0.1140  0.5212
  141SAPE   H8R15398   6.851   1.029   9.857  1.9715 -0.7098  0.1200
  141SAPE   C2915399   6.933   1.204   9.777 -0.5384 -0.1352  0.1858
  141SAPE   H9R15400   6.906   1.176   9.674 -0.9215  1.2567 -0.1025
  141SAPE  C21015401   7.020   1.325   9.782  0.4141 -0.8560 -0.1257
  141SAPE  H10R15402   7.110   1.313   9.718  1.2203 -0.2786  0.8628
  141SAPE  H10S15403   7.051   1.340   9.888 -1.0102 -0.7871  0.3031
  141SAPE  C21115404   6.965   1.465   9.735 -1.3992  0.0237  0.3647
  141SAPE  H11R15405   6.931   1.533   9.814 -0.8059  0.6756  0.0647
  141SAPE  C21215406   6.948   1.505   9.610  0.4715 -0.7874 -0.3466
  141SAPE  H12R15407   6.933   1.613   9.594 -0.2003 -0.7834  0.2679
  141SAPE  C21315408   6.963   1.426   9.490  0.1551  0.0133 -0.3238
  141SAPE  H13R15409   6.886   1.468   9.422 -0.2854 -1.4666 -0.7754
  141SAPE  H13S15410   6.929   1.321   9.504  2.8009 -0.9350 -0.4643
  141SAPE  C21415411   7.099   1.427   9.429  0.0644  0.3809  0.1517
  141SAPE  H14R15412   7.185   1.407   9.494  0.3572 -1.6679 -0.8047
  141SAPE  C21515413   7.126   1.476   9.309  0.3197  0.5803 -0.1333
  141SAPE  H15R15414   7.232   1.475   9.281  0.3254  1.0249 -0.1371
  141SAPE  C21615415   7.048   1.528   9.200  0.2698  0.4868  0.0846
  141SAPE  H16R15416   7.080   1.630   9.173 -2.7301  1.4181 -0.2478
  141SAPE  H16S15417   6.940   1.539   9.221  0.4076  2.4089 -0.0813
  141SAPE  C21715418   7.065   1.441   9.073  0.7466  0.0379  0.8580
  141SAPE  H17R15419   7.041   1.334   9.090 -3.5359  1.1354  3.1915
  141SAPE  H17S15420   7.169   1.445   9.034  0.2255 -2.3988 -1.0916
  141SAPE  C21815421   6.954   1.490   8.971  0.2092 -0.1240  0.6309
  141SAPE  H18R15422   6.976   1.597   8.951 -3.3263  0.6816  0.4321
  141SAPE  H18S15423   6.852   1.482   9.014  0.1062 -1.6018  0.1865
  141SAPE  C21915424   6.964   1.431   8.828 -0.2756  0.2779  0.0414
  141SAPE  H19R15425   6.926   1.501   8.750  3.0411 -0.5121 -2.5066
  141SAPE  H19S15426   6.905   1.338   8.826 -0.4070  0.3833 -1.1092
  141SAPE  C22015427   7.105   1.393   8.787 -0.3998  0.0008 -0.8143
  141SAPE  H20R15428   7.173   1.479   8.798 -0.7867  0.5171 -2.2489
  141SAPE  H20S15429   7.108   1.355   8.683 -0.0031  1.2980 -1.2937
  141SAPE  H20T15430   7.142   1.319   8.861 -1.2625  0.7110  0.3607
  141SAPE   C3315431   6.537   0.739  10.177  0.4384  0.7891  0.4991
  141SAPE   H3X15432   6.586   0.837  10.160 -1.9363  1.8369 -0.9038
  141SAPE   H3Y15433   6.434   0.749  10.220 -0.0806 -1.3289 -0.1035
  141SAPE   C3415434   6.510   0.682  10.037  0.4033 -0.5906 -0.9876
  141SAPE   H4X15435   6.411   0.719  10.002  0.0846 -1.2124 -0.7551
  141SAPE   H4Y15436   6.485   0.574  10.048 -1.4589  0.0441  3.3130
  141SAPE   C3515437   6.619   0.704   9.929  0.1135  0.0538 -0.0288
  141SAPE   H5X15438   6.707   0.654   9.975 -1.8906 -2.0084  1.8390
  141SAPE   H5Y15439   6.643   0.812   9.926  2.6057 -0.4704 -1.9710
  141SAPE   C3615440   6.579   0.650   9.785  0.3507  0.3858 -0.1121
  141SAPE   H6X15441   6.483   0.701   9.765 -0.5241 -0.5987  1.3641
  141SAPE   H6Y15442   6.549   0.543   9.793 -1.9809  0.9112 -1.1788
  141SAPE   C3715443   6.685   0.671   9.679  0.4563 -0.0258 -0.3242
  141SAPE   H7X15444   6.772   0.608   9.708  0.2811  0.2148  0.7749
  141SAPE   H7Y15445   6.713   0.778   9.691 -0.8064  0.0788  2.9898
  141SAPE   C3815446   6.641   0.632   9.532  0.0751  0.2214 -0.6698
  141SAPE   H8X15447   6.558   0.700   9.504  1.1551  1.3121 -1.3191
  141SAPE   H8Y15448   6.596   0.530   9.520  0.6525 -0.1068 -0.1112
  141SAPE   C3915449   6.764   0.646   9.449  0.1783  0.3107 -0.5520
  141SAPE   H9X15450   6.824   0.556   9.471 -0.3822  0.1129  0.2044
  141SAPE   H9Y15451   6.834   0.729   9.471 -1.2956  1.0669  1.5905
  141SAPE  C31015452   6.732   0.621   9.302  0.0280  0.4047 -0.0968
  141SAPE  H10X15453   6.668   0.704   9.264  0.7952  0.6602 -0.8472
  141SAPE  H10Y15454   6.663   0.535   9.283 -0.8797  1.2570 -0.7514
  141SAPE  C31115455   6.862   0.596   9.216 -0.5884  0.1559  0.1602
  141SAPE  H11X15456   6.913   0.504   9.253  0.0983  0.4236 -0.0847
  141SAPE  H11Y15457   6.918   0.692   9.225 -2.5333  1.1900  2.2868
  141SAPE  C31215458   6.840   0.565   9.062  0.6585 -0.2344 -0.0134
  141SAPE  H12X15459   6.776   0.643   9.016  0.0837 -0.9114 -0.3840
  141SAPE  H12Y15460   6.782   0.471   9.057  1.2817 -0.6672  0.6801
  141SAPE  C31315461   6.972   0.549   8.979 -0.0050 -0.3780  0.6477
  141SAPE  H13X15462   7.030   0.458   9.007  1.2842  0.0921 -0.3932
  141SAPE  H13Y15463   7.038   0.633   9.009  1.1779 -0.9706 -0.2186
  141SAPE  C31415464   6.952   0.555   8.820  0.5338  0.3950 -0.4503
  141SAPE  H14X15465   6.906   0.651   8.790 -1.3159 -0.6989 -1.3217
  141SAPE  H14Y15466   6.888   0.466   8.800 -0.4674  0.8101  0.8265
  141SAPE  C31515467   7.083   0.541   8.741 -0.3046  0.0405 -0.5709
  141SAPE  H15X15468   7.123   0.438   8.759  2.1408  0.8674 -0.8847
  141SAPE  H15Y15469   7.164   0.610   8.772 -2.0477  1.4780  0.9591
  141SAPE  C31615470   7.064   0.551   8.594  0.4160 -0.8469 -0.4705
  141SAPE  H16X15471   7.162   0.540   8.543  0.0851 -1.4660 -0.9900
  141SAPE  H16Y15472   7.018   0.649   8.569  0.8193 -0.6204 -0.3436
  141SAPE  C31715473   6.971   0.446   8.532  0.0758 -0.1253  0.1785
  141SAPE  H17X15474   6.885   0.450   8.603  0.9480 -1.5088  1.3818
  141SAPE  H17Y15475   7.013   0.344   8.548  0.3477  0.0176  0.4025
  141SAPE  C31815476   6.929   0.466   8.392 -0.6438  0.5923  0.3089
  141SAPE  H18X15477   6.818   0.456   8.385 -0.6922  1.3515 -0.2485
  141SAPE  H18Y15478   6.964   0.378   8.334  0.6191  1.0974  0.2763
  141SAPE  H18Z15479   6.964   0.562   8.348  0.7056  0.2698  0.6453
  142SAPE     N15480   1.153   6.125  10.948  0.7574  0.5648 -0.7099
  142SAPE   HN115481   1.212   6.152  10.867  1.6240  1.7779  0.2733
  142SAPE   HN215482   1.056   6.124  10.912 -0.1093 -0.0292  1.4772
  142SAPE   HN315483   1.161   6.199  11.021  1.0771  0.9623 -1.1410
  142SAPE   C1215484   1.182   5.995  11.010 -0.0421 -0.4202 -0.8824
  142SAPE  H12A15485   1.291   6.001  11.030 -0.2714  0.6983  0.2208
  142SAPE  H12B15486   1.157   5.920  10.933 -2.2541  0.6259 -1.2670
  142SAPE   C1115487   1.085   5.965  11.128 -0.3003 -0.4240  0.3613
  142SAPE  H11A15488   1.114   6.027  11.215  1.6515 -0.4312 -0.2316
  142SAPE  H11B15489   1.103   5.862  11.164  0.2779  0.3871  2.5066
  142SAPE     P15490   0.834   5.955  11.195 -0.1978 -0.5612  0.2016
  142SAPE   O1315491   0.887   5.892  11.316  0.2036  0.2556  0.1372
  142SAPE   O1415492   0.741   6.070  11.215  0.1147  0.4290  0.1150
  142SAPE   O1215493   0.948   5.993  11.096 -0.2769 -0.1939  0.1662
  142SAPE   O1115494   0.762   5.842  11.119  0.5145  0.3591 -0.1621
  142SAPE    C115495   0.828   5.742  11.041  0.5283 -0.1299 -0.6273
  142SAPE    HA15496   0.927   5.720  11.087 -0.7941  0.0961  2.5531
  142SAPE    HB15497   0.765   5.651  11.038 -2.6297  1.8474  1.0428
  142SAPE    C215498   0.839   5.785  10.889 -0.0972  0.6088  0.3443
  142SAPE    HS15499   0.871   5.892  10.882 -0.3490  0.7457  1.1384
  142SAPE   O2115500   0.714   5.763  10.831 -0.0322 -0.2902  0.1790
  142SAPE   C2115501   0.664   5.865  10.763  0.0890 -0.1559 -0.5261
  142SAPE   O2215502   0.724   5.969  10.733  1.0236  0.1426 -0.3224
  142SAPE   C2215503   0.516   5.830  10.735 -0.3621  0.1660  0.1816
  142SAPE   H2R15504   0.497   5.721  10.725  1.4250 -0.0909 -0.7014
  142SAPE   H2S15505   0.452   5.859  10.821 -0.6674 -1.0933  0.3969
  142SAPE    C315506   0.937   5.698  10.805 -0.1946 -0.1676  0.7013
  142SAPE    HX15507   0.889   5.600  10.822  2.3661 -1.6043  0.1749
  142SAPE    HY15508   1.041   5.698  10.844 -0.0888  2.7197  0.6224
  142SAPE   O3115509   0.922   5.736  10.667 -0.4671  0.3067 -0.2705
  142SAPE   C3115510   0.990   5.837  10.635 -1.0689  0.0322  0.0975
  142SAPE   O3215511   1.073   5.893  10.707 -0.3531 -0.8677  0.8553
  142SAPE   C3215512   0.961   5.872  10.488 -0.3772  0.2802 -0.4642
  142SAPE   H2X15513   0.855   5.898  10.465 -0.8743 -0.8716  0.4519
  142SAPE   H2Y15514   0.969   5.779  10.428 -2.1251 -1.2804  1.5595
  142SAPE   C2315515   0.449   5.900  10.613 -0.3736 -0.2470 -0.4507
  142SAPE   H3R15516   0.458   6.009  10.634 -1.0315 -0.0458 -1.1689
  142SAPE   H3S15517   0.342   5.873  10.620 -0.1296 -0.8838  1.4321
  142SAPE   C2415518   0.508   5.868  10.474  0.0592  0.2736  0.7307
  142SAPE   H4R15519   0.617   5.881  10.487  0.2075 -0.6270  0.3841
  142SAPE   H4S15520   0.460   5.945  10.409 -1.7249 -1.4566 -0.0885
  142SAPE   C2515521   0.474   5.725  10.428 -0.1700  0.0994 -0.0566
  142SAPE   H5R15522   0.426   5.658  10.501  0.9558  0.1659  0.7708
  142SAPE   C2615523   0.508   5.674  10.306  0.2492 -0.5888 -0.6668
  142SAPE   H6R15524   0.494   5.567  10.285 -1.4037 -0.5273 -0.0206
  142SAPE   C2715525   0.575   5.749  10.197  0.5467 -1.1078 -0.6186
  142SAPE   H7R15526   0.594   5.853  10.233  1.5096 -1.6091  0.4085
  142SAPE   H7S15527   0.510   5.740  10.108  0.5000 -0.9139 -0.6041
  142SAPE   C2815528   0.710   5.694  10.160 -0.8307  0.9754 -0.3368
  142SAPE   H8R15529   0.742   5.610  10.224  0.2679  2.6484  1.4279
  142SAPE   C2915530   0.783   5.742  10.061  0.1456 -0.3990  0.0031
  142SAPE   H9R15531   0.880   5.699  10.032  0.8673  0.7741  0.6354
  142SAPE  C21015532   0.740   5.856   9.969  0.4595 -0.4050  0.1227
  142SAPE  H10R15533   0.660   5.917  10.014  1.5300  0.9164  0.3106
  142SAPE  H10S15534   0.707   5.802   9.878  2.8553 -2.0279  0.1179
  142SAPE  C21115535   0.858   5.941   9.922  0.1492  0.2567  0.1382
  142SAPE  H11R15536   0.899   6.012   9.995 -1.1922 -0.3929  1.5754
  142SAPE  C21215537   0.930   5.916   9.809 -0.0388 -0.0037 -0.6007
  142SAPE  H12R15538   1.013   5.985   9.789 -1.8160  1.9495 -1.6782
  142SAPE  C21315539   0.905   5.804   9.706 -0.0901  0.5911 -0.0481
  142SAPE  H13R15540   0.818   5.825   9.641 -0.1443  0.8843  0.1189
  142SAPE  H13S15541   0.874   5.716   9.766 -2.5185  1.6194  0.2843
  142SAPE  C21415542   1.024   5.747   9.628 -0.7118  0.6532 -0.3651
  142SAPE  H14R15543   1.075   5.661   9.673 -1.3432  0.7416  0.5494
  142SAPE  C21515544   1.069   5.798   9.514  0.2457  0.6378  0.2517
  142SAPE  H15R15545   1.154   5.746   9.466 -1.2136 -0.4968 -1.2355
  142SAPE  C21615546   1.014   5.921   9.441 -0.6709  0.1037 -0.2880
  142SAPE  H16R15547   1.101   5.982   9.410 -0.6204 -0.3207 -0.9910
  142SAPE  H16S15548   0.951   5.978   9.513  0.9082 -2.7424  3.6854
  142SAPE  C21715549   0.937   5.874   9.317 -0.1252 -0.6313 -0.1014
  142SAPE  H17R15550   0.928   5.968   9.258  1.7093 -0.2716  0.1114
  142SAPE  H17S15551   0.840   5.830   9.345  0.0189 -0.6676  0.3433
  142SAPE  C21815552   1.007   5.772   9.227  0.0129 -0.4128  0.2119
  142SAPE  H18R15553   1.048   5.691   9.291  1.3039 -1.1605 -1.4798
  142SAPE  H18S15554   1.084   5.825   9.167 -2.2059  2.2252 -0.5124
  142SAPE  C21915555   0.911   5.704   9.125 -0.1499  0.7694  0.0745
  142SAPE  H19R15556   0.851   5.782   9.073  0.7887  0.8327 -0.9556
  142SAPE  H19S15557   0.847   5.634   9.182 -0.4478  0.6480 -0.4017
  142SAPE  C22015558   0.984   5.612   9.030 -0.1824  0.5338  0.1616
  142SAPE  H20R15559   0.913   5.542   8.980 -0.7705  0.5307  0.9620
  142SAPE  H20S15560   1.057   5.553   9.090 -1.7962 -2.4751 -0.6157
  142SAPE  H20T15561   1.048   5.674   8.965  1.9390 -1.3022  0.3688
  142SAPE   C3315562   1.051   5.986  10.431  0.3505  0.1630  0.8657
  142SAPE   H3X15563   1.149   5.989  10.483  0.7112 -0.1622  0.2162
  142SAPE   H3Y15564   0.997   6.081  10.453  3.2063  1.8122  1.2472
  142SAPE   C3415565   1.074   5.989  10.276  0.1853 -0.0737 -0.8338
  142SAPE   H4X15566   1.124   6.087  10.255 -0.0970  0.0190 -1.0820
  142SAPE   H4Y15567   0.976   5.981  10.225 -0.8133  0.2729  0.9417
  142SAPE   C3515568   1.172   5.883  10.226 -0.3153  1.0897  0.2402
  142SAPE   H5X15569   1.129   5.782  10.243  0.0799  1.0583  1.1208
  142SAPE   H5Y15570   1.271   5.875  10.276 -0.5609  0.2156  0.5987
  142SAPE   C3615571   1.210   5.904  10.080 -0.3832 -0.6327 -0.0907
  142SAPE   H6X15572   1.229   6.014  10.072  1.5949 -1.0154 -1.3347
  142SAPE   H6Y15573   1.123   5.886  10.014 -0.1276 -0.3224 -0.5180
  142SAPE   C3715574   1.323   5.822  10.028  0.3887 -0.4200  0.4453
  142SAPE   H7X15575   1.318   5.711  10.024  2.6112 -0.5396 -1.5333
  142SAPE   H7Y15576   1.409   5.825  10.098  2.2455 -0.6027 -1.7098
  142SAPE   C3815577   1.351   5.880   9.884  0.0601  0.3908 -0.0712
  142SAPE   H8X15578   1.376   5.988   9.893  0.7603  0.2554 -0.2595
  142SAPE   H8Y15579   1.263   5.863   9.819 -1.5876 -0.5920  2.2800
  142SAPE   C3915580   1.482   5.813   9.832 -0.5425 -0.0978  0.4031
  142SAPE   H9X15581   1.481   5.702   9.832  0.9930 -0.1307  0.9794
  142SAPE   H9Y15582   1.559   5.832   9.910 -0.7740  1.4175  0.2998
  142SAPE  C31015583   1.533   5.867   9.693 -0.3473  0.1410  0.9301
  142SAPE  H10X15584   1.634   5.823   9.678 -0.2231  1.0623 -1.2408
  142SAPE  H10Y15585   1.534   5.976   9.713 -2.3497  0.4480 -0.3645
  142SAPE  C31115586   1.441   5.830   9.573  0.1264 -0.1011 -0.3537
  142SAPE  H11X15587   1.351   5.895   9.577 -1.3669 -2.0806  2.1155
  142SAPE  H11Y15588   1.407   5.725   9.590  1.5716 -0.2450  2.1025
  142SAPE  C31215589   1.502   5.856   9.438 -0.1729  0.3104  0.9452
  142SAPE  H12X15590   1.595   5.796   9.434 -0.0833  0.4692 -2.7346
  142SAPE  H12Y15591   1.533   5.963   9.439 -2.5845  1.2547 -2.6946
  142SAPE  C31315592   1.410   5.828   9.318  0.1047  0.3449 -0.5145
  142SAPE  H13X15593   1.322   5.895   9.314 -2.5235 -2.8562 -0.1152
  142SAPE  H13Y15594   1.356   5.733   9.333 -0.6398  0.8425  0.0352
  142SAPE  C31415595   1.482   5.844   9.184 -0.5024  0.9094  0.2519
  142SAPE  H14X15596   1.571   5.779   9.197 -1.0592  0.3820  1.6835
  142SAPE  H14Y15597   1.502   5.954   9.178 -0.4109  0.9733  1.4795
  142SAPE  C31515598   1.398   5.801   9.066 -0.3471  0.0682 -0.6160
  142SAPE  H15X15599   1.318   5.877   9.054  0.9427  1.3804 -1.2996
  142SAPE  H15Y15600   1.360   5.698   9.085  1.9144 -0.6345  0.4579
  142SAPE  C31615601   1.468   5.794   8.924 -0.4878 -0.3987  0.5868
  142SAPE  H16X15602   1.544   5.714   8.925  0.7860  0.7786  1.2393
  142SAPE  H16Y15603   1.513   5.894   8.904 -0.0004 -0.9869 -1.4644
  142SAPE  C31715604   1.373   5.757   8.810  0.0028 -0.3109  0.0203
  142SAPE  H17X15605   1.292   5.833   8.822  0.2832 -0.0174  0.0714
  142SAPE  H17Y15606   1.332   5.655   8.822 -3.5205  0.6661 -2.1536
  142SAPE  C31815607   1.439   5.778   8.671  0.8078 -0.8313  0.5751
  142SAPE  H18X15608   1.539   5.729   8.666  0.4329 -1.8738  2.4978
  142SAPE  H18Y15609   1.439   5.886   8.646 -1.2148 -1.0119 -0.3809
  142SAPE  H18Z15610   1.361   5.733   8.606 -0.7432  2.2101  0.1879
  143SAPE     N15611   3.426   5.267  11.366 -0.2487  0.3576 -0.2458
  143SAPE   HN115612   3.348   5.335  11.353 -0.1028  0.0826 -3.4196
  143SAPE   HN215613   3.424   5.242  11.466 -1.1590  2.1274  0.2211
  143SAPE   HN315614   3.520   5.307  11.348 -1.3284  1.8438 -3.3769
  143SAPE   C1215615   3.407   5.150  11.275  0.5914  0.5408  0.2874
  143SAPE  H12A15616   3.301   5.118  11.280  0.5933  0.4536 -0.2442
  143SAPE  H12B15617   3.468   5.060  11.299  0.0871 -0.0677 -0.6815
  143SAPE   C1115618   3.425   5.223  11.139  0.3345 -0.0549  1.0448
  143SAPE  H11A15619   3.342   5.293  11.115  0.2838 -0.5280 -0.1829
  143SAPE  H11B15620   3.403   5.152  11.057 -1.4664  1.2798  0.3002
  143SAPE     P15621   3.581   5.428  11.082 -0.2977  0.2021  0.2619
  143SAPE   O1315622   3.482   5.520  11.137  0.3400  1.0545  0.4005
  143SAPE   O1415623   3.722   5.453  11.103 -0.1317 -0.5811 -0.4503
  143SAPE   O1215624   3.555   5.279  11.130 -0.0431 -0.1242  0.1765
  143SAPE   O1115625   3.556   5.419  10.928 -0.6479 -0.3416 -0.0902
  143SAPE    C115626   3.616   5.323  10.842  0.3895  0.0235 -0.4719
  143SAPE    HA15627   3.657   5.239  10.902  0.6327 -0.6768 -1.5778
  143SAPE    HB15628   3.542   5.291  10.765 -1.1255  0.4366  0.7611
  143SAPE    C215629   3.734   5.381  10.762  0.0653  0.2476  0.3102
  143SAPE    HS15630   3.811   5.421  10.830  0.4261  1.9553 -1.0279
  143SAPE   O2115631   3.682   5.471  10.669  0.4640 -0.3598  0.3075
  143SAPE   C2115632   3.765   5.567  10.638  0.0743  0.1711  0.5598
  143SAPE   O2215633   3.876   5.593  10.688 -0.5775 -0.0709 -0.6780
  143SAPE   C2215634   3.706   5.643  10.515  0.2773  0.6031  0.1608
  143SAPE   H2R15635   3.713   5.564  10.437 -1.2051  1.4904 -0.9073
  143SAPE   H2S15636   3.597   5.662  10.517  0.3777  1.1892  0.7032
  143SAPE    C315637   3.793   5.262  10.688  0.7210 -0.3901  0.3099
  143SAPE    HX15638   3.713   5.197  10.648  0.1327 -0.3473  1.3695
  143SAPE    HY15639   3.834   5.202  10.773 -2.9510 -0.5818  2.1294
  143SAPE   O3115640   3.891   5.292  10.583  0.4543 -0.2646 -0.2489
  143SAPE   C3115641   3.936   5.180  10.525  0.5036  0.5286 -0.3000
  143SAPE   O3215642   3.926   5.070  10.575  0.6065  0.5314  0.7334
  143SAPE   C3215643   4.008   5.226  10.391  0.3859  0.1519 -0.3100
  143SAPE   H2X15644   3.982   5.143  10.322  1.5138 -1.9157  1.6263
  143SAPE   H2Y15645   4.114   5.243  10.419  1.0656 -2.1693 -1.2020
  143SAPE   C2315646   3.787   5.772  10.480 -0.0552 -0.2750  0.3600
  143SAPE   H3R15647   3.895   5.744  10.477  0.0669 -0.4500  3.2255
  143SAPE   H3S15648   3.779   5.845  10.564  0.7258 -0.1833  0.3614
  143SAPE   C2415649   3.758   5.837  10.348 -0.1387  0.3987  0.4397
  143SAPE   H4R15650   3.647   5.834  10.352 -0.0992 -2.0616  1.0045
  143SAPE   H4S15651   3.788   5.761  10.273 -0.1514  0.2436  0.5908
  143SAPE   C2515652   3.806   5.973  10.312 -0.0312 -0.2780 -0.7994
  143SAPE   H5R15653   3.814   6.051  10.389 -1.6665  0.9041 -1.7412
  143SAPE   C2615654   3.827   6.015  10.189  0.2513 -0.3737 -0.5668
  143SAPE   H6R15655   3.869   6.117  10.183 -1.7193  0.5769  0.7309
  143SAPE   C2715656   3.799   5.935  10.067  0.3205 -0.4632 -0.1893
  143SAPE   H7R15657   3.723   5.858  10.091  0.3431 -0.3501  0.2496
  143SAPE   H7S15658   3.890   5.872  10.055 -0.3536 -2.2105  2.9159
  143SAPE   C2815659   3.770   6.029   9.957 -0.0036 -0.0280 -0.5238
  143SAPE   H8R15660   3.695   6.107   9.977  0.4650  0.1556  0.5811
  143SAPE   C2915661   3.815   6.030   9.830 -1.0044 -0.0113 -0.0160
  143SAPE   H9R15662   3.800   6.115   9.763  0.8951 -0.4367 -1.0523
  143SAPE  C21015663   3.905   5.923   9.774  0.2167  0.0681 -0.1785
  143SAPE  H10R15664   3.852   5.875   9.689  0.2746  1.1476 -0.8461
  143SAPE  H10S15665   3.932   5.841   9.844  0.2549  1.0882  1.0546
  143SAPE  C21115666   4.032   5.990   9.732  0.3633  0.1602 -0.0727
  143SAPE  H11R15667   4.085   6.055   9.804 -0.8251 -0.4739  1.4327
  143SAPE  C21215668   4.085   5.984   9.612 -0.2482 -0.0690 -0.2122
  143SAPE  H12R15669   4.179   6.039   9.594 -0.6739  0.4449 -0.9161
  143SAPE  C21315670   4.028   5.918   9.487  0.7355  0.4589  0.1993
  143SAPE  H13R15671   4.049   5.988   9.404  1.3255  0.2711  0.1865
  143SAPE  H13S15672   3.922   5.884   9.495  1.2218 -0.7273  2.8830
  143SAPE  C21415673   4.102   5.787   9.464 -0.0605 -0.0497 -0.0869
  143SAPE  H14R15674   4.099   5.720   9.551 -3.7865  0.2482  0.1701
  143SAPE  C21515675   4.164   5.754   9.347 -0.0267 -0.1225 -0.4303
  143SAPE  H15R15676   4.216   5.657   9.356  0.9734  0.3880 -0.5812
  143SAPE  C21615677   4.166   5.834   9.216 -0.4700  0.3825  0.1500
  143SAPE  H16R15678   4.270   5.872   9.205  0.1064 -0.6650  1.7022
  143SAPE  H16S15679   4.097   5.920   9.219 -2.2675 -0.9298 -1.4209
  143SAPE  C21715680   4.126   5.760   9.089  0.0701  0.8585  0.1029
  143SAPE  H17R15681   4.023   5.730   9.115 -0.5451  2.1914 -0.6750
  143SAPE  H17S15682   4.194   5.674   9.072 -2.2792 -1.0703  0.0402
  143SAPE  C21815683   4.134   5.850   8.967  0.1897 -0.1108 -0.0065
  143SAPE  H18R15684   4.239   5.882   8.953  1.7106 -4.5172 -0.2278
  143SAPE  H18S15685   4.061   5.934   8.974  0.9619  0.5262  0.5934
  143SAPE  C21915686   4.089   5.774   8.841  0.1668  0.9698  1.0583
  143SAPE  H19R15687   4.029   5.849   8.785 -0.2763 -0.0005  0.2078
  143SAPE  H19S15688   4.022   5.688   8.863  0.4445  0.4541 -0.0512
  143SAPE  C22015689   4.208   5.725   8.751 -0.5151 -0.0512 -0.3101
  143SAPE  H20R15690   4.188   5.733   8.642  0.2540  0.4087 -0.4198
  143SAPE  H20S15691   4.236   5.620   8.775  0.2112 -0.5299 -2.8970
  143SAPE  H20T15692   4.294   5.793   8.767 -0.5528 -0.0909  0.0589
  143SAPE   C3315693   3.939   5.355  10.329  0.1962 -0.1664 -0.1356
  143SAPE   H3X15694   3.962   5.442  10.394  0.4463  1.0393 -1.8015
  143SAPE   H3Y15695   3.829   5.339  10.330  0.3912 -1.7676 -1.2591
  143SAPE   C3415696   3.992   5.402  10.195  0.1923  0.9272  0.3756
  143SAPE   H4X15697   3.971   5.315  10.128  0.6172 -0.7720  2.3420
  143SAPE   H4Y15698   4.101   5.420  10.196  0.0007  3.2554 -3.2488
  143SAPE   C3515699   3.918   5.528  10.152  0.7150 -0.4640 -0.0637
  143SAPE   H5X15700   3.936   5.603  10.231 -0.3830 -0.4028  0.1448
  143SAPE   H5Y15701   3.808   5.514  10.143  0.8772 -1.5063 -0.5473
  143SAPE   C3615702   3.966   5.588  10.019 -0.1038 -0.3927  0.0012
  143SAPE   H6X15703   4.074   5.611  10.032 -0.4295  1.1629  0.2231
  143SAPE   H6Y15704   3.906   5.676   9.987 -1.0801 -1.7806 -2.2751
  143SAPE   C3715705   3.953   5.487   9.900  0.4305 -0.0394  0.4974
  143SAPE   H7X15706   3.849   5.452   9.913 -0.9273  3.6383  0.6958
  143SAPE   H7Y15707   4.017   5.396   9.905  1.5014  0.7604  2.5456
  143SAPE   C3815708   3.976   5.552   9.765 -0.5185  0.4959  1.0161
  143SAPE   H8X15709   4.083   5.578   9.751 -0.3856 -1.0820 -1.5165
  143SAPE   H8Y15710   3.930   5.653   9.763 -0.3978  0.5365 -0.1851
  143SAPE   C3915711   3.927   5.486   9.631 -0.0807 -0.6821  0.0482
  143SAPE   H9X15712   3.904   5.557   9.549  1.4114 -1.1296 -0.8060
  143SAPE   H9Y15713   3.839   5.422   9.654 -1.0017  0.2015 -0.8965
  143SAPE  C31015714   4.027   5.405   9.565 -0.5156 -0.9174  0.1131
  143SAPE  H10X15715   4.060   5.326   9.635  0.4425 -0.9202 -0.3257
  143SAPE  H10Y15716   4.113   5.473   9.545 -1.8122  0.2624 -1.8389
  143SAPE  C31115717   3.989   5.345   9.434  0.5767 -0.9267 -0.3654
  143SAPE  H11X15718   3.951   5.421   9.362  1.0636 -1.7505 -1.5149
  143SAPE  H11Y15719   3.910   5.269   9.446  0.1546 -0.5630 -0.7992
  143SAPE  C31215720   4.101   5.275   9.366  0.0455 -0.1047 -0.1318
  143SAPE  H12X15721   4.063   5.184   9.314  2.5741 -2.7900  2.3445
  143SAPE  H12Y15722   4.176   5.234   9.437  1.9511  2.0229 -0.8135
  143SAPE  C31315723   4.159   5.365   9.264  0.1803 -0.1374 -0.1201
  143SAPE  H13X15724   4.211   5.442   9.324  3.4002 -2.2572  0.0820
  143SAPE  H13Y15725   4.083   5.413   9.199  0.7372 -0.6905 -1.2015
  143SAPE  C31415726   4.256   5.300   9.166  0.5519 -0.4711  0.6123
  143SAPE  H14X15727   4.323   5.233   9.222 -0.7678 -1.1471  1.4312
  143SAPE  H14Y15728   4.320   5.385   9.133  0.3526 -0.8122 -0.7165
  143SAPE  C31515729   4.200   5.228   9.056 -0.1564  0.1184 -0.2743
  143SAPE  H15X15730   4.128   5.153   9.096  3.7556 -3.3307  1.1166
  143SAPE  H15Y15731   4.279   5.166   9.008  2.1804  1.9197  0.9929
  143SAPE  C31615732   4.144   5.316   8.942 -0.3980  0.4710  0.5368
  143SAPE  H16X15733   4.214   5.399   8.917 -1.1201  0.4658 -1.6607
  143SAPE  H16Y15734   4.050   5.365   8.974 -1.2188  0.2711 -1.4250
  143SAPE  C31715735   4.128   5.233   8.811  0.2087 -0.3059 -0.1738
  143SAPE  H17X15736   4.047   5.161   8.834 -0.9674  0.6919 -1.0526
  143SAPE  H17Y15737   4.226   5.183   8.795 -0.2388 -0.7802 -1.4971
  143SAPE  C31815738   4.092   5.325   8.693 -0.3735  0.0699 -0.0237
  143SAPE  H18X15739   4.058   5.264   8.607  2.3742  0.2571 -1.3302
  143SAPE  H18Y15740   4.175   5.393   8.665  1.0562 -2.3015 -1.8131
  143SAPE  H18Z15741   4.004   5.387   8.723 -1.1826 -0.5200 -1.1330
  144SAPE     N15742   5.963   4.815  10.742  0.0178  0.8151 -0.4230
  144SAPE   HN115743   5.993   4.741  10.676 -0.6374 -0.2905  0.4699
  144SAPE   HN215744   5.881   4.780  10.796 -0.6275 -0.7517 -2.3233
  144SAPE   HN315745   5.923   4.890  10.683 -4.1569 -1.5319 -0.9839
  144SAPE   C1215746   6.082   4.857  10.833 -0.5171 -0.1897  0.0693
  144SAPE  H12A15747   6.179   4.851  10.779  0.3353  2.2067  1.1809
  144SAPE  H12B15748   6.081   4.776  10.908 -0.1702 -0.6376 -0.4042
  144SAPE   C1115749   6.058   4.994  10.904 -0.0426  0.0479  0.0587
  144SAPE  H11A15750   6.050   5.070  10.824 -3.9861 -1.2509 -0.9959
  144SAPE  H11B15751   6.144   5.024  10.968 -0.5761 -1.5453  1.6035
  144SAPE     P15752   5.821   5.095  10.957 -0.5343  0.0743 -0.4098
  144SAPE   O1315753   5.726   5.082  11.064  0.6125 -0.3269 -0.0544
  144SAPE   O1415754   5.883   5.228  10.937  0.2257 -0.1026  0.0082
  144SAPE   O1215755   5.944   4.989  10.988  0.5765 -0.4444 -0.3946
  144SAPE   O1115756   5.778   5.047  10.818 -0.0216 -0.0924 -0.6723
  144SAPE    C115757   5.640   5.032  10.790 -0.1775  0.4520  0.1206
  144SAPE    HA15758   5.583   4.972  10.865 -0.5539 -0.3039 -0.7406
  144SAPE    HB15759   5.593   5.131  10.807 -0.5760  0.2442  0.2515
  144SAPE    C215760   5.617   4.961  10.657  0.1651 -0.6331 -0.2328
  144SAPE    HS15761   5.689   4.877  10.649  1.3285  0.1319  1.4680
  144SAPE   O2115762   5.632   5.061  10.558 -0.5607 -0.3897 -0.2424
  144SAPE   C2115763   5.750   5.066  10.506  0.5092  0.3546  0.2085
  144SAPE   O2215764   5.841   4.991  10.535 -0.1899  0.3879  0.7535
  144SAPE   C2215765   5.762   5.191  10.414 -0.0037  0.2982 -0.2123
  144SAPE   H2R15766   5.678   5.263  10.428  0.4607  0.8891 -0.4216
  144SAPE   H2S15767   5.851   5.255  10.435  0.7985 -0.2363 -1.8056
  144SAPE    C315768   5.477   4.910  10.645  0.4719 -0.2975  0.6516
  144SAPE    HX15769   5.409   4.989  10.684  0.7639  1.3856 -1.9747
  144SAPE    HY15770   5.460   4.815  10.700  0.4050 -1.4148 -1.2187
  144SAPE   O3115771   5.429   4.889  10.508  0.1519  0.0778  0.5028
  144SAPE   C3115772   5.488   4.778  10.455  0.6500  0.0932 -0.2894
  144SAPE   O3215773   5.561   4.708  10.522 -0.5775  0.2914  0.3251
  144SAPE   C3215774   5.446   4.750  10.311  0.4929  0.6812  0.3099
  144SAPE   H2X15775   5.413   4.644  10.301 -0.5448  1.1899 -2.3850
  144SAPE   H2Y15776   5.541   4.762  10.254 -0.7365  1.2402 -1.7037
  144SAPE   C2315777   5.782   5.143  10.265  0.4899  0.0141 -0.4576
  144SAPE   H3R15778   5.863   5.068  10.267  0.8813  0.2363 -3.1893
  144SAPE   H3S15779   5.826   5.225  10.205  3.3139  0.5026  2.0671
  144SAPE   C2415780   5.648   5.098  10.211 -0.2937  0.2180  0.7189
  144SAPE   H4R15781   5.576   5.176  10.178  1.1445  0.6648 -1.5746
  144SAPE   H4S15782   5.591   5.046  10.291 -1.4287 -0.7259 -0.6389
  144SAPE   C2515783   5.666   4.998  10.098 -0.4154 -0.2771 -0.1059
  144SAPE   H5R15784   5.699   4.901  10.139 -0.8441  0.4771  2.1512
  144SAPE   C2615785   5.643   5.012   9.967 -0.5809  0.1324  0.7183
  144SAPE   H6R15786   5.674   4.927   9.904 -0.4605  0.7413 -0.0590
  144SAPE   C2715787   5.609   5.133   9.891 -0.0404 -0.2733  0.1891
  144SAPE   H7R15788   5.597   5.215   9.964  1.4725 -0.8724  1.1757
  144SAPE   H7S15789   5.517   5.117   9.832  1.1017  0.0173 -1.7677
  144SAPE   C2815790   5.728   5.170   9.802 -0.3649  0.1075  0.8603
  144SAPE   H8R15791   5.818   5.200   9.857 -1.2114  3.1427  0.7406
  144SAPE   C2915792   5.722   5.182   9.662 -0.2693  0.0109  0.4270
  144SAPE   H9R15793   5.814   5.206   9.605  0.1901 -3.4205 -0.5059
  144SAPE  C21015794   5.614   5.145   9.571 -0.5167 -0.0681 -0.5760
  144SAPE  H10R15795   5.576   5.231   9.511 -1.4588 -1.1925 -1.6484
  144SAPE  H10S15796   5.518   5.137   9.626 -0.6379  1.3176 -0.5568
  144SAPE  C21115797   5.614   5.023   9.484 -0.1705  0.1095  0.5602
  144SAPE  H11R15798   5.652   4.930   9.529  2.3731  0.1119 -1.3002
  144SAPE  C21215799   5.601   5.019   9.345  0.1559 -0.3113  0.4874
  144SAPE  H12R15800   5.589   4.919   9.300  1.3963  0.5585 -1.9647
  144SAPE  C21315801   5.581   5.126   9.247  0.0385 -0.1681  0.5878
  144SAPE  H13R15802   5.674   5.181   9.219  1.1295 -1.5785  1.2989
  144SAPE  H13S15803   5.521   5.211   9.286 -2.4361 -0.8698 -1.3873
  144SAPE  C21415804   5.515   5.093   9.114 -0.2441  0.0947 -0.1504
  144SAPE  H14R15805   5.407   5.112   9.121  0.0873  2.3752 -0.4916
  144SAPE  C21515806   5.570   5.044   9.002  0.4199 -0.1487 -0.6997
  144SAPE  H15R15807   5.508   5.009   8.919 -1.0179 -2.0532  1.0741
  144SAPE  C21615808   5.716   5.012   8.971  0.0670 -0.3540  0.3221
  144SAPE  H16R15809   5.717   4.902   8.962 -2.2091 -0.3948  0.0696
  144SAPE  H16S15810   5.777   5.020   9.064  0.7083  2.1618 -0.2407
  144SAPE  C21715811   5.784   5.073   8.846  0.1793  0.3470 -0.0400
  144SAPE  H17R15812   5.761   5.182   8.847  1.0230  0.5400  0.6758
  144SAPE  H17S15813   5.739   5.027   8.756  0.5937  0.3109 -0.2348
  144SAPE  C21815814   5.935   5.027   8.859 -0.2802 -0.9959  0.0182
  144SAPE  H18R15815   5.978   5.036   8.961  1.6466  0.4026 -0.8605
  144SAPE  H18S15816   6.007   5.088   8.801  0.0903  0.3493  1.7770
  144SAPE  C21915817   5.949   4.880   8.809  0.2299 -1.0670  0.1730
  144SAPE  H19R15818   5.889   4.802   8.860 -0.7398 -0.9703 -0.7926
  144SAPE  H19S15819   6.054   4.864   8.842  1.3681  1.6430 -1.7383
  144SAPE  C22015820   5.929   4.859   8.661  0.0065  0.1318  0.2637
  144SAPE  H20R15821   6.007   4.909   8.599  2.7278 -1.4973  2.1689
  144SAPE  H20S15822   5.837   4.898   8.613  1.1396  0.9019 -1.3726
  144SAPE  H20T15823   5.931   4.751   8.635  2.2900  0.0041  0.7278
  144SAPE   C3315824   5.355   4.851  10.242  0.1082 -0.1046  0.0640
  144SAPE   H3X15825   5.408   4.949  10.237  2.3043 -1.2885 -1.9434
  144SAPE   H3Y15826   5.252   4.865  10.283  0.5428 -1.1675  1.6147
  144SAPE   C3415827   5.319   4.807  10.097 -0.0061 -0.2402 -0.1620
  144SAPE   H4X15828   5.255   4.718  10.113 -0.7747  0.5610  1.4402
  144SAPE   H4Y15829   5.413   4.782  10.043 -0.7130  0.4695 -1.8249
  144SAPE   C3515830   5.261   4.924  10.010  0.2398 -0.7366 -0.1641
  144SAPE   H5X15831   5.311   5.020  10.036 -0.9820 -0.3421  0.7995
  144SAPE   H5Y15832   5.153   4.936  10.032  0.4354  0.2444  0.3228
  144SAPE   C3615833   5.279   4.901   9.856 -0.1318  0.2361  0.0854
  144SAPE   H6X15834   5.379   4.859   9.831 -0.2263 -0.2995  0.5843
  144SAPE   H6Y15835   5.270   5.000   9.806  0.4573 -0.3330 -1.2090
  144SAPE   C3715836   5.171   4.805   9.790  0.0052 -0.8341  0.3451
  144SAPE   H7X15837   5.071   4.851   9.773  0.4993  0.2166  0.2061
  144SAPE   H7Y15838   5.149   4.731   9.870 -0.7258 -1.3661 -0.3309
  144SAPE   C3815839   5.222   4.749   9.657  0.2184  0.2279  0.7866
  144SAPE   H8X15840   5.155   4.664   9.630 -0.0026 -0.1505  2.4172
  144SAPE   H8Y15841   5.313   4.686   9.660  0.1701 -0.1623 -2.3536
  144SAPE   C3915842   5.250   4.852   9.541  0.0778  0.2547 -1.3917
  144SAPE   H9X15843   5.347   4.903   9.559  0.5917 -1.2448  0.4332
  144SAPE   H9Y15844   5.161   4.918   9.538 -2.4161 -2.8118 -0.5213
  144SAPE  C31015845   5.265   4.782   9.409  0.0780 -0.4427  0.3835
  144SAPE  H10X15846   5.187   4.704   9.394  0.4178 -0.8592  0.7540
  144SAPE  H10Y15847   5.360   4.729   9.391  0.1812  0.0344 -0.5665
  144SAPE  C31115848   5.246   4.880   9.296 -0.4381 -0.2021 -0.2669
  144SAPE  H11X15849   5.309   4.970   9.312  0.7493 -1.2837  1.5380
  144SAPE  H11Y15850   5.145   4.926   9.304 -1.0443 -1.6369  0.9530
  144SAPE  C31215851   5.272   4.821   9.156  0.4276 -0.3965 -0.1804
  144SAPE  H12X15852   5.253   4.712   9.164 -0.4036 -0.1921  0.8374
  144SAPE  H12Y15853   5.374   4.837   9.115  0.3260 -0.8468 -0.6150
  144SAPE  C31315854   5.180   4.900   9.061  0.0060  0.5790 -0.2731
  144SAPE  H13X15855   5.216   5.005   9.060 -0.7883  0.9003  1.5988
  144SAPE  H13Y15856   5.076   4.892   9.099 -0.0341  1.6936 -0.0982
  144SAPE  C31415857   5.169   4.838   8.922  0.3110 -0.4673  1.1866
  144SAPE  H14X15858   5.146   4.730   8.935  1.2099 -0.5297  2.5118
  144SAPE  H14Y15859   5.271   4.835   8.877 -0.4164 -1.6778 -0.4588
  144SAPE  C31515860   5.069   4.905   8.831 -0.1055  0.4654 -0.5324
  144SAPE  H15X15861   4.965   4.893   8.869 -0.1557  3.2634  0.3972
  144SAPE  H15Y15862   5.078   4.851   8.734  3.7366 -1.9800  0.9436
  144SAPE  C31615863   5.099   5.053   8.823 -0.3927 -0.0518 -1.1363
  144SAPE  H16X15864   5.208   5.071   8.834 -0.6557  0.0078  2.9561
  144SAPE  H16Y15865   5.075   5.112   8.914  2.4473  1.3056 -1.1410
  144SAPE  C31715866   5.046   5.123   8.694 -0.0105  0.8477 -0.2477
  144SAPE  H17X15867   5.079   5.067   8.603 -0.0423  1.8349 -0.8844
  144SAPE  H17Y15868   5.102   5.217   8.676 -0.1101  0.8618 -0.4880
  144SAPE  C31815869   4.898   5.125   8.692 -0.3556  0.0573 -0.5982
  144SAPE  H18X15870   4.848   5.185   8.613  2.7124  3.4193 -0.2572
  144SAPE  H18Y15871   4.856   5.159   8.789  0.4087 -2.4185  0.6939
  144SAPE  H18Z15872   4.870   5.018   8.688 -1.9716  0.4867 -1.8439
  145SAPE     N15873   3.372   5.758  11.065 -0.0744  0.0576  0.1106
  145SAPE   HN115874   3.439   5.807  11.002  1.1292 -2.5052 -0.7020
  145SAPE   HN215875   3.411   5.664  11.082 -1.9619 -0.3409  2.9330
  145SAPE   HN315876   3.282   5.742  11.016  0.3430  2.5005 -1.6817
  145SAPE   C1215877   3.344   5.844  11.191  0.1318 -0.2039  0.0246
  145SAPE  H12A15878   3.333   5.947  11.153 -0.1129 -1.0384 -2.3573
  145SAPE  H12B15879   3.441   5.835  11.245 -0.1838  1.7081  0.9833
  145SAPE   C1115880   3.235   5.781  11.292 -0.6124 -0.5987  0.4836
  145SAPE  H11A15881   3.136   5.810  11.252  0.0190  0.4738 -0.3221
  145SAPE  H11B15882   3.247   5.833  11.390  0.2134  0.8576 -0.3649
  145SAPE     P15883   3.143   5.541  11.345  0.0260  0.4512 -0.2932
  145SAPE   O1315884   3.208   5.409  11.366  0.9707  0.0158 -0.1565
  145SAPE   O1415885   3.079   5.600  11.467  0.0755  0.5082 -0.3608
  145SAPE   O1215886   3.254   5.639  11.299 -0.1110 -0.3151  0.4769
  145SAPE   O1115887   3.048   5.542  11.212  0.5600 -0.4129  0.4801
  145SAPE    C115888   3.101   5.493  11.090  0.6023  0.7922 -0.2178
  145SAPE    HA15889   3.193   5.547  11.060 -0.2478  2.7429  0.5270
  145SAPE    HB15890   3.124   5.384  11.095 -0.3676  0.4549 -1.9308
  145SAPE    C215891   3.006   5.503  10.966 -0.0717  0.4123  0.0368
  145SAPE    HS15892   3.070   5.517  10.876 -2.3152  1.1644 -1.5367
  145SAPE   O2115893   2.916   5.618  10.976 -0.7443  0.0779 -0.2793
  145SAPE   C2115894   2.976   5.730  10.998  0.0692 -0.0723 -0.3449
  145SAPE   O2215895   3.094   5.754  10.983 -0.2741 -0.3424 -0.6558
  145SAPE   C2215896   2.880   5.828  11.071 -0.4250  0.1576  0.0573
  145SAPE   H2R15897   2.781   5.779  11.083 -0.3537  0.2914  1.3590
  145SAPE   H2S15898   2.909   5.836  11.178 -1.2731  1.4271  0.2034
  145SAPE    C315899   2.912   5.381  10.944  0.2401 -0.7338  0.3030
  145SAPE    HX15900   2.832   5.375  11.020 -2.5195  1.8147 -2.1606
  145SAPE    HY15901   2.969   5.286  10.948 -0.7657 -1.3027  2.4945
  145SAPE   O3115902   2.851   5.388  10.813  0.5498 -0.5876 -0.0929
  145SAPE   C3115903   2.923   5.349  10.708 -0.4069  0.4318  0.2020
  145SAPE   O3215904   3.043   5.325  10.706 -0.0340  0.0775 -0.5342
  145SAPE   C3215905   2.820   5.320  10.593  0.7969 -0.4283 -0.3756
  145SAPE   H2X15906   2.744   5.400  10.577  1.3051 -0.1419 -1.4648
  145SAPE   H2Y15907   2.770   5.227  10.626  1.4403 -0.4350  0.6479
  145SAPE   C2315908   2.891   5.967  11.008  0.4128  0.1646  0.9812
  145SAPE   H3R15909   2.992   5.995  10.971  0.5110 -1.4449 -0.0517
  145SAPE   H3S15910   2.874   6.046  11.085  2.5542  1.0286  0.6456
  145SAPE   C2415911   2.798   5.975  10.882 -0.1068  0.1187 -0.4013
  145SAPE   H4R15912   2.794   5.878  10.827  1.9982 -0.5624  0.5577
  145SAPE   H4S15913   2.822   6.056  10.810 -0.8764  2.6445  2.0214
  145SAPE   C2515914   2.663   6.003  10.944  0.5233  0.0475 -0.0500
  145SAPE   H5R15915   2.676   6.077  11.025  1.6908  0.1219 -0.2907
  145SAPE   C2615916   2.541   5.949  10.919  0.0637  0.6432 -0.2039
  145SAPE   H6R15917   2.452   5.985  10.973  0.3435  0.1918  0.5693
  145SAPE   C2715918   2.511   5.830  10.822  0.8973 -1.1939  0.4237
  145SAPE   H7R15919   2.503   5.742  10.890  1.1752 -0.4210  1.4729
  145SAPE   H7S15920   2.587   5.825  10.740 -0.6841  2.7637 -1.5251
  145SAPE   C2815921   2.377   5.853  10.750 -0.6584 -0.3715  0.4520
  145SAPE   H8R15922   2.286   5.852  10.812 -0.7564 -0.8522  0.3050
  145SAPE   C2915923   2.361   5.871  10.616  0.0865 -0.0490  0.5759
  145SAPE   H9R15924   2.263   5.892  10.572  0.4447 -1.2839 -0.9063
  145SAPE  C21015925   2.471   5.869  10.511 -0.1789  0.0441  0.0214
  145SAPE  H10R15926   2.423   5.868  10.411  2.5389  2.2451 -1.4660
  145SAPE  H10S15927   2.526   5.773  10.506  1.1788  0.7581  0.7620
  145SAPE  C21115928   2.575   5.978  10.520  0.4294  0.5609  0.5711
  145SAPE  H11R15929   2.600   6.011  10.622  0.0349 -1.4836  1.3681
  145SAPE  C21215930   2.632   6.039  10.414 -0.1727  0.5466 -0.3548
  145SAPE  H12R15931   2.690   6.132  10.424  1.7143 -0.6372  0.2243
  145SAPE  C21315932   2.615   5.997  10.269  0.3901 -0.3047  0.1595
  145SAPE  H13R15933   2.585   5.891  10.260 -2.8330  0.5498 -0.5420
  145SAPE  H13S15934   2.703   6.008  10.202 -1.9194 -1.0406 -3.2179
  145SAPE  C21415935   2.501   6.086  10.216  0.5029  1.0179 -0.5089
  145SAPE  H14R15936   2.406   6.082  10.272 -1.0033  1.9413 -2.8617
  145SAPE  C21515937   2.507   6.164  10.106  0.2579 -0.1616  0.2982
  145SAPE  H15R15938   2.425   6.233  10.082  2.1511  1.7491 -1.0790
  145SAPE  C21615939   2.629   6.163  10.021  0.3595 -0.6495 -0.0048
  145SAPE  H16R15940   2.653   6.057   9.999 -0.1835 -0.6429 -0.6875
  145SAPE  H16S15941   2.710   6.211  10.080  0.8534 -1.8621  0.3332
  145SAPE  C21715942   2.605   6.224   9.879 -1.1009 -0.6570  0.0052
  145SAPE  H17R15943   2.691   6.204   9.812 -0.5864  0.9669  0.1341
  145SAPE  H17S15944   2.594   6.333   9.898 -1.5901 -0.5888 -0.6461
  145SAPE  C21815945   2.473   6.166   9.812 -0.5137 -0.0912 -0.5695
  145SAPE  H18R15946   2.391   6.219   9.865 -1.3586 -1.5630 -0.3381
  145SAPE  H18S15947   2.473   6.056   9.825 -1.9439 -0.2484 -1.6303
  145SAPE  C21915948   2.453   6.205   9.662  0.8086  0.0846 -0.2354
  145SAPE  H19R15949   2.554   6.212   9.616  0.2989  0.7478 -1.3146
  145SAPE  H19S15950   2.419   6.310   9.646 -2.4936 -1.1904 -2.6481
  145SAPE  C22015951   2.361   6.111   9.586 -0.0503  0.1714 -0.1075
  145SAPE  H20R15952   2.305   6.161   9.504 -0.7221 -0.0368  0.2202
  145SAPE  H20S15953   2.282   6.082   9.659 -0.4560  2.6477  0.5369
  145SAPE  H20T15954   2.422   6.025   9.553 -1.4871  0.2087 -3.1858
  145SAPE   C3315955   2.896   5.282  10.468 -0.2502 -0.3010  0.0212
  145SAPE   H3X15956   2.959   5.190  10.470  1.4048  0.7871  0.9628
  145SAPE   H3Y15957   2.966   5.365  10.443 -0.2731 -1.0875 -2.9487
  145SAPE   C3415958   2.816   5.288  10.342  0.1815 -0.2575  0.4284
  145SAPE   H4X15959   2.772   5.387  10.322 -2.5120 -1.2636  0.9428
  145SAPE   H4Y15960   2.736   5.212  10.352 -0.1613  0.1455  0.7750
  145SAPE   C3515961   2.908   5.265  10.222 -0.0593  0.9770 -0.2363
  145SAPE   H5X15962   2.956   5.164  10.226 -0.8453  0.6464  2.3305
  145SAPE   H5Y15963   2.993   5.336  10.231  1.4554 -0.7448 -0.2899
  145SAPE   C3615964   2.826   5.292  10.094  0.3308  0.1137  0.0768
  145SAPE   H6X15965   2.769   5.387  10.106 -0.4970 -0.4244  0.5100
  145SAPE   H6Y15966   2.760   5.203  10.082  1.1180 -1.0901  3.4145
  145SAPE   C3715967   2.914   5.315   9.973 -0.0990 -0.4609  0.0667
  145SAPE   H7X15968   2.960   5.219   9.940 -1.5886 -0.9423 -0.6608
  145SAPE   H7Y15969   2.989   5.387  10.012  0.6763 -0.1641 -1.8505
  145SAPE   C3815970   2.833   5.386   9.855 -0.3250  0.9659 -0.0510
  145SAPE   H8X15971   2.769   5.462   9.905 -2.6454 -1.1706  0.4395
  145SAPE   H8Y15972   2.757   5.315   9.816 -1.3075  1.2770  1.2342
  145SAPE   C3915973   2.930   5.438   9.749 -0.2024  0.9218  0.1246
  145SAPE   H9X15974   2.976   5.340   9.723 -1.2776 -0.3235  2.6149
  145SAPE   H9Y15975   3.000   5.504   9.804 -0.6216  1.8244 -0.4022
  145SAPE  C31015976   2.866   5.501   9.624 -0.1906  0.3990  0.1871
  145SAPE  H10X15977   2.839   5.605   9.652 -0.5204  0.1932  0.6399
  145SAPE  H10Y15978   2.778   5.437   9.598  0.5554 -1.5189  2.0845
  145SAPE  C31115979   2.965   5.507   9.508 -0.0058  0.7315  0.2552
  145SAPE  H11X15980   2.988   5.405   9.470  0.2876  1.4624 -1.6529
  145SAPE  H11Y15981   3.066   5.544   9.536  0.0593  0.5532  0.2538
  145SAPE  C31215982   2.889   5.598   9.401 -0.3166  0.3671 -0.8220
  145SAPE  H12X15983   2.858   5.698   9.441 -1.7786 -0.0002 -0.9602
  145SAPE  H12Y15984   2.790   5.554   9.378 -0.3993  0.9324 -1.6107
  145SAPE  C31315985   2.966   5.615   9.271  0.7737  0.2644  0.5780
  145SAPE  H13X15986   2.891   5.653   9.199  0.9618 -2.9680 -1.5489
  145SAPE  H13Y15987   3.003   5.516   9.236  2.1845 -0.5002  3.8678
  145SAPE  C31415988   3.105   5.694   9.291 -0.0875 -0.0630 -0.5147
  145SAPE  H14X15989   3.167   5.622   9.350  0.6712 -0.1881 -1.4344
  145SAPE  H14Y15990   3.082   5.793   9.335  2.7193  0.0047  1.0385
  145SAPE  C31515991   3.194   5.707   9.164  0.1142 -0.4215 -0.0591
  145SAPE  H15X15992   3.179   5.615   9.103 -0.9792  0.4958 -1.2230
  145SAPE  H15Y15993   3.301   5.710   9.191  0.0191  1.3632  0.2578
  145SAPE  C31615994   3.169   5.823   9.063  0.2145 -0.5365 -1.3276
  145SAPE  H16X15995   3.058   5.820   9.051  0.1295 -1.2192 -0.4407
  145SAPE  H16Y15996   3.224   5.821   8.966  1.7064  1.8254 -0.6202
  145SAPE  C31715997   3.207   5.955   9.127  0.0538  0.1793 -0.1269
  145SAPE  H17X15998   3.308   5.950   9.172  0.3457 -1.0091 -0.8549
  145SAPE  H17Y15999   3.132   5.965   9.208  1.1061  0.0800  0.8770
  145SAPE  C31816000   3.198   6.068   9.028 -0.1988  0.0024  0.3898
  145SAPE  H18X16001   3.263   6.046   8.940  1.0231  0.0634  1.2629
  145SAPE  H18Y16002   3.251   6.158   9.064 -1.4469  2.0407 -2.4722
  145SAPE  H18Z16003   3.098   6.107   8.998  0.2645  2.7359  2.1194
  146SAPE     N16004   1.085   4.715  11.157 -0.1778 -0.4791 -0.2188
  146SAPE   HN116005   1.114   4.787  11.088  0.1245 -0.4752 -0.0903
  146SAPE   HN216006   1.169   4.674  11.203  0.2673  0.8278  0.1620
  146SAPE   HN316007   1.037   4.637  11.107 -0.5520 -0.2858 -0.1621
  146SAPE   C1216008   0.998   4.773  11.265  0.0126  0.0064  0.1644
  146SAPE  H12A16009   1.049   4.864  11.302 -0.9425  0.0500  1.4434
  146SAPE  H12B16010   0.999   4.697  11.346  0.7575  0.5805  0.7036
  146SAPE   C1116011   0.857   4.801  11.217 -0.7636 -0.3398  0.2267
  146SAPE  H11A16012   0.865   4.878  11.137  1.5275 -0.4233  0.3058
  146SAPE  H11B16013   0.791   4.848  11.293 -0.3192 -1.2383  1.1888
  146SAPE     P16014   0.705   4.660  11.048  0.0219 -0.2368  0.5250
  146SAPE   O1316015   0.707   4.515  11.018 -0.0637 -0.0709  0.3270
  146SAPE   O1416016   0.578   4.731  11.071 -0.3229 -0.4047 -0.0350
  146SAPE   O1216017   0.795   4.677  11.170 -0.3316 -0.1819 -0.6280
  146SAPE   O1116018   0.783   4.740  10.928 -0.1745 -0.2805 -0.2688
  146SAPE    C116019   0.717   4.844  10.854 -0.0317 -1.1137 -0.4417
  146SAPE    HA16020   0.614   4.821  10.820 -0.5781 -0.5162  0.7377
  146SAPE    HB16021   0.710   4.932  10.921  1.4873  0.5426 -2.3372
  146SAPE    C216022   0.807   4.872  10.727  0.2338 -0.0936  0.5844
  146SAPE    HS16023   0.911   4.887  10.762  0.5870  0.8979 -0.7859
  146SAPE   O2116024   0.765   4.999  10.671  0.7878 -0.6659  0.4937
  146SAPE   C2116025   0.846   5.066  10.605  0.0595  0.4643 -0.5277
  146SAPE   O2216026   0.968   5.054  10.595 -0.5577  0.0033 -0.0024
  146SAPE   C2216027   0.756   5.166  10.539 -0.3839 -0.1374 -0.5461
  146SAPE   H2R16028   0.696   5.212  10.620  1.8381 -0.8473  1.6327
  146SAPE   H2S16029   0.822   5.242  10.493  0.7511 -1.8256 -1.8209
  146SAPE    C316030   0.793   4.758  10.625 -0.2785 -0.0460 -0.2713
  146SAPE    HX16031   0.687   4.729  10.616 -1.0563  2.3487  0.4220
  146SAPE    HY16032   0.842   4.670  10.671 -1.4744  0.5559  2.3069
  146SAPE   O3116033   0.851   4.783  10.492  0.4601  0.3597 -0.3957
  146SAPE   C3116034   0.983   4.769  10.476 -0.2496 -0.0307 -0.3640
  146SAPE   O3216035   1.059   4.752  10.567 -0.0401  0.0287  0.4155
  146SAPE   C3216036   1.001   4.798  10.326 -0.8631 -0.4903 -0.2673
  146SAPE   H2X16037   0.906   4.782  10.272 -1.3667  1.7732 -0.1133
  146SAPE   H2Y16038   1.066   4.718  10.282  0.2799  0.2245  0.0713
  146SAPE   C2316039   0.671   5.107  10.425 -0.5027 -0.2596  0.2193
  146SAPE   H3R16040   0.597   5.038  10.470  0.8777 -2.3028 -0.4921
  146SAPE   H3S16041   0.750   5.054  10.366 -0.3322 -1.7237  1.6818
  146SAPE   C2416042   0.609   5.217  10.327  0.3208 -0.5392 -0.3714
  146SAPE   H4R16043   0.676   5.298  10.293  0.4594  0.0295  1.2149
  146SAPE   H4S16044   0.538   5.271  10.393 -0.2830 -0.1954 -1.2723
  146SAPE   C2516045   0.509   5.172  10.227 -0.2605  0.4080  0.0836
  146SAPE   H5R16046   0.434   5.106  10.273  1.1503 -1.3974 -0.1151
  146SAPE   C2616047   0.489   5.218  10.104  0.6809 -0.8520 -0.5159
  146SAPE   H6R16048   0.403   5.179  10.049 -0.5158 -0.6421  1.1395
  146SAPE   C2716049   0.563   5.319  10.021 -0.4404 -0.1100  0.6752
  146SAPE   H7R16050   0.560   5.416  10.075  0.8234  0.8657 -0.9188
  146SAPE   H7S16051   0.498   5.348   9.936  0.3165 -0.2813  0.0291
  146SAPE   C2816052   0.702   5.274   9.981 -0.6798  0.2101 -0.3425
  146SAPE   H8R16053   0.747   5.189  10.035 -3.5954 -1.9211 -1.0272
  146SAPE   C2916054   0.770   5.314   9.877 -0.4088 -0.1690 -0.0722
  146SAPE   H9R16055   0.872   5.279   9.857 -0.3709  0.6714 -1.5445
  146SAPE  C21016056   0.728   5.427   9.783 -0.6230 -0.0211 -0.6164
  146SAPE  H10R16057   0.821   5.482   9.760 -0.6205 -0.9862 -3.3232
  146SAPE  H10S16058   0.661   5.489   9.846  0.8153  0.2310  0.7310
  146SAPE  C21116059   0.675   5.368   9.650  0.3131 -0.6173 -0.0170
  146SAPE  H11R16060   0.565   5.370   9.654  0.3423 -0.4898  2.3645
  146SAPE  C21216061   0.735   5.311   9.550  0.0456  0.5140  0.1250
  146SAPE  H12R16062   0.671   5.266   9.473 -2.1944  1.3596  1.3925
  146SAPE  C21316063   0.884   5.282   9.526 -0.2705  0.4194 -0.0504
  146SAPE  H13R16064   0.902   5.174   9.507  1.6229 -0.5913  5.5890
  146SAPE  H13S16065   0.934   5.298   9.624  0.0251  1.3440 -0.3399
  146SAPE  C21416066   0.938   5.384   9.435  0.2511 -0.3015  0.2956
  146SAPE  H14R16067   0.899   5.487   9.437  1.7963  0.3390 -0.5368
  146SAPE  C21516068   1.037   5.372   9.340  0.2797 -0.0192 -0.1852
  146SAPE  H15R16069   1.069   5.462   9.287  0.6352  0.7486  1.2659
  146SAPE  C21616070   1.125   5.258   9.304  0.5538  0.3505  0.7949
  146SAPE  H16R16071   1.094   5.160   9.346  0.5921  0.1260  0.3086
  146SAPE  H16S16072   1.228   5.275   9.341  1.5216 -1.1254 -1.0106
  146SAPE  C21716073   1.147   5.242   9.147  0.1851 -0.3698  0.1668
  146SAPE  H17R16074   1.218   5.160   9.121 -1.8143 -1.5714 -1.8300
  146SAPE  H17S16075   1.196   5.337   9.115 -3.6165  1.1430 -1.7063
  146SAPE  C21816076   1.025   5.215   9.058  0.3453  0.6028  0.2685
  146SAPE  H18R16077   1.073   5.227   8.959  1.1665  0.5774  0.6534
  146SAPE  H18S16078   0.945   5.290   9.074 -3.6633 -3.1848  0.0388
  146SAPE  C21916079   0.965   5.072   9.073  0.1440 -0.2292 -0.3998
  146SAPE  H19R16080   0.922   5.058   9.174 -3.3045  0.1302 -1.6612
  146SAPE  H19S16081   1.045   4.999   9.052 -0.4199 -0.5210 -1.6656
  146SAPE  C22016082   0.846   5.052   8.977 -0.3243  0.4549  0.0822
  146SAPE  H20R16083   0.799   4.954   8.997  0.4625  0.0111 -0.2230
  146SAPE  H20S16084   0.870   5.059   8.869  0.1750 -0.7457  0.1047
  146SAPE  H20T16085   0.763   5.121   9.004 -2.2810 -1.5008 -0.6105
  146SAPE   C3316086   1.058   4.938  10.304 -0.8878  0.2638  0.4449
  146SAPE   H3X16087   1.105   4.979  10.396  0.3389  1.5850 -0.7100
  146SAPE   H3Y16088   0.977   5.009  10.280 -0.7873 -0.6324 -3.0618
  146SAPE   C3416089   1.170   4.944  10.197  0.3846 -0.0067  0.2433
  146SAPE   H4X16090   1.259   4.886  10.230  1.2748  1.1206 -0.0768
  146SAPE   H4Y16091   1.198   5.051  10.181  0.5332 -0.2250 -0.9988
  146SAPE   C3516092   1.135   4.902  10.056  0.3359  0.7338  0.5676
  146SAPE   H5X16093   1.078   4.807  10.070  0.6875  0.5779  0.9329
  146SAPE   H5Y16094   1.229   4.886   9.999 -0.8692  1.1421 -1.6528
  146SAPE   C3616095   1.045   4.999   9.984 -0.1990  0.2550  0.4467
  146SAPE   H6X16096   1.107   5.089   9.964  0.7116 -0.5255 -0.3680
  146SAPE   H6Y16097   0.957   5.028  10.045  0.3720 -0.2111  1.5326
  146SAPE   C3716098   0.997   4.947   9.845 -0.0980  0.2022  0.2057
  146SAPE   H7X16099   0.946   5.030   9.792  2.2484  1.3706 -0.3709
  146SAPE   H7Y16100   0.930   4.858   9.850 -0.4374  0.0300 -4.1492
  146SAPE   C3816101   1.109   4.899   9.746  0.2840 -0.5151 -0.2307
  146SAPE   H8X16102   1.146   4.800   9.779 -2.5512 -1.7948 -0.5206
  146SAPE   H8Y16103   1.192   4.973   9.741  0.7664 -1.0964 -1.2792
  146SAPE   C3916104   1.071   4.884   9.598 -0.6440  0.7377  0.4538
  146SAPE   H9X16105   1.038   4.979   9.550  0.3038  1.2571  0.8008
  146SAPE   H9Y16106   0.980   4.821   9.590 -0.5546  0.7195 -0.6639
  146SAPE  C31016107   1.192   4.837   9.516 -0.0799  0.3341 -0.4959
  146SAPE  H10X16108   1.219   4.730   9.527  0.4994  0.3057 -1.9234
  146SAPE  H10Y16109   1.275   4.902   9.550  0.7844 -0.6676 -0.6343
  146SAPE  C31116110   1.177   4.850   9.366  0.8442 -0.3902 -0.1956
  146SAPE  H11X16111   1.126   4.948   9.357  2.2697  0.6873  2.4605
  146SAPE  H11Y16112   1.116   4.766   9.327  1.1269 -0.2759 -0.9052
  146SAPE  C31216113   1.301   4.847   9.265 -0.7953  0.4842  0.5761
  146SAPE  H12X16114   1.265   4.833   9.160  0.6851 -1.9161  0.3115
  146SAPE  H12Y16115   1.344   4.745   9.268 -2.1921 -0.1411  0.2565
  146SAPE  C31316116   1.401   4.958   9.281 -1.1838  0.1192  0.5639
  146SAPE  H13X16117   1.409   4.982   9.390  0.6009  1.0517  0.2699
  146SAPE  H13Y16118   1.367   5.051   9.231 -0.9387  0.2619  0.6551
  146SAPE  C31416119   1.541   4.924   9.229  0.5808  0.7955 -0.5722
  146SAPE  H14X16120   1.579   4.990   9.147  0.7313  0.5477 -0.7015
  146SAPE  H14Y16121   1.542   4.820   9.191  1.2647  1.1331 -1.5377
  146SAPE  C31516122   1.640   4.948   9.344 -0.3475 -0.2671 -0.2349
  146SAPE  H15X16123   1.637   4.856   9.406 -1.2852 -1.1737 -1.5802
  146SAPE  H15Y16124   1.624   5.043   9.398  0.6672 -1.7163  2.8530
  146SAPE  C31616125   1.781   4.970   9.292 -0.2483  0.3594 -0.0603
  146SAPE  H16X16126   1.845   4.977   9.382  1.1106 -2.4350 -0.6906
  146SAPE  H16Y16127   1.784   5.063   9.232 -2.1838 -0.4068 -1.4365
  146SAPE  C31716128   1.840   4.866   9.198 -0.1991  0.1687 -0.5145
  146SAPE  H17X16129   1.937   4.912   9.169  0.5975 -2.2159 -1.9055
  146SAPE  H17Y16130   1.769   4.857   9.113 -0.6180  0.3171 -0.1809
  146SAPE  C31816131   1.858   4.737   9.275 -0.4690 -0.1455  0.6322
  146SAPE  H18X16132   1.927   4.739   9.362 -0.9151  1.6774  0.9792
  146SAPE  H18Y16133   1.891   4.663   9.199  2.3295  0.4030  1.2305
  146SAPE  H18Z16134   1.759   4.701   9.312 -1.1327 -1.3595 -2.0746
  147SAPE     N16135   5.764   3.880   6.383  0.0191  0.1957 -0.0908
  147SAPE   HN116136   5.844   3.882   6.317 -0.2802 -1.9495 -0.6164
  147SAPE   HN216137   5.791   3.929   6.471 -0.2545  0.8608 -0.3742
  147SAPE   HN316138   5.742   3.779   6.397  0.2293 -0.1480 -1.9374
  147SAPE   C1216139   5.638   3.949   6.347 -0.2609  0.5229 -0.8394
  147SAPE  H12A16140   5.584   3.893   6.268  0.3550  0.3253 -1.1235
  147SAPE  H12B16141   5.650   4.055   6.317 -3.2174  1.5685  1.1867
  147SAPE   C1116142   5.543   3.963   6.471  0.0143 -0.0932  0.3828
  147SAPE  H11A16143   5.456   4.015   6.426  1.4776  2.2678  0.0851
  147SAPE  H11B16144   5.588   4.027   6.549  1.6363 -2.3224  1.3886
  147SAPE     P16145   5.386   3.756   6.479 -0.1225  0.5014  0.2524
  147SAPE   O1316146   5.344   3.798   6.344  0.0239  0.0071 -0.0670
  147SAPE   O1416147   5.422   3.613   6.481 -0.0502  0.2457 -0.3228
  147SAPE   O1216148   5.517   3.836   6.525 -0.0088  0.5687 -0.0441
  147SAPE   O1116149   5.268   3.787   6.583  0.4486  0.1639  0.3359
  147SAPE    C116150   5.294   3.881   6.688  0.1508 -0.8275  0.4114
  147SAPE    HA16151   5.377   3.951   6.666  1.5503 -2.3945  0.5281
  147SAPE    HB16152   5.208   3.946   6.714  0.6675  0.4023 -0.7975
  147SAPE    C216153   5.336   3.805   6.823  0.1293  0.8892 -0.2304
  147SAPE    HS16154   5.358   3.868   6.911  4.0389 -0.1800 -0.2494
  147SAPE   O2116155   5.464   3.733   6.796  0.7010  0.1985  0.3654
  147SAPE   C2116156   5.570   3.805   6.791  0.4083  0.2729  0.4867
  147SAPE   O2216157   5.581   3.927   6.812  0.2887  0.3404  0.3625
  147SAPE   C2216158   5.691   3.709   6.754 -0.5646 -0.5253  0.2284
  147SAPE   H2R16159   5.684   3.622   6.823  1.7867 -0.5081  0.5511
  147SAPE   H2S16160   5.685   3.668   6.651 -1.1093  1.3239 -0.5183
  147SAPE    C316161   5.234   3.697   6.868  0.0698  0.2086  0.2170
  147SAPE    HX16162   5.223   3.620   6.789  1.0721 -1.5156  1.6731
  147SAPE    HY16163   5.135   3.746   6.879 -0.7648 -1.2473 -0.5333
  147SAPE   O3116164   5.274   3.641   6.993 -0.3129  0.0671  0.1475
  147SAPE   C3116165   5.200   3.533   7.020 -0.0468  0.0159 -0.6174
  147SAPE   O3216166   5.126   3.478   6.940  0.1068 -0.2036 -0.4619
  147SAPE   C3216167   5.217   3.493   7.164  0.0848  0.3799 -0.7622
  147SAPE   H2X16168   5.262   3.392   7.171  0.4561  0.5902  0.0277
  147SAPE   H2Y16169   5.116   3.495   7.209 -0.6237  2.3580 -2.2577
  147SAPE   C2316170   5.830   3.773   6.771  0.2747 -0.2577  0.7013
  147SAPE   H3R16171   5.844   3.813   6.874 -1.3311 -1.0940  1.2863
  147SAPE   H3S16172   5.813   3.862   6.707  2.4008 -0.5127 -0.3003
  147SAPE   C2416173   5.940   3.680   6.714  0.3028 -0.6975  0.0321
  147SAPE   H4R16174   6.038   3.722   6.744  1.4277 -1.8495 -1.8426
  147SAPE   H4S16175   5.942   3.685   6.603  3.1907  2.8617  0.0436
  147SAPE   C2516176   5.928   3.533   6.751  0.7047  0.0744 -0.3920
  147SAPE   H5R16177   5.839   3.481   6.711  0.6257 -0.1173  0.0275
  147SAPE   C2616178   5.999   3.463   6.847  0.0517  0.4701  0.3187
  147SAPE   H6R16179   5.985   3.354   6.852 -3.4492  0.6904 -1.6635
  147SAPE   C2716180   6.111   3.522   6.932  0.2827 -0.3861  0.0344
  147SAPE   H7R16181   6.176   3.586   6.867 -0.3129  1.0900  0.8491
  147SAPE   H7S16182   6.180   3.445   6.973 -0.4360 -0.9186  0.2657
  147SAPE   C2816183   6.062   3.620   7.034  0.0194  0.4328  0.1747
  147SAPE   H8R16184   5.954   3.641   7.028 -0.0934 -0.3340 -0.8937
  147SAPE   C2916185   6.133   3.679   7.130 -0.4339 -0.6951 -0.0264
  147SAPE   H9R16186   6.081   3.743   7.203 -0.7015 -2.4322  1.3530
  147SAPE  C21016187   6.286   3.665   7.138 -0.4648 -0.4251 -0.0879
  147SAPE  H10R16188   6.339   3.726   7.062  3.5257  0.8054  3.3105
  147SAPE  H10S16189   6.321   3.563   7.111 -0.4590 -0.0377 -1.6156
  147SAPE  C21116190   6.337   3.695   7.280 -0.3602 -0.1348 -0.1544
  147SAPE  H11R16191   6.359   3.801   7.299  4.1162 -1.0689  0.9193
  147SAPE  C21216192   6.349   3.616   7.391 -0.7711  0.3747 -0.1425
  147SAPE  H12R16193   6.404   3.657   7.476 -1.1983 -0.4125  0.5236
  147SAPE  C21316194   6.316   3.467   7.409 -0.0443 -0.9849  0.6048
  147SAPE  H13R16195   6.408   3.429   7.459  2.4992 -1.1116 -3.6450
  147SAPE  H13S16196   6.297   3.414   7.313  0.2615 -1.7671  0.9678
  147SAPE  C21416197   6.177   3.463   7.473  0.3642 -0.0708 -0.5272
  147SAPE  H14R16198   6.096   3.501   7.409 -0.9972 -1.4737  0.3083
  147SAPE  C21516199   6.143   3.390   7.581 -0.3517 -0.3131  0.3513
  147SAPE  H15R16200   6.038   3.393   7.614 -1.2231 -0.0596 -2.2164
  147SAPE  C21616201   6.243   3.312   7.653  0.2231 -0.2230 -0.6894
  147SAPE  H16R16202   6.328   3.281   7.589  2.3136  0.6143  1.5050
  147SAPE  H16S16203   6.200   3.215   7.686  1.3310  0.4927  3.4470
  147SAPE  C21716204   6.310   3.370   7.780 -0.7209 -0.2711 -0.9149
  147SAPE  H17R16205   6.345   3.475   7.771  0.0610 -0.4614 -0.2315
  147SAPE  H17S16206   6.407   3.320   7.797 -0.2830  0.5409 -0.9434
  147SAPE  C21816207   6.218   3.373   7.910 -0.5113  0.4548  0.2903
  147SAPE  H18R16208   6.170   3.274   7.926  0.3559  0.3029  2.1508
  147SAPE  H18S16209   6.146   3.454   7.887  1.9869  2.6826 -0.2191
  147SAPE  C21916210   6.278   3.421   8.043 -0.1036 -0.2815  0.5233
  147SAPE  H19R16211   6.209   3.418   8.130  2.0571 -1.6080  2.3120
  147SAPE  H19S16212   6.321   3.523   8.030 -1.7401  0.4682  0.7469
  147SAPE  C22016213   6.386   3.325   8.099 -0.3245 -0.6980  0.5091
  147SAPE  H20R16214   6.420   3.361   8.199  1.4501 -0.0812 -0.2695
  147SAPE  H20S16215   6.463   3.305   8.022 -0.0044  2.6826 -0.2217
  147SAPE  H20T16216   6.339   3.228   8.123 -2.2772  0.7165  2.8496
  147SAPE   C3316217   5.308   3.579   7.262  0.1670 -0.3845 -0.0386
  147SAPE   H3X16218   5.242   3.667   7.275 -1.4453 -0.9528 -3.3183
  147SAPE   H3Y16219   5.401   3.611   7.210  0.0163  1.8170  0.9298
  147SAPE   C3416220   5.337   3.506   7.398  0.5583  0.1795  0.4677
  147SAPE   H4X16221   5.394   3.416   7.368  1.2059  0.9611 -0.7273
  147SAPE   H4Y16222   5.234   3.493   7.438 -0.4512  1.1676 -1.6349
  147SAPE   C3516223   5.411   3.607   7.486 -0.6408  0.0343 -0.2247
  147SAPE   H5X16224   5.369   3.708   7.466 -3.2724 -0.7576  0.8076
  147SAPE   H5Y16225   5.516   3.599   7.450 -0.5437  0.3495 -0.0213
  147SAPE   C3616226   5.399   3.569   7.641 -0.2095 -0.5715  0.0919
  147SAPE   H6X16227   5.485   3.609   7.698 -0.5481  0.5944 -0.1893
  147SAPE   H6Y16228   5.409   3.458   7.632 -1.7887 -0.5820 -2.7501
  147SAPE   C3716229   5.268   3.601   7.701  0.2232 -0.3851  0.3562
  147SAPE   H7X16230   5.187   3.560   7.637 -0.6004 -0.0094  1.1367
  147SAPE   H7Y16231   5.261   3.712   7.705  1.4012 -0.2636 -0.4864
  147SAPE   C3816232   5.250   3.537   7.846 -0.1953 -0.1652  0.4161
  147SAPE   H8X16233   5.327   3.589   7.908  1.5932 -1.5469 -0.5562
  147SAPE   H8Y16234   5.293   3.435   7.855 -0.1304 -0.1379  0.4169
  147SAPE   C3916235   5.109   3.543   7.902 -0.0167 -0.1234  0.8087
  147SAPE   H9X16236   5.049   3.464   7.851  0.3570 -0.3429  0.7030
  147SAPE   H9Y16237   5.069   3.643   7.876  0.3585 -0.4281 -1.1099
  147SAPE  C31016238   5.108   3.517   8.058 -0.4618 -0.5214  0.6951
  147SAPE  H10X16239   5.175   3.589   8.109  0.6467 -2.0217  1.4294
  147SAPE  H10Y16240   5.141   3.413   8.075 -0.5498 -0.4589  1.2611
  147SAPE  C31116241   4.972   3.532   8.112  0.2913 -0.3369 -0.0015
  147SAPE  H11X16242   4.904   3.453   8.072 -0.5336 -0.9834  2.4939
  147SAPE  H11Y16243   4.941   3.627   8.065 -3.3352 -1.6681 -0.6816
  147SAPE  C31216244   4.963   3.529   8.259 -0.0897  0.8115 -0.0650
  147SAPE  H12X16245   5.005   3.440   8.310 -2.0598 -1.1647 -1.7460
  147SAPE  H12Y16246   4.855   3.526   8.282 -0.2724  0.8792 -0.8915
  147SAPE  C31316247   5.024   3.656   8.319 -0.2652 -0.0092 -0.3182
  147SAPE  H13X16248   4.992   3.735   8.247  0.3872 -1.2200 -2.0181
  147SAPE  H13Y16249   5.135   3.650   8.327 -0.2279  0.8582 -0.0970
  147SAPE  C31416250   4.961   3.678   8.456  0.4270 -0.0861 -0.1285
  147SAPE  H14X16251   4.995   3.599   8.526  0.1724 -0.3359 -0.2859
  147SAPE  H14Y16252   4.853   3.662   8.438 -0.0162  2.3961  0.0458
  147SAPE  C31516253   4.987   3.815   8.521  0.5017  0.0221 -0.4871
  147SAPE  H15X16254   5.094   3.838   8.541  0.1218  1.8463 -0.4309
  147SAPE  H15Y16255   4.934   3.810   8.618  2.1018 -0.0615  0.4065
  147SAPE  C31616256   4.915   3.923   8.438 -0.1756 -0.4675 -0.0101
  147SAPE  H16X16257   4.812   3.881   8.433 -0.0161 -0.8177 -0.3976
  147SAPE  H16Y16258   4.949   3.921   8.332 -1.2037 -0.2902 -0.3553
  147SAPE  C31716259   4.920   4.064   8.485 -0.1052  0.1470  0.1088
  147SAPE  H17X16260   5.021   4.098   8.516  0.6922 -1.8110 -0.1537
  147SAPE  H17Y16261   4.852   4.071   8.573 -0.5917 -2.3724  0.0273
  147SAPE  C31816262   4.858   4.163   8.390 -0.1976 -0.3023 -0.0572
  147SAPE  H18X16263   4.763   4.128   8.344  0.3071 -3.2298  0.8770
  147SAPE  H18Y16264   4.937   4.190   8.317 -0.9556  2.7116  0.1158
  147SAPE  H18Z16265   4.836   4.251   8.455  0.1654  0.0106 -0.3581
  148SAPE     N16266   3.527   0.688   6.285 -0.2904  0.5187  0.4448
  148SAPE   HN116267   3.505   0.774   6.232  3.0420  1.9021  1.0402
  148SAPE   HN216268   3.602   0.704   6.355  1.4669  1.0219 -1.4391
  148SAPE   HN316269   3.568   0.614   6.224  0.0606 -0.0267  1.3302
  148SAPE   C1216270   3.397   0.628   6.333 -0.0415  0.3550  0.1634
  148SAPE  H12A16271   3.389   0.524   6.293 -2.5755  1.4541 -2.4764
  148SAPE  H12B16272   3.308   0.673   6.284 -1.0525  0.9182  2.3884
  148SAPE   C1116273   3.401   0.643   6.488  0.5172  0.9542 -0.3456
  148SAPE  H11A16274   3.306   0.600   6.526  1.6795 -0.7162  0.8583
  148SAPE  H11B16275   3.413   0.752   6.505  2.4884  0.6326  0.6980
  148SAPE     P16276   3.640   0.599   6.597 -0.2942  0.2245 -0.3918
  148SAPE   O1316277   3.718   0.489   6.658  0.6586  0.6319  0.1401
  148SAPE   O1416278   3.703   0.669   6.488  0.1205  0.2407 -0.7411
  148SAPE   O1216279   3.502   0.556   6.545  0.1322 -0.5996 -0.6886
  148SAPE   O1116280   3.619   0.708   6.711 -1.1332  0.2388 -0.0474
  148SAPE    C116281   3.589   0.659   6.841 -0.0064 -0.6620  0.1672
  148SAPE    HA16282   3.664   0.586   6.877  2.0259  0.1186 -2.1522
  148SAPE    HB16283   3.589   0.743   6.914 -1.4637  0.3247 -0.9071
  148SAPE    C216284   3.449   0.599   6.861 -0.1755 -0.1313  0.1000
  148SAPE    HS16285   3.436   0.513   6.792 -0.1134 -0.5649  0.6248
  148SAPE   O2116286   3.354   0.701   6.824 -0.0519  0.7568  0.0847
  148SAPE   C2116287   3.225   0.660   6.802 -0.1552  0.0252  0.1717
  148SAPE   O2216288   3.190   0.542   6.798 -0.2283  0.4322  0.2241
  148SAPE   C2216289   3.131   0.781   6.784  0.2539 -0.0340 -0.7169
  148SAPE   H2R16290   3.167   0.851   6.706 -1.5421  2.8477  0.8746
  148SAPE   H2S16291   3.029   0.745   6.757 -1.0797  1.2021  2.2542
  148SAPE    C316292   3.437   0.535   6.999  0.4933  0.0904  0.0808
  148SAPE    HX16293   3.338   0.486   7.013 -0.0554  0.1441 -2.8676
  148SAPE    HY16294   3.456   0.615   7.073  2.6746 -0.9836  0.7624
  148SAPE   O3116295   3.540   0.431   7.026 -0.1839 -0.5568 -0.6002
  148SAPE   C3116296   3.509   0.310   6.970  0.1184  0.0660 -0.4199
  148SAPE   O3216297   3.412   0.282   6.906  0.2756 -0.2669 -0.1133
  148SAPE   C3216298   3.617   0.213   7.022 -0.2358 -0.2337  0.0241
  148SAPE   H2X16299   3.716   0.263   7.027 -0.5788  0.5056 -0.4497
  148SAPE   H2Y16300   3.619   0.132   6.946  0.6744 -0.3261  0.1401
  148SAPE   C2316301   3.121   0.858   6.915 -0.4552  0.8163 -0.2944
  148SAPE   H3R16302   3.065   0.953   6.898 -0.3188  0.8011 -0.8486
  148SAPE   H3S16303   3.225   0.892   6.934 -0.2644 -0.5055  1.2762
  148SAPE   C2416304   3.066   0.777   7.034 -0.0063 -0.0505  0.1967
  148SAPE   H4R16305   3.081   0.836   7.127  1.6183 -0.4647  0.2290
  148SAPE   H4S16306   3.133   0.690   7.051 -0.0639  0.3097  2.5303
  148SAPE   C2516307   2.923   0.739   6.997  0.2777  0.0596  0.2501
  148SAPE   H5R16308   2.905   0.648   6.939 -0.3562 -1.7152  3.0170
  148SAPE   C2616309   2.812   0.811   7.010 -0.0548  0.4784 -0.5228
  148SAPE   H6R16310   2.717   0.757   7.000  0.0028  0.0944  0.8292
  148SAPE   C2716311   2.804   0.941   7.082 -0.5952 -0.3061  0.3215
  148SAPE   H7R16312   2.907   0.977   7.103 -0.0084 -2.3604  1.1578
  148SAPE   H7S16313   2.748   0.927   7.177 -1.2033 -0.6677 -0.0839
  148SAPE   C2816314   2.729   1.047   7.008  0.3369 -0.4794 -0.3192
  148SAPE   H8R16315   2.679   1.011   6.916  0.0734  0.2903 -0.4872
  148SAPE   C2916316   2.734   1.181   7.021 -0.2097  0.0373  0.2772
  148SAPE   H9R16317   2.670   1.241   6.954 -0.2161  0.8698  1.0127
  148SAPE  C21016318   2.805   1.265   7.125  0.2429  0.0594 -0.7064
  148SAPE  H10R16319   2.844   1.356   7.074  0.1420 -0.5285 -1.8645
  148SAPE  H10S16320   2.887   1.221   7.185  0.5410  1.3033 -0.1718
  148SAPE  C21116321   2.709   1.317   7.231  0.0758  0.2847 -0.3177
  148SAPE  H11R16322   2.695   1.238   7.306  0.6918 -0.2742 -0.7766
  148SAPE  C21216323   2.644   1.432   7.229  0.1109 -0.0087  0.4840
  148SAPE  H12R16324   2.585   1.458   7.318 -0.8805  0.1497 -0.2003
  148SAPE  C21316325   2.642   1.541   7.126  0.0077  0.1899 -0.8601
  148SAPE  H13R16326   2.534   1.562   7.108 -0.2069 -0.0839  0.0097
  148SAPE  H13S16327   2.684   1.510   7.029  0.2399  0.4927 -0.8589
  148SAPE  C21416328   2.717   1.662   7.175 -0.7921 -0.3811  0.9085
  148SAPE  H14R16329   2.808   1.623   7.223  0.6189  1.2202 -0.3928
  148SAPE  C21516330   2.691   1.796   7.160 -0.1152 -0.2705 -0.0858
  148SAPE  H15R16331   2.738   1.873   7.223  1.5459 -0.5639 -0.9267
  148SAPE  C21616332   2.572   1.852   7.094  0.0418 -0.1648  0.1138
  148SAPE  H16R16333   2.484   1.787   7.115  0.2477 -0.5848 -0.2937
  148SAPE  H16S16334   2.595   1.832   6.987 -0.5680 -2.5967  0.3624
  148SAPE  C21716335   2.554   2.004   7.126 -0.5735  0.1893 -0.2162
  148SAPE  H17R16336   2.649   2.058   7.110 -0.4735 -0.1032 -0.6426
  148SAPE  H17S16337   2.535   2.020   7.234  0.9270 -1.0589  0.2665
  148SAPE  C21816338   2.422   2.062   7.068  1.3018  0.1647 -0.3902
  148SAPE  H18R16339   2.339   2.003   7.111  0.5458  1.5861  0.1682
  148SAPE  H18S16340   2.433   2.051   6.958  0.3013  0.9127 -0.5753
  148SAPE  C21916341   2.401   2.215   7.098 -0.5757 -0.4799 -0.3973
  148SAPE  H19R16342   2.400   2.236   7.207 -1.6668 -2.5402  0.0512
  148SAPE  H19S16343   2.297   2.238   7.065  0.6251  0.2856 -4.1856
  148SAPE  C22016344   2.494   2.309   7.019  0.8243  0.1264 -0.8924
  148SAPE  H20R16345   2.480   2.416   7.047 -0.8351 -0.7198  1.8642
  148SAPE  H20S16346   2.472   2.292   6.911  0.3104  1.1730 -0.9693
  148SAPE  H20T16347   2.596   2.267   7.029  0.1386 -1.6581 -1.0887
  148SAPE   C3316348   3.586   0.159   7.164  0.8616 -0.5724  0.5260
  148SAPE   H3X16349   3.562   0.237   7.239  0.3289 -0.0273 -0.1903
  148SAPE   H3Y16350   3.679   0.109   7.198  0.3244 -1.5353  0.6134
  148SAPE   C3416351   3.463   0.072   7.164  0.1821  0.8369 -0.8344
  148SAPE   H4X16352   3.426   0.042   7.063 -1.5432 -0.8812  0.2329
  148SAPE   H4Y16353   3.378   0.129   7.207  0.2732  0.4633 -0.1413
  148SAPE   C3516354   3.476  -0.061   7.244 -0.0743 -0.5297 -0.7131
  148SAPE   H5X16355   3.554  -0.117   7.188 -1.7175 -1.9578 -1.6732
  148SAPE   H5Y16356   3.378  -0.115   7.245  0.5382 -1.6675 -0.2185
  148SAPE   C3616357   3.533  -0.039   7.388  0.9599 -0.0206 -0.0431
  148SAPE   H6X16358   3.635   0.003   7.398  1.2916 -0.9265  0.5248
  148SAPE   H6Y16359   3.533  -0.139   7.437 -2.1939  0.8480  2.0024
  148SAPE   C3716360   3.436   0.046   7.476 -0.1424  0.1713 -0.2597
  148SAPE   H7X16361   3.335   0.005   7.457 -0.8092  1.6968 -0.1379
  148SAPE   H7Y16362   3.441   0.148   7.432  0.3758 -0.2407 -1.1810
  148SAPE   C3816363   3.458   0.044   7.627 -0.5457  0.8157  0.1619
  148SAPE   H8X16364   3.549   0.101   7.658  0.5330 -0.4395 -0.5909
  148SAPE   H8Y16365   3.483  -0.061   7.652  0.1311  1.3332  1.8525
  148SAPE   C3916366   3.341   0.095   7.706 -0.7074  0.2617 -0.1282
  148SAPE   H9X16367   3.263   0.020   7.680 -1.5379  1.6557 -1.9125
  148SAPE   H9Y16368   3.301   0.193   7.674 -2.0969 -0.2868 -0.1255
  148SAPE  C31016369   3.371   0.096   7.859  0.0460  0.4385  0.5562
  148SAPE  H10X16370   3.458   0.163   7.878  0.4287  0.0952  0.0242
  148SAPE  H10Y16371   3.402  -0.008   7.881 -0.5818 -0.3881 -2.1556
  148SAPE  C31116372   3.251   0.143   7.941 -0.5445  0.7753 -0.6005
  148SAPE  H11X16373   3.159   0.081   7.941  0.0923 -0.1975 -1.0365
  148SAPE  H11Y16374   3.214   0.239   7.898  0.4897  2.0668  1.2319
  148SAPE  C31216375   3.295   0.167   8.093 -0.0315 -0.1284 -0.0863
  148SAPE  H12X16376   3.397   0.211   8.084  0.6253 -1.4116  0.8182
  148SAPE  H12Y16377   3.313   0.072   8.148 -1.6603 -0.3705  0.0730
  148SAPE  C31316378   3.203   0.269   8.157  0.0417  0.0883 -0.2207
  148SAPE  H13X16379   3.103   0.220   8.164  0.3568 -0.6281 -0.6758
  148SAPE  H13Y16380   3.199   0.359   8.092  0.6637  0.8464  0.7610
  148SAPE  C31416381   3.258   0.322   8.297 -0.2394 -0.2575 -0.1049
  148SAPE  H14X16382   3.369   0.324   8.294 -0.2163  2.7621 -0.9622
  148SAPE  H14Y16383   3.244   0.236   8.365  0.8027  0.6790  1.3644
  148SAPE  C31516384   3.197   0.451   8.352  0.8779 -0.4335  0.3333
  148SAPE  H15X16385   3.086   0.452   8.360  0.7680 -0.2375 -0.9918
  148SAPE  H15Y16386   3.220   0.535   8.283 -2.1418 -0.7696 -1.2303
  148SAPE  C31616387   3.253   0.470   8.486 -0.5238  0.1422 -0.1457
  148SAPE  H16X16388   3.362   0.459   8.469 -0.5639  0.7687 -0.8488
  148SAPE  H16Y16389   3.237   0.387   8.558  0.1841  0.2308  0.1255
  148SAPE  C31716390   3.219   0.606   8.557  0.0296 -0.2779  0.8095
  148SAPE  H17X16391   3.109   0.617   8.554 -0.0055 -0.6254  0.8081
  148SAPE  H17Y16392   3.258   0.689   8.494  0.6911 -0.0508  1.4943
  148SAPE  C31816393   3.271   0.634   8.698  0.2888 -0.5839 -0.1621
  148SAPE  H18X16394   3.224   0.567   8.772 -0.4977  1.0316  0.8726
  148SAPE  H18Y16395   3.261   0.736   8.743 -0.3924 -1.3409  1.4647
  148SAPE  H18Z16396   3.381   0.619   8.706  0.2005 -0.3404  3.5063
  149SAPE     N16397   3.569   1.982   6.395  0.2937 -0.3393  0.8727
  149SAPE   HN116398   3.598   2.064   6.337 -1.5505  0.1838  0.6067
  149SAPE   HN216399   3.650   1.920   6.382 -0.0455 -0.3573 -1.6257
  149SAPE   HN316400   3.484   1.932   6.361  0.9789 -1.6796  1.0911
  149SAPE   C1216401   3.544   2.025   6.542  0.5232  0.6205 -0.0516
  149SAPE  H12A16402   3.641   2.045   6.592  0.9492  0.2545 -0.7155
  149SAPE  H12B16403   3.496   1.946   6.603 -1.5102  1.8688  0.0651
  149SAPE   C1116404   3.436   2.139   6.545  0.2181 -0.2082  0.1003
  149SAPE  H11A16405   3.397   2.144   6.649 -1.4146  1.6778 -0.5538
  149SAPE  H11B16406   3.351   2.121   6.476  0.0329  0.6678  0.0903
  149SAPE     P16407   3.553   2.367   6.604 -0.1771  0.2402 -0.0183
  149SAPE   O1316408   3.659   2.438   6.534  0.6164 -0.3915  0.2266
  149SAPE   O1416409   3.441   2.445   6.660  0.2063 -0.0628  0.4673
  149SAPE   O1216410   3.490   2.265   6.504  0.2079 -0.2945 -0.4592
  149SAPE   O1116411   3.619   2.274   6.719  0.1757  0.3686 -0.2806
  149SAPE    C116412   3.761   2.262   6.729 -0.1856 -0.2050  0.0274
  149SAPE    HA16413   3.782   2.171   6.789  0.4587  0.0360  0.1763
  149SAPE    HB16414   3.811   2.256   6.630 -1.0020  1.4096 -0.5050
  149SAPE    C216415   3.837   2.364   6.820  0.2919  0.1136 -0.1014
  149SAPE    HS16416   3.918   2.307   6.871 -0.5566 -0.8064  0.2562
  149SAPE   O2116417   3.754   2.422   6.918 -0.3213  0.0909  0.0412
  149SAPE   C2116418   3.721   2.334   7.021 -0.4373  0.9162 -0.2696
  149SAPE   O2216419   3.779   2.225   7.039  0.0134  0.3580  0.4379
  149SAPE   C2216420   3.606   2.393   7.094 -0.6561 -0.5331 -0.3758
  149SAPE   H2R16421   3.582   2.494   7.054  0.5325  0.6057  1.6152
  149SAPE   H2S16422   3.517   2.327   7.084  0.0041 -1.9835  2.2294
  149SAPE    C316423   3.899   2.479   6.743  0.2158 -0.4862  0.0043
  149SAPE    HX16424   3.819   2.540   6.696 -0.3862  0.1002  1.7128
  149SAPE    HY16425   3.949   2.427   6.659 -0.5522 -1.5800  0.1962
  149SAPE   O3116426   4.002   2.552   6.812  0.2291  0.4762  0.6811
  149SAPE   C3116427   3.971   2.672   6.872 -0.5572 -0.3621 -0.1848
  149SAPE   O3216428   3.864   2.728   6.859  0.1296  1.1831 -0.5703
  149SAPE   C3216429   4.084   2.719   6.958  0.3049  0.2644 -0.0860
  149SAPE   H2X16430   4.136   2.798   6.899  0.8885  0.9239  1.2596
  149SAPE   H2Y16431   4.161   2.643   6.984  1.1516  0.3498 -2.1407
  149SAPE   C2316432   3.623   2.407   7.249  0.0798 -0.3110 -0.4711
  149SAPE   H3R16433   3.707   2.475   7.274 -1.3045  1.1787  0.3262
  149SAPE   H3S16434   3.636   2.305   7.292 -5.2355 -0.7187  0.8464
  149SAPE   C2416435   3.496   2.468   7.308 -0.8754 -0.8785 -0.2888
  149SAPE   H4R16436   3.411   2.396   7.306 -1.2740 -0.4320  0.3441
  149SAPE   H4S16437   3.463   2.564   7.263  1.2645  0.7724  1.4220
  149SAPE   C2516438   3.529   2.506   7.448  0.2138 -0.8078  0.0883
  149SAPE   H5R16439   3.636   2.527   7.466  0.2228  1.0471 -1.6652
  149SAPE   C2616440   3.438   2.515   7.550 -0.7289  0.0391  0.0802
  149SAPE   H6R16441   3.470   2.547   7.650  0.3751 -0.1375 -0.1939
  149SAPE   C2716442   3.288   2.477   7.537  0.1677  0.0414 -0.2029
  149SAPE   H7R16443   3.288   2.367   7.555  2.5055 -0.2620 -1.5426
  149SAPE   H7S16444   3.253   2.480   7.432 -2.0450 -3.5547  0.2793
  149SAPE   C2816445   3.192   2.543   7.627 -0.3817 -0.9927  0.9009
  149SAPE   H8R16446   3.125   2.618   7.583 -0.0233 -0.0883  1.8687
  149SAPE   C2916447   3.158   2.504   7.746  0.5690  0.3595 -0.8978
  149SAPE   H9R16448   3.084   2.565   7.800  2.2938  1.3428  0.4629
  149SAPE  C21016449   3.207   2.389   7.834 -0.7374 -0.9030 -0.3089
  149SAPE  H10R16450   3.293   2.346   7.778  0.1091  1.8679 -1.2785
  149SAPE  H10S16451   3.135   2.304   7.835  0.1576 -1.7129 -1.5925
  149SAPE  C21116452   3.251   2.440   7.971 -0.5693 -0.0153  0.3242
  149SAPE  H11R16453   3.327   2.519   7.973  0.1703 -0.7321  1.2732
  149SAPE  C21216454   3.219   2.389   8.089  0.1938 -0.3738  0.5399
  149SAPE  H12R16455   3.233   2.458   8.174 -4.7434 -0.2320  1.5248
  149SAPE  C21316456   3.123   2.273   8.109 -0.8842 -0.2352  0.6025
  149SAPE  H13R16457   3.180   2.182   8.080 -0.3809  0.3484 -0.3032
  149SAPE  H13S16458   3.035   2.280   8.042 -0.2858 -0.6398 -0.2467
  149SAPE  C21416459   3.076   2.269   8.246 -0.1599  0.3568  0.1223
  149SAPE  H14R16460   2.973   2.303   8.267  0.3263  1.3137  1.0639
  149SAPE  C21516461   3.147   2.242   8.356 -0.0291 -1.0260  0.4800
  149SAPE  H15R16462   3.093   2.242   8.452  2.3611 -1.5452  1.9238
  149SAPE  C21616463   3.296   2.214   8.360  0.3024  0.4845 -0.9245
  149SAPE  H16R16464   3.359   2.302   8.333 -0.1774  1.4414  0.9237
  149SAPE  H16S16465   3.316   2.137   8.283  0.4700 -0.0787 -0.3271
  149SAPE  C21716466   3.334   2.172   8.503 -0.1325 -0.0447  0.2535
  149SAPE  H17R16467   3.298   2.070   8.529  0.3278 -0.5223 -0.8947
  149SAPE  H17S16468   3.300   2.243   8.581 -0.8909  0.4957 -0.5544
  149SAPE  C21816469   3.486   2.166   8.521 -0.2228 -0.6876 -0.3220
  149SAPE  H18R16470   3.525   2.263   8.484 -2.1756  0.9046  1.5217
  149SAPE  H18S16471   3.525   2.086   8.454  0.9632  0.3296 -0.8766
  149SAPE  C21916472   3.531   2.137   8.660  1.3158 -0.8706 -0.0243
  149SAPE  H19R16473   3.476   2.051   8.706 -0.7562  1.0124  1.2390
  149SAPE  H19S16474   3.506   2.219   8.730  2.6242 -0.7965  0.3748
  149SAPE  C22016475   3.681   2.118   8.676  0.7291 -0.4903 -0.2640
  149SAPE  H20R16476   3.720   2.022   8.636  1.0853 -0.8332  0.8378
  149SAPE  H20S16477   3.704   2.100   8.784 -2.0457 -0.8960  0.3377
  149SAPE  H20T16478   3.741   2.183   8.609  0.3589 -0.2399 -0.3505
  149SAPE   C3316479   4.037   2.792   7.091 -1.0456 -0.5079  0.6577
  149SAPE   H3X16480   3.954   2.855   7.053  0.4316  0.4826 -1.1385
  149SAPE   H3Y16481   4.124   2.850   7.128 -1.3306 -0.3945  1.1527
  149SAPE   C3416482   3.992   2.706   7.206  0.1356 -0.3858  0.2531
  149SAPE   H4X16483   4.083   2.660   7.250  0.4623 -0.4640 -0.4964
  149SAPE   H4Y16484   3.929   2.626   7.161  1.3579 -0.2771 -1.7414
  149SAPE   C3516485   3.886   2.762   7.305  0.2782 -1.1473 -0.2992
  149SAPE   H5X16486   3.843   2.677   7.360  0.0218 -0.3588  0.7527
  149SAPE   H5Y16487   3.811   2.822   7.249  1.6019  0.0364 -0.8673
  149SAPE   C3616488   3.941   2.864   7.404  0.0278 -0.4686 -0.8058
  149SAPE   H6X16489   3.994   2.942   7.345 -2.8119  2.9916  0.7990
  149SAPE   H6Y16490   4.014   2.816   7.473  1.3566  0.6776 -1.3702
  149SAPE   C3716491   3.836   2.925   7.496  0.4342 -0.5275 -0.1062
  149SAPE   H7X16492   3.753   2.955   7.429 -0.1488  2.2218  1.6692
  149SAPE   H7Y16493   3.883   3.010   7.551 -0.7088  0.3923 -0.4985
  149SAPE   C3816494   3.764   2.826   7.585 -0.0004 -1.0790 -0.8344
  149SAPE   H8X16495   3.749   2.729   7.534  1.4641 -0.0206 -3.4486
  149SAPE   H8Y16496   3.657   2.853   7.579 -0.2441 -2.0217 -0.8638
  149SAPE   C3916497   3.809   2.819   7.730  0.4735  0.3233  0.0999
  149SAPE   H9X16498   3.734   2.750   7.775  0.7830 -0.9098 -1.2278
  149SAPE   H9Y16499   3.805   2.917   7.783  0.6751 -1.5449  3.9200
  149SAPE  C31016500   3.950   2.766   7.746 -0.7502  0.1010 -0.5425
  149SAPE  H10X16501   4.018   2.853   7.733 -0.6653  0.1142 -0.0329
  149SAPE  H10Y16502   3.968   2.693   7.664  1.1703 -0.0703 -0.0151
  149SAPE  C31116503   3.963   2.702   7.886  0.4172  0.1415 -0.0217
  149SAPE  H11X16504   3.990   2.595   7.875  0.6501  0.4298 -2.9680
  149SAPE  H11Y16505   3.862   2.703   7.934  0.6598  0.3159  0.4905
  149SAPE  C31216506   4.062   2.762   7.982 -0.0382  1.0093  0.7159
  149SAPE  H12X16507   4.026   2.864   8.009 -2.1743  0.4737  0.0880
  149SAPE  H12Y16508   4.164   2.766   7.940 -0.7810 -0.8484 -1.4837
  149SAPE  C31316509   4.063   2.692   8.119  0.1935  1.0842  0.1544
  149SAPE  H13X16510   4.075   2.582   8.104  2.3239  1.4587 -1.4646
  149SAPE  H13Y16511   3.963   2.701   8.166 -0.6586 -0.8643 -1.1308
  149SAPE  C31416512   4.186   2.742   8.209  0.3806  0.2706 -0.1785
  149SAPE  H14X16513   4.171   2.846   8.243 -1.2405 -0.4436  1.4769
  149SAPE  H14Y16514   4.282   2.726   8.155  0.6209  1.3556 -0.0783
  149SAPE  C31516515   4.210   2.674   8.345 -0.1732  0.8097  0.2615
  149SAPE  H15X16516   4.296   2.723   8.396  1.5880 -1.8277  0.0424
  149SAPE  H15Y16517   4.244   2.571   8.320 -0.6332  0.3673  1.4036
  149SAPE  C31616518   4.078   2.668   8.424  0.0031 -0.2493 -0.1184
  149SAPE  H16X16519   4.013   2.593   8.374  0.1610  1.9688 -4.0306
  149SAPE  H16Y16520   4.029   2.768   8.425  0.3969  0.0056 -2.3427
  149SAPE  C31716521   4.110   2.622   8.572  0.1034  0.5838  0.1872
  149SAPE  H17X16522   4.182   2.697   8.611  4.7109 -2.3878 -1.7086
  149SAPE  H17Y16523   4.187   2.545   8.550  1.1432  1.5632  0.2906
  149SAPE  C31816524   3.984   2.579   8.657  0.3307 -0.1473  0.2732
  149SAPE  H18X16525   3.909   2.659   8.639  0.8043  0.3042  0.2764
  149SAPE  H18Y16526   4.009   2.575   8.765  2.4983 -0.9891 -0.1988
  149SAPE  H18Z16527   3.942   2.478   8.641 -0.3325  0.1197  0.2888
  150SAPE     N16528   2.553   3.931   6.434 -0.8311  0.7091 -0.0134
  150SAPE   HN116529   2.576   4.021   6.387 -0.2593 -0.5077 -2.2315
  150SAPE   HN216530   2.638   3.874   6.418  0.9271  2.7035  1.6905
  150SAPE   HN316531   2.473   3.889   6.381 -0.8646  1.8708 -0.9331
  150SAPE   C1216532   2.532   3.960   6.584  0.7642  0.8398  0.6498
  150SAPE  H12A16533   2.517   3.858   6.625 -0.2603  0.4046 -0.7261
  150SAPE  H12B16534   2.430   4.002   6.600  1.2153  1.6645  1.4772
  150SAPE   C1116535   2.644   4.031   6.650 -0.0160  0.0629 -0.2719
  150SAPE  H11A16536   2.735   3.969   6.639  0.6504  1.1468 -1.0380
  150SAPE  H11B16537   2.620   4.048   6.757 -0.9110 -0.1425 -0.4279
  150SAPE     P16538   2.575   4.296   6.601 -0.4959  0.3694 -0.2221
  150SAPE   O1316539   2.635   4.396   6.512  0.2183  0.2758 -0.0587
  150SAPE   O1416540   2.438   4.259   6.572  0.2425 -0.0883  0.5250
  150SAPE   O1216541   2.660   4.164   6.600 -1.0588 -0.3386  0.3544
  150SAPE   O1116542   2.585   4.350   6.749 -0.2836 -0.3750 -0.1868
  150SAPE    C116543   2.507   4.292   6.849  0.2917 -0.6403 -0.3692
  150SAPE    HA16544   2.480   4.185   6.840 -1.4074 -0.4779  1.8658
  150SAPE    HB16545   2.562   4.308   6.944  1.7090 -2.4778 -0.8339
  150SAPE    C216546   2.376   4.374   6.864  0.1751 -0.0478 -0.4918
  150SAPE    HS16547   2.319   4.394   6.770  2.0483  3.9648 -0.9800
  150SAPE   O2116548   2.412   4.506   6.910  0.2737  0.2870  0.6949
  150SAPE   C2116549   2.318   4.595   6.920 -0.0498  0.7094  0.3836
  150SAPE   O2216550   2.201   4.585   6.888  0.1049 -0.0427  0.4337
  150SAPE   C2216551   2.379   4.716   6.998 -0.5687 -0.5305 -0.3181
  150SAPE   H2R16552   2.481   4.689   7.032 -0.7031 -0.8062 -0.1342
  150SAPE   H2S16553   2.383   4.809   6.937  1.6751  0.2118  0.8716
  150SAPE    C316554   2.296   4.294   6.971  0.2408  0.0023 -0.5034
  150SAPE    HX16555   2.253   4.200   6.929 -0.0615 -0.6155  1.1331
  150SAPE    HY16556   2.210   4.360   6.995 -1.3648 -1.7870 -1.0750
  150SAPE   O3116557   2.371   4.253   7.088  0.3620 -0.3717  0.0588
  150SAPE   C3116558   2.374   4.336   7.191  0.0154 -0.2286  0.2207
  150SAPE   O3216559   2.307   4.437   7.206  0.4510  0.4152 -0.0895
  150SAPE   C3216560   2.459   4.286   7.300 -0.1501  0.3923 -0.2608
  150SAPE   H2X16561   2.563   4.309   7.267 -0.8005 -0.3569 -3.0710
  150SAPE   H2Y16562   2.450   4.176   7.317 -0.4088  0.5664  0.8170
  150SAPE   C2316563   2.297   4.761   7.127  0.2771 -0.1539  0.3003
  150SAPE   H3R16564   2.315   4.692   7.213 -0.4272  0.5347  1.0190
  150SAPE   H3S16565   2.189   4.753   7.104  0.9839 -1.5123 -2.9935
  150SAPE   C2416566   2.309   4.903   7.172 -0.2797 -0.5591  0.0920
  150SAPE   H4R16567   2.262   4.904   7.272 -1.5898  0.5330 -0.4978
  150SAPE   H4S16568   2.263   4.975   7.100 -0.2381 -0.0458  0.5722
  150SAPE   C2516569   2.454   4.952   7.178 -0.1389 -0.2114  0.0414
  150SAPE   H5R16570   2.491   4.980   7.078 -1.4217 -2.4296 -1.1405
  150SAPE   C2616571   2.546   4.937   7.275 -0.1886 -0.5571  0.6476
  150SAPE   H6R16572   2.638   4.992   7.252 -0.7028 -0.5254 -1.5273
  150SAPE   C2716573   2.544   4.875   7.414  0.1657 -0.5782 -0.0166
  150SAPE   H7R16574   2.448   4.888   7.469  0.2327  0.5833 -0.1478
  150SAPE   H7S16575   2.610   4.934   7.481 -2.1834  2.0496  0.1390
  150SAPE   C2816576   2.600   4.738   7.425  0.4972  0.1288  0.0354
  150SAPE   H8R16577   2.615   4.680   7.333  1.7308  2.2819 -1.1652
  150SAPE   C2916578   2.607   4.667   7.542 -0.4714 -0.0499 -0.2380
  150SAPE   H9R16579   2.645   4.564   7.543 -1.2048 -0.3493  2.0124
  150SAPE  C21016580   2.586   4.733   7.673  0.3919 -0.3056  0.6869
  150SAPE  H10R16581   2.531   4.671   7.748 -0.3852  1.5035  1.6614
  150SAPE  H10S16582   2.523   4.822   7.654 -1.0558 -1.5073 -0.4392
  150SAPE  C21116583   2.712   4.764   7.749 -0.1266 -0.1825 -0.9228
  150SAPE  H11R16584   2.803   4.707   7.724 -0.0562  1.2101 -4.2772
  150SAPE  C21216585   2.723   4.832   7.864  0.5134  0.7614 -0.3724
  150SAPE  H12R16586   2.818   4.842   7.918 -0.1595 -0.2833  1.0802
  150SAPE  C21316587   2.611   4.908   7.927 -0.2655  0.5313  0.4081
  150SAPE  H13R16588   2.534   4.933   7.851 -1.3273 -0.7078  1.0441
  150SAPE  H13S16589   2.641   5.011   7.956  0.9970  0.6027 -1.0410
  150SAPE  C21416590   2.554   4.836   8.049 -0.4838 -0.2746 -0.3848
  150SAPE  H14R16591   2.479   4.758   8.028 -0.4803  0.0570 -1.7795
  150SAPE  C21516592   2.590   4.852   8.173  0.0253 -0.2170  0.5286
  150SAPE  H15R16593   2.544   4.786   8.248  0.8728 -0.8326  0.5300
  150SAPE  C21616594   2.693   4.948   8.221 -0.2086 -0.2396 -0.3241
  150SAPE  H16R16595   2.647   5.020   8.292  1.6989 -0.4324  1.1728
  150SAPE  H16S16596   2.748   5.006   8.143  0.4766 -0.8172 -0.2798
  150SAPE  C21716597   2.801   4.877   8.307  0.5861 -0.1441  0.6627
  150SAPE  H17R16598   2.872   4.821   8.243 -1.1477 -0.9684 -0.6492
  150SAPE  H17S16599   2.742   4.796   8.355 -0.2437 -0.0185 -0.0960
  150SAPE  C21816600   2.876   4.958   8.405 -0.5191 -0.8172  0.1038
  150SAPE  H18R16601   2.923   5.047   8.358 -0.6471 -1.4122 -1.2073
  150SAPE  H18S16602   2.967   4.907   8.445 -0.6671  0.2691  1.9112
  150SAPE  C21916603   2.796   5.011   8.523  0.6531  1.0595  0.8291
  150SAPE  H19R16604   2.733   4.925   8.554 -1.0900  1.7391 -0.6314
  150SAPE  H19S16605   2.722   5.080   8.477 -2.3853 -3.2042 -1.3321
  150SAPE  C22016606   2.864   5.073   8.639  0.1721  0.0581 -0.4258
  150SAPE  H20R16607   2.803   5.084   8.732 -0.0520 -3.0243 -0.0941
  150SAPE  H20S16608   2.904   5.172   8.612  0.8364 -0.6826 -2.3448
  150SAPE  H20T16609   2.957   5.016   8.663  0.2906 -0.2255 -1.5073
  150SAPE   C3316610   2.430   4.350   7.437 -0.4211 -0.1044 -0.9106
  150SAPE   H3X16611   2.334   4.321   7.483  0.2428  2.1561  2.2123
  150SAPE   H3Y16612   2.448   4.459   7.425 -2.0884  0.1354 -1.5197
  150SAPE   C3416613   2.540   4.305   7.540  0.1121 -0.4961  0.5191
  150SAPE   H4X16614   2.632   4.361   7.512  0.2860 -0.7663  0.5427
  150SAPE   H4Y16615   2.564   4.198   7.521  2.6546  0.2720 -1.0898
  150SAPE   C3516616   2.501   4.323   7.687  0.4705  0.6968  0.0931
  150SAPE   H5X16617   2.457   4.229   7.726  2.2969 -0.8480 -1.3569
  150SAPE   H5Y16618   2.422   4.402   7.687 -0.5844 -0.2785  2.6927
  150SAPE   C3616619   2.622   4.349   7.776  0.1034  0.2353  0.2104
  150SAPE   H6X16620   2.688   4.423   7.725  0.8415 -2.0633 -2.4370
  150SAPE   H6Y16621   2.681   4.255   7.779 -0.5101 -0.1404  0.6907
  150SAPE   C3716622   2.582   4.395   7.916  0.3542 -0.1366 -0.6095
  150SAPE   H7X16623   2.501   4.330   7.958  0.9198 -0.5027 -0.0661
  150SAPE   H7Y16624   2.539   4.497   7.912  0.2853 -0.1984 -1.5672
  150SAPE   C3816625   2.711   4.398   7.999 -0.3784  0.3907 -1.1959
  150SAPE   H8X16626   2.794   4.448   7.946  0.9908 -1.7525 -1.2039
  150SAPE   H8Y16627   2.745   4.292   7.995 -2.1835 -0.2329 -0.9939
  150SAPE   C3916628   2.705   4.456   8.146 -0.2010 -0.1978 -0.5272
  150SAPE   H9X16629   2.699   4.567   8.147  0.5968 -0.1349  1.0439
  150SAPE   H9Y16630   2.804   4.428   8.187 -0.6408  0.9138  1.4223
  150SAPE  C31016631   2.582   4.419   8.233 -0.0845 -0.0317 -0.6186
  150SAPE  H10X16632   2.586   4.308   8.237  0.7245 -0.0026 -0.4314
  150SAPE  H10Y16633   2.493   4.459   8.178 -0.7963 -0.3240  0.2910
  150SAPE  C31116634   2.574   4.472   8.376 -0.5533 -0.2816 -0.0631
  150SAPE  H11X16635   2.490   4.440   8.441 -0.5168  0.4231  0.3479
  150SAPE  H11Y16636   2.555   4.580   8.359  0.8697  0.3234  1.8195
  150SAPE  C31216637   2.702   4.470   8.461 -0.4232 -0.5605  0.9334
  150SAPE  H12X16638   2.773   4.534   8.405 -1.5791 -0.4183 -0.4310
  150SAPE  H12Y16639   2.743   4.367   8.460  0.5885 -0.1710  1.4208
  150SAPE  C31316640   2.670   4.509   8.606 -0.9249 -0.8557 -0.5550
  150SAPE  H13X16641   2.745   4.469   8.678 -1.0759  1.6266  1.0755
  150SAPE  H13Y16642   2.582   4.451   8.640  0.7611 -1.5897  2.9419
  150SAPE  C31416643   2.666   4.656   8.642 -0.0010 -0.5462 -0.1999
  150SAPE  H14X16644   2.576   4.709   8.601 -0.5106  1.1616  2.8052
  150SAPE  H14Y16645   2.757   4.708   8.606 -1.3976  0.9835 -1.6995
  150SAPE  C31516646   2.664   4.683   8.790 -0.2054  0.1120 -0.0893
  150SAPE  H15X16647   2.767   4.660   8.825  0.5176  1.6107 -1.1419
  150SAPE  H15Y16648   2.597   4.619   8.851 -1.0437  1.5846  0.5870
  150SAPE  C31616649   2.634   4.827   8.824  0.4119  0.8484  0.1531
  150SAPE  H16X16650   2.527   4.853   8.805 -0.3910 -1.1702  1.5854
  150SAPE  H16Y16651   2.696   4.898   8.765  0.4140  1.0406  0.3826
  150SAPE  C31716652   2.651   4.880   8.972 -0.0227 -0.4549  0.4805
  150SAPE  H17X16653   2.597   4.812   9.041 -1.6176 -1.3472 -1.5459
  150SAPE  H17Y16654   2.608   4.982   8.988 -1.2238 -0.8369 -0.1951
  150SAPE  C31816655   2.800   4.890   9.001 -0.4028  0.2739  1.0507
  150SAPE  H18X16656   2.849   4.969   8.941 -0.7469  0.3410  0.8559
  150SAPE  H18Y16657   2.851   4.795   8.972 -0.5870  0.2538  0.7849
  150SAPE  H18Z16658   2.820   4.922   9.106  0.6970 -1.3404  1.3741
  151SAPE     N16659   4.135   1.144   6.330  0.0376 -0.4768  0.1651
  151SAPE   HN116660   4.224   1.134   6.381  0.2303  0.5881  0.0768
  151SAPE   HN216661   4.149   1.067   6.262 -0.2015  0.2818 -0.7667
  151SAPE   HN316662   4.131   1.232   6.274 -1.3600  0.4334  1.5747
  151SAPE   C1216663   4.015   1.125   6.422  0.0510 -0.3024  0.2278
  151SAPE  H12A16664   4.025   1.025   6.469 -2.9442  0.5900  3.1357
  151SAPE  H12B16665   3.928   1.122   6.352  0.9350  0.4958 -0.9648
  151SAPE   C1116666   3.995   1.239   6.519 -0.2940 -0.2798 -0.0642
  151SAPE  H11A16667   4.074   1.242   6.597 -0.5566  1.3521  0.1782
  151SAPE  H11B16668   3.905   1.220   6.581  0.0701  0.2981  0.6572
  151SAPE     P16669   3.867   1.434   6.400  0.0870 -0.2791 -0.3711
  151SAPE   O1316670   3.911   1.567   6.340  0.0304 -0.2137 -0.1289
  151SAPE   O1416671   3.786   1.347   6.313  0.5874 -0.4667  0.0316
  151SAPE   O1216672   4.000   1.360   6.440  0.0561 -0.2422 -0.5879
  151SAPE   O1116673   3.791   1.456   6.536 -0.1187  0.1382 -0.2749
  151SAPE    C116674   3.843   1.524   6.652  0.5315  0.2792 -0.5382
  151SAPE    HA16675   3.953   1.527   6.664  0.4924 -2.2262  1.2149
  151SAPE    HB16676   3.808   1.630   6.654 -2.0115 -0.3590 -3.5875
  151SAPE    C216677   3.794   1.458   6.786 -0.0441  0.2444  0.1109
  151SAPE    HS16678   3.809   1.540   6.859 -0.1118  0.1942  0.1800
  151SAPE   O2116679   3.862   1.337   6.813 -0.1723 -0.0603  0.1294
  151SAPE   C2116680   3.878   1.319   6.940  0.8183 -0.4797  0.5481
  151SAPE   O2216681   3.852   1.401   7.029 -0.2578  0.5990  0.0965
  151SAPE   C2216682   3.941   1.183   6.959 -0.2854  0.3751  0.0411
  151SAPE   H2R16683   3.905   1.115   6.878 -1.3291 -0.1434  0.9208
  151SAPE   H2S16684   4.043   1.201   6.920  0.2810  3.9527  2.6572
  151SAPE    C316685   3.639   1.434   6.782  0.1642 -0.6987  0.5691
  151SAPE    HX16686   3.621   1.354   6.706 -2.0737  1.8546 -1.8341
  151SAPE    HY16687   3.590   1.527   6.745  1.0540 -0.5194 -0.1956
  151SAPE   O3116688   3.587   1.388   6.907  0.3747 -0.5533  0.1873
  151SAPE   C3116689   3.556   1.485   6.989 -0.8690 -0.2264  0.0693
  151SAPE   O3216690   3.559   1.603   6.958 -0.0881 -0.5967 -0.2581
  151SAPE   C3216691   3.504   1.429   7.123  0.3642  0.1666 -0.0982
  151SAPE   H2X16692   3.512   1.320   7.104 -1.1572  0.4695 -2.9445
  151SAPE   H2Y16693   3.398   1.461   7.137  0.5459  1.0622 -0.6776
  151SAPE   C2316694   3.942   1.124   7.101  0.4907  0.0660 -0.1633
  151SAPE   H3R16695   3.993   1.193   7.172 -0.8107  1.6141 -0.6542
  151SAPE   H3S16696   4.005   1.034   7.117 -1.3753 -1.3646 -0.5451
  151SAPE   C2416697   3.795   1.116   7.148  0.1969 -0.0312 -0.2017
  151SAPE   H4R16698   3.764   1.032   7.083 -3.1451  0.6636  0.3429
  151SAPE   H4S16699   3.730   1.200   7.115 -0.7567  0.7486  3.2732
  151SAPE   C2516700   3.777   1.091   7.303  0.5983  0.6620  0.3226
  151SAPE   H5R16701   3.798   1.179   7.366 -0.6608  1.0132  0.2636
  151SAPE   C2616702   3.752   0.967   7.357  0.2711  0.2482  0.2256
  151SAPE   H6R16703   3.741   0.963   7.466 -0.4593 -2.6200  0.1152
  151SAPE   C2716704   3.724   0.835   7.293 -0.3868 -0.5980  0.1716
  151SAPE   H7R16705   3.789   0.761   7.343  0.0928  1.4434  2.7500
  151SAPE   H7S16706   3.750   0.838   7.185  1.3179  0.4043  0.5734
  151SAPE   C2816707   3.576   0.810   7.314  0.3953  0.0784  0.2749
  151SAPE   H8R16708   3.508   0.896   7.316 -2.3095 -1.9269  1.0771
  151SAPE   C2916709   3.536   0.688   7.356  0.4516 -0.2845 -0.5542
  151SAPE   H9R16710   3.428   0.680   7.375  0.2986  1.3694 -0.5730
  151SAPE  C21016711   3.617   0.561   7.362 -0.5384 -0.1391 -0.5192
  151SAPE  H10R16712   3.713   0.576   7.416  0.2079 -0.6610 -1.6738
  151SAPE  H10S16713   3.645   0.537   7.257  0.5568  0.1590 -0.3058
  151SAPE  C21116714   3.550   0.442   7.424  0.5562 -0.2165 -0.3456
  151SAPE  H11R16715   3.458   0.413   7.371  1.6044 -0.1734 -2.2953
  151SAPE  C21216716   3.588   0.383   7.540 -0.1657  1.1372 -0.1042
  151SAPE  H12R16717   3.515   0.314   7.586 -1.1954  1.8881 -0.5608
  151SAPE  C21316718   3.709   0.418   7.619 -0.5192 -0.0843  0.5574
  151SAPE  H13R16719   3.677   0.469   7.712  0.1109  3.7414 -1.1011
  151SAPE  H13S16720   3.771   0.499   7.576  0.0510 -0.5859  0.4198
  151SAPE  C21416721   3.796   0.295   7.646  0.1694  0.6490  0.1660
  151SAPE  H14R16722   3.814   0.239   7.553  0.0316 -1.9079  1.5887
  151SAPE  C21516723   3.849   0.258   7.762 -0.3776  0.0575  0.2135
  151SAPE  H15R16724   3.911   0.167   7.761 -0.5395 -0.0738 -1.7383
  151SAPE  C21616725   3.830   0.321   7.899  0.2847  0.4706 -0.7305
  151SAPE  H16R16726   3.820   0.432   7.897 -1.7669  0.3152 -1.1355
  151SAPE  H16S16727   3.921   0.306   7.961  0.8663 -0.5574 -1.7950
  151SAPE  C21716728   3.703   0.273   7.974 -0.1479 -0.6661  0.9343
  151SAPE  H17R16729   3.621   0.308   7.908  0.9998 -0.5276 -0.4563
  151SAPE  H17S16730   3.697   0.342   8.062 -0.5130 -1.0748  1.2329
  151SAPE  C21816731   3.705   0.125   8.014 -0.3791  0.3354  0.2129
  151SAPE  H18R16732   3.703   0.059   7.925  0.6437 -0.7362  0.9451
  151SAPE  H18S16733   3.621   0.099   8.082  0.4170 -2.2116  0.3192
  151SAPE  C21916734   3.828   0.070   8.094  0.6291  0.2461 -0.3714
  151SAPE  H19R16735   3.918   0.090   8.032 -1.1654  0.8819 -2.9063
  151SAPE  H19S16736   3.818  -0.040   8.090  1.7894  0.1144  0.0290
  151SAPE  C22016737   3.841   0.137   8.230 -0.1441 -0.2974 -0.3052
  151SAPE  H20R16738   3.939   0.110   8.275  0.0346  0.5750 -0.1692
  151SAPE  H20S16739   3.842   0.247   8.215 -1.2629 -0.1039  0.8762
  151SAPE  H20T16740   3.763   0.109   8.304  0.9375  0.0128  0.9944
  151SAPE   C3316741   3.588   1.459   7.252 -0.0146 -0.2943 -0.0818
  151SAPE   H3X16742   3.578   1.567   7.277 -0.6422 -0.1527 -0.9037
  151SAPE   H3Y16743   3.693   1.436   7.224 -0.7882 -1.5672 -2.0972
  151SAPE   C3416744   3.534   1.371   7.367 -0.5299  0.8242  0.1149
  151SAPE   H4X16745   3.517   1.273   7.318 -2.0285  0.1172  1.9716
  151SAPE   H4Y16746   3.438   1.412   7.404 -0.6166 -0.3406  1.2443
  151SAPE   C3516747   3.625   1.387   7.486 -0.4199 -0.6044  0.1244
  151SAPE   H5X16748   3.622   1.494   7.516 -0.7556  0.0275 -1.9998
  151SAPE   H5Y16749   3.731   1.366   7.461 -0.7354 -2.5991  0.2721
  151SAPE   C3616750   3.586   1.305   7.613 -0.0356 -0.4129  0.0973
  151SAPE   H6X16751   3.590   1.201   7.573  1.0679 -0.3322 -0.0388
  151SAPE   H6Y16752   3.484   1.321   7.653 -1.2147 -1.4203 -2.2483
  151SAPE   C3716753   3.679   1.333   7.732  0.2204 -0.2733 -0.0147
  151SAPE   H7X16754   3.671   1.439   7.762  1.6627  0.8441 -3.1294
  151SAPE   H7Y16755   3.783   1.322   7.695 -0.0863 -1.5472 -0.5645
  151SAPE   C3816756   3.650   1.232   7.838 -0.6037 -0.2389 -0.4413
  151SAPE   H8X16757   3.685   1.130   7.810 -1.3014 -1.2210  2.0146
  151SAPE   H8Y16758   3.542   1.231   7.862  0.2388 -1.0619  4.1874
  151SAPE   C3916759   3.723   1.249   7.973 -0.0927 -0.1192  0.2393
  151SAPE   H9X16760   3.672   1.332   8.026  2.1812 -0.2286  2.8353
  151SAPE   H9Y16761   3.827   1.289   7.970  0.0885 -0.5959  0.0206
  151SAPE  C31016762   3.729   1.124   8.054  0.2320  0.2110  0.3910
  151SAPE  H10X16763   3.794   1.045   8.011 -1.1726 -1.1461  0.6600
  151SAPE  H10Y16764   3.625   1.085   8.066  1.2471 -2.8275  0.0222
  151SAPE  C31116765   3.780   1.136   8.203 -0.0081  0.2080  0.2729
  151SAPE  H11X16766   3.887   1.161   8.183 -0.4226  1.5774 -0.3430
  151SAPE  H11Y16767   3.770   1.037   8.252 -0.1907  0.9290  1.7554
  151SAPE  C31216768   3.721   1.238   8.297  0.5511  0.0920 -0.9533
  151SAPE  H12X16769   3.618   1.209   8.326  1.2960 -0.0870  1.7519
  151SAPE  H12Y16770   3.702   1.340   8.256 -1.8408  0.8757  1.8014
  151SAPE  C31316771   3.803   1.261   8.427 -0.3729  0.3388  0.3456
  151SAPE  H13X16772   3.897   1.205   8.405 -1.3055 -1.0974 -0.1044
  151SAPE  H13Y16773   3.762   1.209   8.517 -1.6856 -0.6763 -0.7922
  151SAPE  C31416774   3.819   1.409   8.458  0.7814 -0.8200  0.2813
  151SAPE  H14X16775   3.716   1.443   8.482  1.1877  0.9974 -0.3705
  151SAPE  H14Y16776   3.845   1.467   8.367 -0.7210  1.5323  1.2592
  151SAPE  C31516777   3.924   1.446   8.564 -0.2041  0.4801  0.0186
  151SAPE  H15X16778   4.015   1.393   8.530  1.9585  1.0542  4.2636
  151SAPE  H15Y16779   3.898   1.424   8.670 -2.0282 -0.6688 -0.6074
  151SAPE  C31616780   3.948   1.598   8.569  0.9420  0.9100 -0.3975
  151SAPE  H16X16781   3.855   1.654   8.596  1.2081  0.9584  0.4377
  151SAPE  H16Y16782   3.983   1.624   8.467  1.2482 -2.8583 -1.3843
  151SAPE  C31716783   4.066   1.626   8.658  1.2671 -0.7441  0.6786
  151SAPE  H17X16784   4.160   1.570   8.637  0.7088 -1.1247 -0.9048
  151SAPE  H17Y16785   4.045   1.605   8.765  0.0739 -0.3561  0.5366
  151SAPE  C31816786   4.109   1.776   8.645  0.1391 -0.0530 -0.0453
  151SAPE  H18X16787   4.059   1.845   8.716 -0.6823 -1.1839  0.5212
  151SAPE  H18Y16788   4.096   1.812   8.541  2.6056  1.6917  0.1437
  151SAPE  H18Z16789   4.217   1.796   8.665  0.3377  2.2269 -2.8530
  152SAPE     N16790   2.028   4.610   6.046 -0.1310 -0.8136 -0.0506
  152SAPE   HN116791   2.008   4.632   6.146  2.6407  0.9007  0.2269
  152SAPE   HN216792   2.029   4.700   5.994  2.1819  0.3661  1.8174
  152SAPE   HN316793   1.958   4.540   6.014 -1.1165  0.0757  0.0754
  152SAPE   C1216794   2.171   4.561   6.047 -0.1312 -0.4982 -0.4278
  152SAPE  H12A16795   2.211   4.573   5.944  1.0708  0.8475  0.1648
  152SAPE  H12B16796   2.175   4.455   6.079 -0.5559 -0.4225 -0.1159
  152SAPE   C1116797   2.254   4.651   6.141  0.4878 -0.7973 -0.1696
  152SAPE  H11A16798   2.256   4.751   6.095 -0.8468 -1.0298 -0.7884
  152SAPE  H11B16799   2.360   4.617   6.143  0.7377 -0.0173  1.0218
  152SAPE     P16800   2.273   4.590   6.394  0.3862  0.1821 -0.0461
  152SAPE   O1316801   2.165   4.536   6.472  0.4825  0.3195 -0.3882
  152SAPE   O1416802   2.376   4.500   6.342 -0.7034 -0.0499  0.5704
  152SAPE   O1216803   2.201   4.662   6.269  0.1533 -0.2416 -0.7193
  152SAPE   O1116804   2.350   4.709   6.481 -0.0768 -0.3233  0.4757
  152SAPE    C116805   2.279   4.796   6.574 -0.6782 -0.3023 -0.1295
  152SAPE    HA16806   2.187   4.844   6.534 -0.7329 -0.4505 -0.1807
  152SAPE    HB16807   2.264   4.741   6.670  0.7263  0.3476  0.4904
  152SAPE    C216808   2.372   4.923   6.601 -0.1644 -0.3896  0.0267
  152SAPE    HS16809   2.400   4.947   6.497 -1.2434 -0.5330 -0.3081
  152SAPE   O2116810   2.477   4.886   6.689  0.0008  0.1581  0.2344
  152SAPE   C2116811   2.583   4.957   6.671 -0.3899 -0.1049  0.1601
  152SAPE   O2216812   2.592   5.044   6.584  0.2203  0.8381  0.6196
  152SAPE   C2216813   2.700   4.915   6.767 -0.0944 -0.4568  0.7482
  152SAPE   H2R16814   2.659   4.848   6.846  0.0237  0.0107  1.2095
  152SAPE   H2S16815   2.773   4.851   6.715 -0.8826 -0.1282 -0.8280
  152SAPE    C316816   2.284   5.037   6.660 -0.2875  0.0974  0.5907
  152SAPE    HX16817   2.226   5.086   6.579 -2.0410 -1.5536  0.7944
  152SAPE    HY16818   2.349   5.118   6.701 -0.8183  0.8904 -0.0953
  152SAPE   O3116819   2.199   4.997   6.766 -0.2850  0.6699 -0.0987
  152SAPE   C3116820   2.092   5.063   6.788  0.6540 -1.0094  0.9757
  152SAPE   O3216821   2.047   5.155   6.717  0.1900 -0.1211  0.2618
  152SAPE   C3216822   2.032   5.030   6.918 -0.2562 -0.0290 -0.2896
  152SAPE   H2X16823   2.105   5.049   7.000  0.5117  1.1328 -1.2141
  152SAPE   H2Y16824   2.008   4.922   6.927 -3.5073  0.7006  1.0691
  152SAPE   C2316825   2.777   5.035   6.825 -0.2068 -0.1843  0.2864
  152SAPE   H3R16826   2.837   5.080   6.742  0.9960  0.9262  1.7138
  152SAPE   H3S16827   2.854   4.999   6.895 -2.2796 -0.1217  2.7409
  152SAPE   C2416828   2.702   5.148   6.905 -0.4715  0.4637 -0.1008
  152SAPE   H4R16829   2.682   5.093   6.999 -1.0191  1.4172  0.3516
  152SAPE   H4S16830   2.600   5.167   6.865 -1.3646 -0.2029  1.7758
  152SAPE   C2516831   2.780   5.283   6.923  0.8374  0.1181 -0.6024
  152SAPE   H5R16832   2.800   5.330   6.826 -3.1884  0.8091 -1.2722
  152SAPE   C2616833   2.832   5.332   7.041 -0.3121  0.1678  0.1078
  152SAPE   H6R16834   2.887   5.427   7.041 -2.5769  1.5458  0.1362
  152SAPE   C2716835   2.820   5.271   7.176  0.2247 -0.3773 -0.1943
  152SAPE   H7R16836   2.895   5.308   7.249  1.0385 -1.8216 -0.2576
  152SAPE   H7S16837   2.843   5.163   7.179 -0.3776 -0.5031  0.1772
  152SAPE   C2816838   2.679   5.289   7.227 -0.0640 -0.4994 -0.3663
  152SAPE   H8R16839   2.598   5.278   7.153 -0.2067 -4.4094  0.1373
  152SAPE   C2916840   2.656   5.300   7.358  0.0064 -1.3651  0.3812
  152SAPE   H9R16841   2.555   5.321   7.397  0.4328  2.1959 -0.1345
  152SAPE  C21016842   2.750   5.285   7.472 -0.2713  0.3409  0.0019
  152SAPE  H10R16843   2.767   5.391   7.500 -0.7819  0.2719  0.5681
  152SAPE  H10S16844   2.848   5.245   7.438 -0.8937 -1.3469  0.0974
  152SAPE  C21116845   2.702   5.209   7.596  0.3604  0.4574 -0.1362
  152SAPE  H11R16846   2.599   5.173   7.580  0.3169  0.9732 -1.0532
  152SAPE  C21216847   2.770   5.185   7.706  0.0152 -0.1914  0.6128
  152SAPE  H12R16848   2.716   5.125   7.780  1.0672 -2.1198 -0.1110
  152SAPE  C21316849   2.901   5.226   7.748  0.1039 -0.4617 -0.4529
  152SAPE  H13R16850   2.939   5.318   7.700 -0.3663  0.6587  1.2307
  152SAPE  H13S16851   2.969   5.147   7.709 -1.5750 -1.6857 -1.0142
  152SAPE  C21416852   2.925   5.218   7.900 -0.3759  0.1528 -0.6864
  152SAPE  H14R16853   3.005   5.147   7.922  0.5357  1.5125  0.5839
  152SAPE  C21516854   2.866   5.297   7.998  0.5184  0.0634  0.0345
  152SAPE  H15R16855   2.877   5.264   8.102 -1.7135  2.1001  0.9897
  152SAPE  C21616856   2.751   5.388   7.985  0.1630 -1.0169  0.0333
  152SAPE  H16R16857   2.725   5.412   7.880 -2.7873 -1.4576  0.5670
  152SAPE  H16S16858   2.775   5.485   8.032 -2.9383 -0.2654  0.2751
  152SAPE  C21716859   2.620   5.334   8.062  0.5804  0.0483  0.5074
  152SAPE  H17R16860   2.615   5.226   8.036 -2.5806  0.3803 -0.6938
  152SAPE  H17S16861   2.535   5.389   8.016  1.8653  1.8792  0.1800
  152SAPE  C21816862   2.625   5.349   8.213 -0.0166 -0.1636 -0.2365
  152SAPE  H18R16863   2.649   5.456   8.232  0.7826 -0.0864 -1.5208
  152SAPE  H18S16864   2.710   5.291   8.255 -1.3627 -1.4626  0.7762
  152SAPE  C21916865   2.505   5.300   8.291  0.5167 -0.5563  0.0411
  152SAPE  H19R16866   2.517   5.193   8.317  2.8827  0.1038  2.0207
  152SAPE  H19S16867   2.405   5.314   8.245  1.0632  0.2437 -0.9303
  152SAPE  C22016868   2.494   5.381   8.420  0.6207 -0.4128  0.2241
  152SAPE  H20R16869   2.403   5.360   8.481  0.8609 -1.1104  0.3549
  152SAPE  H20S16870   2.485   5.485   8.383 -1.1159 -0.6183 -0.0316
  152SAPE  H20T16871   2.585   5.381   8.484 -0.3315  2.8978  1.7677
  152SAPE   C3316872   1.907   5.115   6.951 -0.1562 -0.4831  0.4216
  152SAPE   H3X16873   1.835   5.098   6.867  1.4357  0.7953 -1.2779
  152SAPE   H3Y16874   1.936   5.220   6.968  1.6475 -0.6541 -1.2739
  152SAPE   C3416875   1.825   5.067   7.077  0.3055  0.0212  0.7394
  152SAPE   H4X16876   1.827   4.956   7.080  3.1979  0.0082  1.0961
  152SAPE   H4Y16877   1.720   5.101   7.065  1.2145  2.6196 -0.5826
  152SAPE   C3516878   1.876   5.111   7.205 -0.0469  0.1393  0.0582
  152SAPE   H5X16879   1.880   5.222   7.210  1.5571  0.2001 -1.4125
  152SAPE   H5Y16880   1.979   5.070   7.216 -1.0133 -1.9126  2.3589
  152SAPE   C3616881   1.783   5.057   7.317  0.1891 -0.2820 -0.1880
  152SAPE   H6X16882   1.784   4.946   7.309  1.3692 -0.4072  1.3752
  152SAPE   H6Y16883   1.678   5.090   7.303  0.5178  0.7958 -0.1721
  152SAPE   C3716884   1.824   5.089   7.458 -0.7223  0.0921  0.7488
  152SAPE   H7X16885   1.841   5.196   7.483  2.8282 -0.3396  0.6124
  152SAPE   H7Y16886   1.921   5.043   7.485  0.7873  2.3977 -0.4201
  152SAPE   C3816887   1.724   5.039   7.565 -0.5320  0.0859 -0.2881
  152SAPE   H8X16888   1.681   4.941   7.535 -0.3275  0.6320 -2.5480
  152SAPE   H8Y16889   1.638   5.110   7.568 -1.0176 -0.4872 -0.5074
  152SAPE   C3916890   1.784   5.037   7.710 -0.0502 -0.1610  0.1861
  152SAPE   H9X16891   1.841   5.131   7.721 -1.7491  1.2658 -2.2052
  152SAPE   H9Y16892   1.855   4.953   7.727  1.1328  1.3507  3.6600
  152SAPE  C31016893   1.671   5.021   7.820 -0.4034  0.1755  0.1696
  152SAPE  H10X16894   1.619   4.926   7.798 -1.5707  0.5957  0.9973
  152SAPE  H10Y16895   1.600   5.105   7.804  0.7784  1.3537  0.8998
  152SAPE  C31116896   1.732   5.003   7.961 -0.9368  0.1815  0.4250
  152SAPE  H11X16897   1.786   5.093   7.997 -0.4715 -0.4399  1.3134
  152SAPE  H11Y16898   1.809   4.924   7.962  0.2031  1.1938 -1.2541
  152SAPE  C31216899   1.628   4.967   8.068 -0.3149 -0.8264  0.3633
  152SAPE  H12X16900   1.606   4.858   8.058  0.3114 -0.9786  0.5843
  152SAPE  H12Y16901   1.531   5.005   8.031  0.7508  1.1606 -0.5887
  152SAPE  C31316902   1.674   4.995   8.211  0.7714 -0.5432  0.2273
  152SAPE  H13X16903   1.585   5.000   8.276  1.8838  3.0642  1.7287
  152SAPE  H13Y16904   1.710   5.100   8.220  2.5127 -1.1030  0.2092
  152SAPE  C31416905   1.787   4.912   8.277  0.4114  0.3904 -0.2536
  152SAPE  H14X16906   1.876   4.910   8.211  0.8062  2.6152  0.1307
  152SAPE  H14Y16907   1.758   4.805   8.285  0.2227  0.5439  1.4481
  152SAPE  C31516908   1.824   4.943   8.430  1.6271  0.2933 -0.5343
  152SAPE  H15X16909   1.848   5.051   8.440 -1.5545  0.9472  1.3311
  152SAPE  H15Y16910   1.901   4.873   8.468 -1.5987 -2.8314  0.7821
  152SAPE  C31616911   1.694   4.924   8.520  0.0803 -0.1561 -0.2321
  152SAPE  H16X16912   1.641   4.828   8.504 -1.7302  0.6610  0.4766
  152SAPE  H16Y16913   1.619   4.994   8.476  0.6835 -0.5278 -1.9279
  152SAPE  C31716914   1.716   4.947   8.673  0.1372 -0.6692 -0.2442
  152SAPE  H17X16915   1.770   5.044   8.687  0.7827 -1.2329  1.3995
  152SAPE  H17Y16916   1.771   4.858   8.712  2.5563  0.5370 -0.6842
  152SAPE  C31816917   1.588   4.947   8.757  0.8749 -0.3884 -0.3212
  152SAPE  H18X16918   1.534   4.850   8.759  0.0381  0.0685  1.0215
  152SAPE  H18Y16919   1.514   5.016   8.712 -4.0832 -3.2611  2.5207
  152SAPE  H18Z16920   1.612   4.983   8.860  1.4600 -1.7482  0.0446
  153SAPE     N16921   6.445   5.253   6.174 -0.0286  0.5435 -0.2402
  153SAPE   HN116922   6.421   5.157   6.141 -1.1723 -0.3463  2.8331
  153SAPE   HN216923   6.513   5.296   6.109  1.4417 -1.5241 -0.1843
  153SAPE   HN316924   6.500   5.235   6.261 -0.7650  0.6461  0.2582
  153SAPE   C1216925   6.325   5.340   6.205  1.0153 -0.3404 -0.3592
  153SAPE  H12A16926   6.246   5.271   6.244  0.5320  0.6192  0.4013
  153SAPE  H12B16927   6.289   5.391   6.113 -1.8238 -0.4935  0.5549
  153SAPE   C1116928   6.369   5.445   6.312 -0.5594  0.8980  0.1393
  153SAPE  H11A16929   6.279   5.508   6.320 -1.0613  0.6011 -2.3357
  153SAPE  H11B16930   6.457   5.503   6.276 -1.2222  2.8901  1.5509
  153SAPE     P16931   6.477   5.430   6.553 -0.0502 -0.0329  0.0926
  153SAPE   O1316932   6.545   5.313   6.616 -0.4704 -1.0470  0.1256
  153SAPE   O1416933   6.566   5.535   6.503  0.6304  0.3718 -0.3903
  153SAPE   O1216934   6.394   5.365   6.432  0.3615 -0.2142 -0.1186
  153SAPE   O1116935   6.378   5.505   6.652 -0.0858  0.0744 -0.1382
  153SAPE    C116936   6.321   5.436   6.769  0.0500 -0.1245  0.2734
  153SAPE    HA16937   6.323   5.325   6.762  0.3008 -0.1769  1.0675
  153SAPE    HB16938   6.385   5.451   6.859  0.9543  1.3653 -0.5717
  153SAPE    C216939   6.175   5.480   6.802 -0.7208 -0.6777  0.9876
  153SAPE    HS16940   6.138   5.486   6.698  2.7547 -2.2196 -0.5110
  153SAPE   O2116941   6.175   5.608   6.864 -0.0125 -0.1829  0.0276
  153SAPE   C2116942   6.059   5.672   6.869  0.4147 -0.2404 -0.6590
  153SAPE   O2216943   5.952   5.632   6.832 -0.6636  0.2107 -0.8915
  153SAPE   C2216944   6.097   5.806   6.933 -0.5937 -0.6039 -0.0407
  153SAPE   H2R16945   6.150   5.777   7.026 -3.4035  1.1234  2.2574
  153SAPE   H2S16946   6.153   5.867   6.860 -1.8141 -0.1109 -0.6011
  153SAPE    C316947   6.110   5.371   6.874  0.3753 -0.2657  0.1251
  153SAPE    HX16948   6.092   5.287   6.804  0.4684 -1.6174  1.6790
  153SAPE    HY16949   6.009   5.410   6.899  0.0641 -0.8880 -0.1589
  153SAPE   O3116950   6.188   5.328   6.985 -0.7303  0.1175  0.2824
  153SAPE   C3116951   6.161   5.395   7.098  0.0714 -1.0312 -0.0916
  153SAPE   O3216952   6.075   5.477   7.112  0.3313 -0.4862  0.4905
  153SAPE   C3216953   6.271   5.368   7.209 -0.2505 -0.6642 -0.0176
  153SAPE   H2X16954   6.366   5.405   7.167 -0.4455  1.5486  1.3758
  153SAPE   H2Y16955   6.282   5.259   7.230  2.3102 -0.2774  0.9519
  153SAPE   C2316956   5.972   5.883   6.990 -0.3690 -0.1805  0.1181
  153SAPE   H3R16957   5.992   5.964   7.063  1.0279 -0.2256 -0.1801
  153SAPE   H3S16958   5.908   5.809   7.043 -0.5469 -1.1385 -1.3692
  153SAPE   C2416959   5.886   5.948   6.880  0.3950 -0.2299  0.4053
  153SAPE   H4R16960   5.815   6.006   6.943  0.8487 -3.3730  4.1848
  153SAPE   H4S16961   5.814   5.876   6.836  2.1212 -1.8092  0.0363
  153SAPE   C2516962   5.961   6.034   6.781 -0.5946 -0.7162 -0.0329
  153SAPE   H5R16963   6.006   5.977   6.699  2.7771  1.7265 -0.0637
  153SAPE   C2616964   5.978   6.164   6.799  0.1190 -0.2308  0.1889
  153SAPE   H6R16965   6.021   6.228   6.721 -2.7197  1.8073  0.1317
  153SAPE   C2716966   5.927   6.239   6.919  0.7944 -0.8819  0.6742
  153SAPE   H7R16967   5.964   6.194   7.014 -0.3152 -2.0814  0.5783
  153SAPE   H7S16968   5.816   6.240   6.907  0.8502  3.1213 -1.1109
  153SAPE   C2816969   5.972   6.385   6.918  0.4173  0.7297  0.1494
  153SAPE   H8R16970   6.042   6.416   6.838 -0.0883  1.0601 -0.1712
  153SAPE   C2916971   5.923   6.465   7.012  0.5233  0.0775  0.6628
  153SAPE   H9R16972   5.969   6.565   7.012 -0.6799  0.6436  0.5637
  153SAPE  C21016973   5.823   6.423   7.118 -0.6790  0.3654 -0.8027
  153SAPE  H10R16974   5.858   6.330   7.167 -0.2307  0.6495 -0.5739
  153SAPE  H10S16975   5.724   6.403   7.073  0.0442  0.6154 -2.5897
  153SAPE  C21116976   5.811   6.525   7.228 -0.7233 -1.0677  1.2959
  153SAPE  H11R16977   5.749   6.608   7.191  1.3031 -0.3845 -0.7761
  153SAPE  C21216978   5.868   6.531   7.347  0.4891  0.6641 -0.6676
  153SAPE  H12R16979   5.828   6.604   7.419 -0.1186 -2.0983  1.9784
  153SAPE  C21316980   5.963   6.442   7.419 -0.6065  0.0498 -0.7706
  153SAPE  H13R16981   5.997   6.351   7.363 -0.1403 -3.1611  4.1366
  153SAPE  H13S16982   5.914   6.383   7.499  0.6398 -0.8059 -0.5945
  153SAPE  C21416983   6.090   6.515   7.455  0.1557  0.7682  0.0120
  153SAPE  H14R16984   6.164   6.524   7.375  1.1641  0.0532  0.8222
  153SAPE  C21516985   6.122   6.560   7.580 -0.4396  0.9583  0.2085
  153SAPE  H15R16986   6.218   6.606   7.607  0.9842 -1.7288  0.0642
  153SAPE  C21616987   6.035   6.543   7.705  0.1564  0.3305 -0.7559
  153SAPE  H16R16988   6.085   6.475   7.778 -0.1904 -2.4192 -2.9077
  153SAPE  H16S16989   5.939   6.494   7.676  0.3968 -1.5705  1.3797
  153SAPE  C21716990   6.009   6.674   7.773 -0.0212 -0.8143  0.0758
  153SAPE  H17R16991   5.907   6.671   7.818  0.3097 -0.4572  0.8671
  153SAPE  H17S16992   6.012   6.760   7.703 -0.3338 -0.2218  0.7758
  153SAPE  C21816993   6.103   6.702   7.897  0.1689 -0.4133  0.1634
  153SAPE  H18R16994   6.208   6.695   7.862 -0.0511 -1.1927 -0.3573
  153SAPE  H18S16995   6.076   6.623   7.971  0.3446 -0.7290 -0.1119
  153SAPE  C21916996   6.079   6.840   7.964 -0.7362  0.0285  0.0421
  153SAPE  H19R16997   5.968   6.844   7.971 -0.7193  1.1403 -0.1196
  153SAPE  H19S16998   6.105   6.918   7.889 -1.8847 -1.6748 -2.2291
  153SAPE  C22016999   6.163   6.867   8.089 -0.0067  0.6117 -0.3221
  153SAPE  H20R17000   6.270   6.870   8.060  0.4141  0.6531  1.1446
  153SAPE  H20S17001   6.148   6.786   8.163  0.0626  1.6499  0.8622
  153SAPE  H20T17002   6.142   6.967   8.133  0.8443  0.7295 -0.1704
  153SAPE   C3317003   6.215   5.425   7.340 -0.1252  0.6429 -0.5051
  153SAPE   H3X17004   6.115   5.382   7.365  0.2005  0.3866  0.3930
  153SAPE   H3Y17005   6.203   5.535   7.342  0.2230  0.7511 -2.3993
  153SAPE   C3417006   6.303   5.374   7.463  0.3352 -0.5735 -0.2382
  153SAPE   H4X17007   6.396   5.433   7.446  0.2097 -0.5279 -0.7854
  153SAPE   H4Y17008   6.305   5.266   7.437  2.1130 -0.6824  0.2442
  153SAPE   C3517009   6.242   5.414   7.593  0.4375 -0.0370  0.0773
  153SAPE   H5X17010   6.153   5.347   7.596  0.3365  0.1177  1.4226
  153SAPE   H5Y17011   6.215   5.521   7.604  1.2092  0.0503  1.3361
  153SAPE   C3617012   6.321   5.383   7.722 -0.5761  0.1826 -0.1869
  153SAPE   H6X17013   6.416   5.442   7.715 -0.8503  0.5770 -0.7037
  153SAPE   H6Y17014   6.343   5.274   7.719  0.8516  0.4426 -2.8596
  153SAPE   C3717015   6.236   5.410   7.843  0.6408  0.3900 -0.9910
  153SAPE   H7X17016   6.140   5.355   7.833  0.6084 -0.1659  1.6958
  153SAPE   H7Y17017   6.204   5.516   7.839 -0.5674  0.2266  2.0072
  153SAPE   C3817018   6.293   5.380   7.979 -0.1596 -0.8494 -0.0725
  153SAPE   H8X17019   6.340   5.279   7.967 -0.5102 -1.1590  1.0631
  153SAPE   H8Y17020   6.208   5.364   8.048 -1.2575  0.0296 -1.1915
  153SAPE   C3917021   6.391   5.489   8.026  0.3727  0.0806 -0.7365
  153SAPE   H9X17022   6.328   5.581   8.033  1.5945  0.8640  0.6717
  153SAPE   H9Y17023   6.459   5.512   7.941 -0.9177  0.5259 -1.6693
  153SAPE  C31017024   6.449   5.448   8.157  0.6608 -0.5759 -0.1715
  153SAPE  H10X17025   6.522   5.525   8.187  0.6600 -0.3708 -0.6995
  153SAPE  H10Y17026   6.498   5.348   8.158  1.6077 -0.1665  2.6928
  153SAPE  C31117027   6.348   5.451   8.276 -0.4882 -0.1768  0.0709
  153SAPE  H11X17028   6.284   5.361   8.283 -0.6818 -0.2050 -1.6792
  153SAPE  H11Y17029   6.284   5.538   8.248  0.6663  0.0118 -2.2513
  153SAPE  C31217030   6.421   5.482   8.411 -0.2561  1.3245 -0.0000
  153SAPE  H12X17031   6.344   5.489   8.491  1.3929  1.7732  1.6203
  153SAPE  H12Y17032   6.480   5.575   8.412 -1.0302  1.8309  1.1385
  153SAPE  C31317033   6.514   5.366   8.449 -0.2405 -0.5304  1.0464
  153SAPE  H13X17034   6.584   5.358   8.364 -1.3791 -0.0942  0.0374
  153SAPE  H13Y17035   6.458   5.270   8.458  1.3592 -1.4045  2.1404
  153SAPE  C31417036   6.592   5.390   8.578  0.3509 -0.4458  0.5588
  153SAPE  H14X17037   6.534   5.404   8.672  1.5121 -0.5675  1.3113
  153SAPE  H14Y17038   6.647   5.484   8.557 -1.8353  0.7747 -0.0424
  153SAPE  C31517039   6.684   5.276   8.605  0.4944  0.3362 -0.2255
  153SAPE  H15X17040   6.738   5.248   8.512  0.8080 -0.4389  0.1803
  153SAPE  H15Y17041   6.632   5.180   8.625  0.7019  0.0346 -1.0990
  153SAPE  C31617042   6.767   5.314   8.725 -0.6204  0.3252  0.0867
  153SAPE  H16X17043   6.784   5.221   8.783 -1.5906 -0.9809 -1.6464
  153SAPE  H16Y17044   6.711   5.383   8.792  1.0977  0.6309  1.2700
  153SAPE  C31717045   6.898   5.384   8.695  0.4494 -0.2375  0.6280
  153SAPE  H17X17046   6.918   5.454   8.779  0.5464 -0.3831  0.7278
  153SAPE  H17Y17047   6.882   5.453   8.610 -0.5085  2.2800  2.7299
  153SAPE  C31817048   7.017   5.280   8.686  0.4089 -0.2767  0.0825
  153SAPE  H18X17049   7.013   5.208   8.770 -0.3082  0.9327  1.1230
  153SAPE  H18Y17050   7.112   5.338   8.687  0.1144  0.2315 -0.3238
  153SAPE  H18Z17051   7.022   5.226   8.589  2.1835 -1.1429  0.6223
  154SAPE     N17052   4.774   3.862   6.406  0.3232 -0.0386 -0.1063
  154SAPE   HN117053   4.762   3.759   6.403  0.6506 -0.2724  3.0110
  154SAPE   HN217054   4.875   3.886   6.412  1.5929 -3.1116 -4.4154
  154SAPE   HN317055   4.721   3.897   6.488 -0.1331 -1.4848  0.2371
  154SAPE   C1217056   4.717   3.936   6.286 -0.1296 -0.1088  0.1071
  154SAPE  H12A17057   4.744   3.875   6.196  0.8775  0.2790  0.1391
  154SAPE  H12B17058   4.774   4.031   6.283  0.5824 -0.4943  1.0088
  154SAPE   C1117059   4.568   3.962   6.285  0.2852 -0.7072 -0.5599
  154SAPE  H11A17060   4.540   4.018   6.193 -0.3108 -0.1263 -0.0367
  154SAPE  H11B17061   4.545   4.029   6.371 -1.5072  0.7437 -2.0736
  154SAPE     P17062   4.346   3.836   6.298 -0.0546  0.2762  0.4453
  154SAPE   O1317063   4.295   3.884   6.169 -0.2150  0.4192 -0.1654
  154SAPE   O1417064   4.297   3.701   6.336 -0.5307 -0.0682  0.2955
  154SAPE   O1217065   4.501   3.835   6.294 -0.2360  0.0383  0.0656
  154SAPE   O1117066   4.313   3.933   6.420  0.4380 -0.1076 -0.0944
  154SAPE    C117067   4.351   3.914   6.552  0.2213  0.0521  0.6442
  154SAPE    HA17068   4.395   3.813   6.552 -1.1202 -0.6189 -2.0693
  154SAPE    HB17069   4.421   3.995   6.581  0.5871 -0.1126  0.2128
  154SAPE    C217070   4.230   3.913   6.644 -0.6537  0.3798 -0.5387
  154SAPE    HS17071   4.146   3.867   6.587 -1.1875  0.3739  0.2469
  154SAPE   O2117072   4.195   4.045   6.688 -0.4617 -0.3148 -0.2923
  154SAPE   C2117073   4.070   4.063   6.726 -0.1229 -0.1477 -0.0941
  154SAPE   O2217074   3.979   3.978   6.721 -0.4031 -0.1443 -0.8620
  154SAPE   C2217075   4.054   4.200   6.797 -0.3438 -0.5859  0.3472
  154SAPE   H2R17076   4.140   4.266   6.772 -1.4285  0.8292  0.1683
  154SAPE   H2S17077   3.960   4.242   6.756 -0.0753 -1.3693 -1.1358
  154SAPE    C317078   4.260   3.819   6.765 -0.8304  0.0217 -0.1889
  154SAPE    HX17079   4.332   3.877   6.828 -0.5718  1.7502 -1.9551
  154SAPE    HY17080   4.325   3.734   6.735  0.2493  0.6355  0.3351
  154SAPE   O3117081   4.145   3.782   6.846 -1.2934  0.0644 -0.1250
  154SAPE   C3117082   4.077   3.682   6.789 -0.6992 -0.1848  0.6616
  154SAPE   O3217083   4.106   3.628   6.680  0.3138  0.2031 -0.2160
  154SAPE   C3217084   3.975   3.642   6.891  0.0989  0.4452  0.1758
  154SAPE   H2X17085   3.949   3.537   6.863 -0.0722 -0.3452  2.9643
  154SAPE   H2Y17086   3.887   3.709   6.887  2.3673  3.6023 -1.8816
  154SAPE   C2317087   4.028   4.191   6.949  0.0422 -0.1211 -0.2938
  154SAPE   H3R17088   3.960   4.107   6.976  0.7320  0.1506  2.6931
  154SAPE   H3S17089   3.980   4.288   6.975  1.5452  0.5516  0.0970
  154SAPE   C2417090   4.163   4.180   7.033  0.3135  0.5833 -0.1363
  154SAPE   H4R17091   4.152   4.248   7.120 -2.4663 -0.2972  0.3380
  154SAPE   H4S17092   4.250   4.219   6.977 -0.3114  1.1556 -0.7375
  154SAPE   C2517093   4.191   4.037   7.061 -0.1884 -0.1679 -0.6485
  154SAPE   H5R17094   4.201   3.983   6.966  0.9555 -0.0635 -0.6034
  154SAPE   C2617095   4.213   3.982   7.179  0.2511 -0.1844 -0.4411
  154SAPE   H6R17096   4.224   3.873   7.177 -3.4738 -0.6848 -2.5700
  154SAPE   C2717097   4.203   4.037   7.316  1.2584 -1.1125 -0.4343
  154SAPE   H7R17098   4.236   4.143   7.319 -0.7021 -0.4620 -0.3223
  154SAPE   H7S17099   4.283   3.987   7.376  0.6328 -0.2240  1.2258
  154SAPE   C2817100   4.062   4.042   7.377  0.1316 -0.4320 -0.7214
  154SAPE   H8R17101   3.979   4.019   7.309 -0.5159 -0.6617  0.1225
  154SAPE   C2917102   4.027   4.062   7.511 -0.1374  0.4521 -0.0749
  154SAPE   H9R17103   3.919   4.061   7.532 -0.0328 -3.7890  1.1454
  154SAPE  C21017104   4.122   4.074   7.633  0.0090 -0.0748  0.3746
  154SAPE  H10R17105   4.098   4.158   7.702 -0.2919  0.1199  0.0360
  154SAPE  H10S17106   4.218   4.119   7.598 -1.5861  1.7352 -2.0120
  154SAPE  C21117107   4.137   3.933   7.703  0.0905 -0.2422  0.0775
  154SAPE  H11R17108   4.159   3.851   7.634 -3.0934  0.9242 -2.6086
  154SAPE  C21217109   4.133   3.910   7.835 -0.9022 -0.2694  0.8264
  154SAPE  H12R17110   4.162   3.808   7.865  0.6929 -0.0677  0.0687
  154SAPE  C21317111   4.106   4.004   7.950 -1.3483 -0.3510 -0.2758
  154SAPE  H13R17112   4.116   4.112   7.925 -2.3718 -0.0161  0.6697
  154SAPE  H13S17113   4.179   3.982   8.031 -1.1235 -0.1874 -0.4302
  154SAPE  C21417114   3.968   3.988   7.997  0.3816  0.4301 -1.4901
  154SAPE  H14R17115   3.889   3.979   7.921 -1.7227  0.4990  0.5583
  154SAPE  C21517116   3.919   3.988   8.129 -0.4443 -0.0829 -0.2398
  154SAPE  H15R17117   3.812   3.980   8.149 -0.4529  1.7559  0.6342
  154SAPE  C21617118   4.021   4.003   8.245  1.0255  0.3034  0.3531
  154SAPE  H16R17119   4.108   3.936   8.223 -0.4728 -1.3960 -0.7314
  154SAPE  H16S17120   3.989   3.981   8.348  2.2604 -1.0874  0.4817
  154SAPE  C21717121   4.090   4.136   8.266 -0.1165 -0.4665 -0.2090
  154SAPE  H17R17122   4.158   4.165   8.183 -1.4656  2.5474 -0.4003
  154SAPE  H17S17123   4.162   4.130   8.350  2.0909  2.7863 -1.6376
  154SAPE  C21817124   3.988   4.248   8.296  0.7294 -0.9948 -0.2803
  154SAPE  H18R17125   3.895   4.236   8.236  0.9306 -1.7561 -0.4519
  154SAPE  H18S17126   4.029   4.344   8.259  1.2328 -0.7733  0.8198
  154SAPE  C21917127   3.966   4.250   8.446 -0.1346  0.5167  0.3640
  154SAPE  H19R17128   4.055   4.281   8.503 -0.2620  2.8802 -0.6227
  154SAPE  H19S17129   3.921   4.151   8.471  0.6065  0.5906  2.1612
  154SAPE  C22017130   3.863   4.351   8.482 -0.4797  0.3358 -0.0721
  154SAPE  H20R17131   3.834   4.343   8.589 -1.8845  3.7554 -0.0703
  154SAPE  H20S17132   3.767   4.342   8.427 -1.4704  0.4930  1.5704
  154SAPE  H20T17133   3.910   4.452   8.473 -0.4007  0.6914  3.3065
  154SAPE   C3317134   4.020   3.638   7.044  0.3687 -0.5267 -0.3333
  154SAPE   H3X17135   4.058   3.735   7.081  2.4286 -1.2310 -0.4879
  154SAPE   H3Y17136   4.106   3.569   7.050 -0.2816 -1.2931  0.6244
  154SAPE   C3417137   3.902   3.614   7.139 -0.5749  0.7428  0.0419
  154SAPE   H4X17138   3.863   3.512   7.122 -0.7076  0.3877  2.1333
  154SAPE   H4Y17139   3.829   3.694   7.113 -2.4465 -1.4189 -1.7939
  154SAPE   C3517140   3.935   3.630   7.288  1.0527 -0.0946  0.2951
  154SAPE   H5X17141   3.839   3.600   7.336  0.2488 -0.3283 -1.4197
  154SAPE   H5Y17142   3.961   3.734   7.317  1.2308 -0.5879  2.0647
  154SAPE   C3617143   4.036   3.521   7.340  0.0745 -0.1033 -0.6814
  154SAPE   H6X17144   4.129   3.505   7.281  0.0214 -1.1442 -0.5007
  154SAPE   H6Y17145   3.984   3.424   7.356  1.2889 -0.4305  1.8282
  154SAPE   C3717146   4.086   3.560   7.478  0.4439  0.3896  0.1374
  154SAPE   H7X17147   4.134   3.661   7.473  0.3498  0.3837 -1.2962
  154SAPE   H7Y17148   4.170   3.489   7.495  1.5816  1.8029  0.6658
  154SAPE   C3817149   3.987   3.548   7.598 -0.1267  0.1456 -0.9791
  154SAPE   H8X17150   3.923   3.459   7.581 -2.9977  2.1226 -1.2962
  154SAPE   H8Y17151   3.923   3.638   7.587  0.1624  0.1532 -2.9422
  154SAPE   C3917152   4.061   3.538   7.734 -0.2849 -0.1073 -0.1073
  154SAPE   H9X17153   4.111   3.637   7.747  1.8267 -0.9545 -1.3140
  154SAPE   H9Y17154   4.142   3.463   7.731 -0.9808 -0.8558 -2.7461
  154SAPE  C31017155   3.984   3.533   7.866 -0.0272  0.5409 -0.1482
  154SAPE  H10X17156   3.931   3.440   7.893  0.0285  0.6876  0.4771
  154SAPE  H10Y17157   3.904   3.610   7.864  0.4831  1.0657 -0.9046
  154SAPE  C31117158   4.063   3.549   7.996  0.3784  0.1923  0.1068
  154SAPE  H11X17159   4.118   3.645   8.004 -0.3417  0.5630  0.8194
  154SAPE  H11Y17160   4.134   3.467   8.020 -0.7553 -0.2895  1.9912
  154SAPE  C31217161   3.969   3.548   8.114 -1.1547 -0.2038  0.9178
  154SAPE  H12X17162   3.920   3.449   8.120  0.8916 -1.2165  1.9392
  154SAPE  H12Y17163   3.894   3.630   8.105 -1.6047 -0.7733 -0.9840
  154SAPE  C31317164   4.046   3.556   8.249 -0.2250  0.6771 -0.8126
  154SAPE  H13X17165   4.108   3.647   8.262 -0.3174  0.4803  1.5035
  154SAPE  H13Y17166   4.124   3.477   8.258  0.4127  1.4274  0.7143
  154SAPE  C31417167   3.951   3.538   8.367  0.3769 -0.7414  0.5779
  154SAPE  H14X17168   3.931   3.429   8.381  0.8784 -1.1990 -1.8140
  154SAPE  H14Y17169   3.855   3.585   8.336  1.8765  2.3422  0.3220
  154SAPE  C31517170   3.988   3.598   8.498  0.1062 -0.0990  0.0944
  154SAPE  H15X17171   3.987   3.709   8.503 -1.3625 -0.1461  2.0360
  154SAPE  H15Y17172   4.090   3.558   8.508 -0.3659 -1.2941  0.2664
  154SAPE  C31617173   3.901   3.539   8.612 -0.0358 -0.2357  0.1684
  154SAPE  H16X17174   3.939   3.586   8.705 -1.6228 -0.8412  1.1742
  154SAPE  H16Y17175   3.923   3.431   8.624  0.0859 -0.1969  0.2982
  154SAPE  C31717176   3.753   3.574   8.593  0.5592 -0.2530  0.2041
  154SAPE  H17X17177   3.719   3.556   8.489 -2.7708 -2.2765  1.4662
  154SAPE  H17Y17178   3.746   3.684   8.609 -1.6006 -0.1187 -1.3017
  154SAPE  C31817179   3.663   3.502   8.694  0.9425  0.1680  0.4233
  154SAPE  H18X17180   3.674   3.538   8.799 -1.4405 -0.5260  0.9773
  154SAPE  H18Y17181   3.678   3.392   8.702 -0.5267  0.0343  1.9436
  154SAPE  H18Z17182   3.559   3.522   8.661  2.1478  1.3938 -3.0489
  155SAPE     N17183   3.092   5.607   6.651 -0.0473 -0.1473  0.2977
  155SAPE   HN117184   3.042   5.624   6.562 -1.0983 -1.3534  0.6320
  155SAPE   HN217185   3.058   5.681   6.717  0.4502 -0.0804  0.4880
  155SAPE   HN317186   3.194   5.617   6.633 -0.4641  0.7308 -1.8566
  155SAPE   C1217187   3.037   5.478   6.705  0.0949 -0.0907  0.3195
  155SAPE  H12A17188   2.932   5.488   6.741  0.4006 -1.1429  1.5949
  155SAPE  H12B17189   3.100   5.451   6.793  0.5296  1.6136  0.5736
  155SAPE   C1117190   3.039   5.371   6.593 -0.2572  0.4878  0.6072
  155SAPE  H11A17191   2.977   5.407   6.509  0.0661  0.8344  0.5184
  155SAPE  H11B17192   2.996   5.276   6.634  0.8608 -0.3963 -0.2052
  155SAPE     P17193   3.207   5.312   6.400  0.2155  0.0573  0.2536
  155SAPE   O1317194   3.079   5.257   6.347  0.0860  0.6482 -0.5070
  155SAPE   O1417195   3.255   5.436   6.339 -0.6019  0.0368 -0.2073
  155SAPE   O1217196   3.177   5.350   6.545 -0.6499 -0.0878 -0.2290
  155SAPE   O1117197   3.322   5.204   6.406  0.1223 -0.6529 -0.3271
  155SAPE    C117198   3.288   5.069   6.450 -0.2215 -0.7591  0.0341
  155SAPE    HA17199   3.183   5.055   6.486  1.0473 -3.3360  3.2620
  155SAPE    HB17200   3.306   4.997   6.368 -0.2073 -1.4658  0.6417
  155SAPE    C217201   3.382   5.024   6.564 -0.8033 -0.2629 -0.2420
  155SAPE    HS17202   3.350   4.924   6.602  0.8869 -1.2963 -1.3810
  155SAPE   O2117203   3.383   5.117   6.670  0.2134  0.2052  0.0711
  155SAPE   C2117204   3.277   5.129   6.754 -0.0713 -0.2836  0.5024
  155SAPE   O2217205   3.173   5.066   6.749 -0.9390 -0.2434  0.4419
  155SAPE   C2217206   3.313   5.250   6.844  0.6847 -0.0885 -0.1037
  155SAPE   H2R17207   3.418   5.235   6.877  0.2181 -0.4004  1.2976
  155SAPE   H2S17208   3.303   5.339   6.778 -4.2781  0.0857  0.4980
  155SAPE    C317209   3.532   5.014   6.512 -0.0696 -0.4683  0.2238
  155SAPE    HX17210   3.567   5.115   6.484  0.0711 -0.7719 -0.7348
  155SAPE    HY17211   3.513   4.954   6.420 -0.1253 -1.6354  0.9800
  155SAPE   O3117212   3.630   4.948   6.593  0.1149  0.2455  0.3824
  155SAPE   C3117213   3.732   5.015   6.649  0.4644  0.3691 -0.1091
  155SAPE   O3217214   3.751   5.131   6.631  0.3040  0.3497 -0.0655
  155SAPE   C3217215   3.818   4.928   6.754  0.9996 -0.1776  0.2142
  155SAPE   H2X17216   3.852   4.835   6.702 -1.5407 -1.1936  0.2094
  155SAPE   H2Y17217   3.733   4.890   6.817 -0.4477 -0.9467 -2.0827
  155SAPE   C2317218   3.223   5.274   6.957  0.3238 -0.2649  0.1537
  155SAPE   H3R17219   3.116   5.272   6.927  1.4705 -1.7344 -4.8772
  155SAPE   H3S17220   3.246   5.374   7.000  0.0055 -0.9963  2.1451
  155SAPE   C2417221   3.223   5.164   7.071 -0.3488  0.1451 -0.0049
  155SAPE   H4R17222   3.331   5.148   7.095 -0.0700 -0.4380 -1.5482
  155SAPE   H4S17223   3.179   5.071   7.030  1.0478 -1.3158  1.6359
  155SAPE   C2517224   3.142   5.191   7.190 -0.4720  0.4186 -0.4635
  155SAPE   H5R17225   3.046   5.137   7.195 -0.3260  0.2239  0.3880
  155SAPE   C2617226   3.169   5.263   7.300  0.3324 -0.0376 -0.5346
  155SAPE   H6R17227   3.093   5.274   7.379 -0.2593  0.8224 -1.1975
  155SAPE   C2717228   3.299   5.333   7.326  0.1347  0.0170  0.5449
  155SAPE   H7R17229   3.280   5.422   7.390 -0.5242 -0.9725  1.7548
  155SAPE   H7S17230   3.335   5.369   7.227 -0.6024 -2.1432 -0.5792
  155SAPE   C2817231   3.407   5.247   7.392  0.6828  0.6761  0.5356
  155SAPE   H8R17232   3.471   5.199   7.317  2.2236  3.8176 -0.3657
  155SAPE   C2917233   3.430   5.234   7.528 -0.4283  0.7341 -1.1176
  155SAPE   H9R17234   3.512   5.172   7.569 -1.5184 -1.5482 -2.2234
  155SAPE  C21017235   3.352   5.298   7.648  0.2697  0.0701  0.4291
  155SAPE  H10R17236   3.253   5.335   7.613  0.9171 -0.5952 -2.3768
  155SAPE  H10S17237   3.410   5.383   7.690  1.4150  0.8671 -2.4915
  155SAPE  C21117238   3.317   5.194   7.747  0.3257  0.0161 -1.0827
  155SAPE  H11R17239   3.214   5.160   7.728  0.0387  0.6142 -0.6576
  155SAPE  C21217240   3.377   5.157   7.859  0.5095  0.3310  0.5355
  155SAPE  H12R17241   3.328   5.083   7.924  0.4335  1.3471  1.6725
  155SAPE  C21317242   3.508   5.221   7.903  0.4362 -0.2985  0.1600
  155SAPE  H13R17243   3.555   5.269   7.814  2.8790 -0.2795  1.3950
  155SAPE  H13S17244   3.572   5.148   7.956  1.1822  0.3597  0.1767
  155SAPE  C21417245   3.491   5.332   8.001 -0.1138  0.1227 -0.0497
  155SAPE  H14R17246   3.395   5.335   8.055 -1.5033 -0.7113 -2.3640
  155SAPE  C21517247   3.579   5.428   8.030 -0.2993 -0.6101  0.4614
  155SAPE  H15R17248   3.552   5.503   8.106  0.5202  0.3319 -0.1465
  155SAPE  C21617249   3.710   5.447   7.957  0.2642  0.8671 -0.1433
  155SAPE  H16R17250   3.769   5.353   7.951  1.2781  1.4880 -0.2279
  155SAPE  H16S17251   3.777   5.516   8.012  2.9989 -1.9530  0.3098
  155SAPE  C21717252   3.695   5.515   7.819  0.2046  0.0369  0.0604
  155SAPE  H17R17253   3.663   5.621   7.830  0.3301 -0.1055  2.1449
  155SAPE  H17S17254   3.612   5.467   7.762  0.3993  0.3862 -0.5343
  155SAPE  C21817255   3.831   5.506   7.738  0.4710 -0.3076 -0.3641
  155SAPE  H18R17256   3.919   5.515   7.804  0.0959 -1.6575  0.3498
  155SAPE  H18S17257   3.838   5.586   7.661 -2.7552  2.4915  1.9328
  155SAPE  C21917258   3.842   5.377   7.654  0.1387 -0.1223  0.8101
  155SAPE  H19R17259   3.783   5.391   7.560  2.7242  0.0562 -0.8935
  155SAPE  H19S17260   3.808   5.288   7.710  5.1338 -2.1065  1.1852
  155SAPE  C22017261   3.986   5.345   7.617  0.2888  0.2271  0.0559
  155SAPE  H20R17262   4.056   5.343   7.704 -0.7581  0.4380  0.9153
  155SAPE  H20S17263   4.033   5.409   7.540  2.0367 -0.1594  0.7381
  155SAPE  H20T17264   3.979   5.243   7.572 -1.7548 -0.2980  1.4256
  155SAPE   C3317265   3.909   5.014   6.844 -0.3549 -0.3798 -0.2235
  155SAPE   H3X17266   3.925   4.955   6.937  1.9844 -1.1785 -1.0454
  155SAPE   H3Y17267   3.851   5.101   6.881 -3.3090 -0.8995 -3.1383
  155SAPE   C3417268   4.042   5.062   6.778  0.2591  0.5871  0.6860
  155SAPE   H4X17269   4.035   5.127   6.688 -0.0653 -0.6924 -0.2581
  155SAPE   H4Y17270   4.091   4.967   6.747  0.8657  0.6191  1.4994
  155SAPE   C3517271   4.147   5.118   6.874  0.4136 -0.0697  0.5914
  155SAPE   H5X17272   4.132   5.064   6.970 -2.3843  1.4199  1.1067
  155SAPE   H5Y17273   4.122   5.224   6.894  1.7422  0.3971 -0.1322
  155SAPE   C3617274   4.288   5.101   6.831 -0.1577  0.3274  0.2589
  155SAPE   H6X17275   4.291   5.123   6.722 -0.1054 -1.1541 -0.0572
  155SAPE   H6Y17276   4.321   4.995   6.837 -3.3022 -0.6937  2.3306
  155SAPE   C3717277   4.392   5.198   6.892  0.2088  0.1997 -0.6071
  155SAPE   H7X17278   4.329   5.289   6.882 -0.9649 -0.4190  0.7804
  155SAPE   H7Y17279   4.489   5.210   6.840  0.3442 -0.2378 -0.4551
  155SAPE   C3817280   4.416   5.177   7.042 -0.0042 -0.6649  0.2955
  155SAPE   H8X17281   4.323   5.186   7.102  1.0256  2.2886  1.6127
  155SAPE   H8Y17282   4.477   5.265   7.073 -0.2729 -0.2061 -0.4606
  155SAPE   C3917283   4.498   5.060   7.069 -0.1860  0.3498 -0.0716
  155SAPE   H9X17284   4.587   5.062   7.003 -0.4867  2.8777 -0.5109
  155SAPE   H9Y17285   4.442   4.967   7.045  2.3906 -0.7358 -2.4178
  155SAPE  C31017286   4.542   5.051   7.219  1.1854  0.0149  0.0222
  155SAPE  H10X17287   4.455   5.053   7.288  1.0220 -1.7904 -0.0877
  155SAPE  H10Y17288   4.602   5.141   7.247 -0.8608  1.5257 -0.1679
  155SAPE  C31117289   4.635   4.931   7.242  0.0156  0.1822  0.6358
  155SAPE  H11X17290   4.721   4.952   7.174  0.4472  0.7885  1.3558
  155SAPE  H11Y17291   4.583   4.838   7.211  0.5119  0.5992 -1.6671
  155SAPE  C31217292   4.684   4.929   7.387 -0.2019  0.3454 -0.0798
  155SAPE  H12X17293   4.592   4.949   7.446 -0.2470  1.3666 -0.4699
  155SAPE  H12Y17294   4.748   5.014   7.419  0.3774  0.7530 -2.1653
  155SAPE  C31317295   4.747   4.796   7.434 -0.2604 -0.1165 -0.3177
  155SAPE  H13X17296   4.850   4.781   7.395 -0.3684  1.6878 -1.3992
  155SAPE  H13Y17297   4.675   4.721   7.392 -0.6734 -0.2771  0.6589
  155SAPE  C31417298   4.744   4.781   7.591 -0.3915  0.5303  0.1734
  155SAPE  H14X17299   4.803   4.867   7.629  1.7169 -0.4334 -0.7456
  155SAPE  H14Y17300   4.790   4.690   7.635 -1.6057  0.7204  1.8963
  155SAPE  C31517301   4.608   4.778   7.658 -0.2534  0.5518  0.7552
  155SAPE  H15X17302   4.547   4.734   7.576 -0.0564  0.8151  0.4630
  155SAPE  H15Y17303   4.566   4.878   7.680 -1.0530  0.3408  0.2337
  155SAPE  C31617304   4.593   4.690   7.789 -0.4846  0.1661 -0.3142
  155SAPE  H16X17305   4.663   4.604   7.778 -1.1550 -0.4413  0.0777
  155SAPE  H16Y17306   4.486   4.661   7.796 -0.6479  1.0181  1.0332
  155SAPE  C31717307   4.641   4.766   7.911 -0.1021 -0.0391 -0.1459
  155SAPE  H17X17308   4.749   4.793   7.907  0.1910 -1.2590 -1.2962
  155SAPE  H17Y17309   4.642   4.685   7.987  0.5591 -0.1615 -0.2797
  155SAPE  C31817310   4.567   4.884   7.970  0.1288  0.1665 -0.6879
  155SAPE  H18X17311   4.565   4.971   7.901  0.4777  0.5380 -0.2340
  155SAPE  H18Y17312   4.612   4.908   8.068  0.2657 -0.9434 -0.4692
  155SAPE  H18Z17313   4.459   4.862   7.983  0.4241 -0.7062  0.4691
  156SAPE     N17314   1.309   5.183   6.283 -0.7373  0.2729  0.1944
  156SAPE   HN117315   1.368   5.188   6.369  1.4219  0.2813 -1.2042
  156SAPE   HN217316   1.357   5.154   6.195 -0.1879  2.1909 -0.1836
  156SAPE   HN317317   1.285   5.283   6.274  1.1540  0.8142  0.6185
  156SAPE   C1217318   1.190   5.096   6.318  0.1868 -0.3023 -0.0608
  156SAPE  H12A17319   1.237   5.004   6.358  4.0663  2.2756  2.0127
  156SAPE  H12B17320   1.138   5.080   6.221  0.3811 -1.0059 -0.0488
  156SAPE   C1117321   1.100   5.166   6.421 -1.1647 -0.4354 -0.5669
  156SAPE  H11A17322   1.004   5.111   6.422 -1.3673 -0.1661 -2.2802
  156SAPE  H11B17323   1.071   5.258   6.365 -1.6390 -1.3296 -1.8257
  156SAPE     P17324   1.137   5.109   6.681 -0.2195 -0.1138  0.2184
  156SAPE   O1317325   1.213   4.984   6.678 -0.3292 -0.2423  0.4663
  156SAPE   O1417326   1.156   5.195   6.799  0.0442 -0.1375  0.0895
  156SAPE   O1217327   1.164   5.190   6.550  0.1232 -0.1253 -0.2611
  156SAPE   O1117328   0.989   5.079   6.669  0.0606  0.6423 -0.2382
  156SAPE    C117329   0.931   4.952   6.678  0.7086 -0.8351  0.1003
  156SAPE    HA17330   0.833   4.960   6.628  0.9493  2.9411 -0.0640
  156SAPE    HB17331   1.003   4.885   6.626  1.7057  0.9948 -0.9827
  156SAPE    C217332   0.894   4.911   6.822  0.2126  0.2243  0.0526
  156SAPE    HS17333   0.805   4.846   6.821  0.3406  0.0313 -1.7551
  156SAPE   O2117334   0.872   5.024   6.907 -0.1275 -0.0075  0.2205
  156SAPE   C2117335   0.772   5.112   6.895 -0.8189  0.7323 -0.4210
  156SAPE   O2217336   0.697   5.111   6.799 -0.0462 -0.2856 -0.4197
  156SAPE   C2217337   0.766   5.205   7.019  0.3663 -0.2448  0.6685
  156SAPE   H2R17338   0.869   5.223   7.057 -0.0093 -0.8161  2.0373
  156SAPE   H2S17339   0.721   5.299   6.981 -0.4320  0.4863  3.2059
  156SAPE    C317340   1.012   4.831   6.893 -0.5247 -0.3188  0.2263
  156SAPE    HX17341   1.102   4.896   6.894 -0.5454 -0.2903  0.2274
  156SAPE    HY17342   1.036   4.746   6.826 -1.1463 -0.8748  0.6941
  156SAPE   O3117343   0.979   4.791   7.025  0.1095  0.2581  0.0744
  156SAPE   C3117344   0.894   4.695   7.049  0.0921  0.1317  0.7991
  156SAPE   O3217345   0.835   4.635   6.956 -0.2960 -0.5869  0.1985
  156SAPE   C3217346   0.867   4.677   7.193 -1.0424 -0.1222  0.1145
  156SAPE   H2X17347   0.901   4.759   7.258 -0.7036 -2.2575  2.8020
  156SAPE   H2Y17348   0.919   4.581   7.218 -0.9016 -0.4612 -1.3739
  156SAPE   C2317349   0.680   5.129   7.118  0.2693  0.0011  0.5676
  156SAPE   H3R17350   0.606   5.063   7.068 -0.5951  1.9035 -0.7724
  156SAPE   H3S17351   0.635   5.199   7.191  0.6383 -0.4656  1.2552
  156SAPE   C2417352   0.751   5.037   7.226 -0.5003  0.0414 -1.3085
  156SAPE   H4R17353   0.778   4.937   7.184  2.9660 -0.5400  1.7605
  156SAPE   H4S17354   0.673   5.002   7.297  1.9940 -2.2034  0.5213
  156SAPE   C2517355   0.871   5.098   7.295 -0.5850  0.0672 -0.0736
  156SAPE   H5R17356   0.973   5.066   7.269 -0.9468 -2.4063  1.3093
  156SAPE   C2617357   0.861   5.180   7.397  0.4301  0.6590 -0.5698
  156SAPE   H6R17358   0.954   5.220   7.439 -1.6198  2.2603  2.9164
  156SAPE   C2717359   0.739   5.231   7.475 -0.4083  0.3927  1.1456
  156SAPE   H7R17360   0.655   5.160   7.458  0.7837 -0.9482  0.7282
  156SAPE   H7S17361   0.711   5.322   7.417  0.5941  0.8651  1.3818
  156SAPE   C2817362   0.754   5.280   7.619  0.9998  0.5184  0.7867
  156SAPE   H8R17363   0.685   5.359   7.652 -2.4452 -2.1622  0.5593
  156SAPE   C2917364   0.825   5.234   7.722  0.3374  0.2212  0.1942
  156SAPE   H9R17365   0.832   5.299   7.810  0.0608 -0.3594  0.6527
  156SAPE  C21017366   0.919   5.116   7.724  0.2489  1.0294  0.0143
  156SAPE  H10R17367   0.897   5.050   7.638  2.1153 -0.0100  0.2758
  156SAPE  H10S17368   0.907   5.052   7.815  0.4789  1.9365  0.7021
  156SAPE  C21117369   1.054   5.170   7.702 -0.1599 -0.2624  0.6093
  156SAPE  H11R17370   1.082   5.197   7.599 -1.1998  2.0999  0.8946
  156SAPE  C21217371   1.148   5.191   7.799  0.2569 -0.8664  0.6053
  156SAPE  H12R17372   1.249   5.229   7.774  0.9440 -2.0785  1.4507
  156SAPE  C21317373   1.138   5.160   7.943 -0.2460  0.0519 -0.0710
  156SAPE  H13R17374   1.227   5.117   7.993  1.4171  1.7861 -1.3709
  156SAPE  H13S17375   1.057   5.086   7.963 -2.1366  2.1482  0.5566
  156SAPE  C21417376   1.077   5.280   8.011 -0.0354 -0.2028  0.3413
  156SAPE  H14R17377   1.021   5.357   7.954  0.0165 -0.7924 -0.5182
  156SAPE  C21517378   1.068   5.284   8.143 -0.2250  0.1008 -0.5790
  156SAPE  H15R17379   1.021   5.369   8.194  1.6080 -0.2197  1.8082
  156SAPE  C21617380   1.128   5.179   8.233  0.0824  0.3147 -0.4392
  156SAPE  H16R17381   1.229   5.144   8.203 -0.5115  0.6022 -3.0810
  156SAPE  H16S17382   1.067   5.087   8.239 -4.0501  2.8965  1.8513
  156SAPE  C21717383   1.137   5.236   8.377  0.8013 -1.2875  0.3180
  156SAPE  H17R17384   1.035   5.213   8.417 -0.0448  0.1740 -0.9124
  156SAPE  H17S17385   1.151   5.346   8.385 -2.2194 -0.8084  0.2020
  156SAPE  C21817386   1.231   5.156   8.462 -0.3827 -0.2480  0.4156
  156SAPE  H18R17387   1.336   5.185   8.437 -1.4606  3.7773 -0.2130
  156SAPE  H18S17388   1.215   5.051   8.430 -3.8644 -0.3303  1.9920
  156SAPE  C21917389   1.199   5.161   8.612 -0.2640  0.3296  0.5670
  156SAPE  H19R17390   1.191   5.270   8.633  0.9618  0.2298  1.7306
  156SAPE  H19S17391   1.284   5.121   8.671 -1.8936 -0.7898  2.2594
  156SAPE  C22017392   1.076   5.081   8.673  0.1877  0.2576  0.6217
  156SAPE  H20R17393   1.071   5.100   8.782  3.1960  1.1462  0.6947
  156SAPE  H20S17394   1.080   4.971   8.656 -0.2910 -0.3602  3.8969
  156SAPE  H20T17395   0.988   5.127   8.622  0.2141 -0.5852 -0.2113
  156SAPE   C3317396   0.717   4.655   7.220  0.0899 -0.7193 -0.0751
  156SAPE   H3X17397   0.667   4.574   7.161 -0.1503 -0.8869  0.3523
  156SAPE   H3Y17398   0.667   4.754   7.215  2.0347  0.3412  0.4106
  156SAPE   C3417399   0.691   4.609   7.365  0.8639  1.2494 -0.1622
  156SAPE   H4X17400   0.718   4.501   7.376 -0.4060  0.8162 -1.0324
  156SAPE   H4Y17401   0.580   4.620   7.371  0.9560  2.2424 -0.2545
  156SAPE   C3517402   0.764   4.685   7.474  0.9672  0.5058  0.0180
  156SAPE   H5X17403   0.774   4.794   7.455 -0.4485  0.2976 -2.3604
  156SAPE   H5Y17404   0.867   4.647   7.491  0.5535 -0.1045  1.2948
  156SAPE   C3617405   0.694   4.667   7.610 -0.0798 -0.4927 -0.0795
  156SAPE   H6X17406   0.703   4.558   7.634 -0.8118 -0.8509 -1.3351
  156SAPE   H6Y17407   0.585   4.686   7.617  0.1341  0.6330  0.2618
  156SAPE   C3717408   0.771   4.753   7.715 -0.4124  0.8127  0.6553
  156SAPE   H7X17409   0.766   4.860   7.687 -0.2351  0.9289  1.0719
  156SAPE   H7Y17410   0.878   4.725   7.726 -0.6648 -0.8462 -0.6085
  156SAPE   C3817411   0.712   4.749   7.853 -0.8906 -0.2059 -0.5222
  156SAPE   H8X17412   0.726   4.644   7.887  0.4129  0.0933 -0.0923
  156SAPE   H8Y17413   0.601   4.759   7.851 -0.8845  0.1463  0.3391
  156SAPE   C3917414   0.775   4.853   7.952 -0.2619 -0.2184 -0.1582
  156SAPE   H9X17415   0.760   4.955   7.912  1.2160  0.6920  1.4603
  156SAPE   H9Y17416   0.884   4.834   7.943  0.3477  2.8881 -0.1746
  156SAPE  C31017417   0.737   4.826   8.100 -0.2203  0.5327 -0.2106
  156SAPE  H10X17418   0.738   4.716   8.117 -0.2633  0.5616 -0.0188
  156SAPE  H10Y17419   0.633   4.860   8.118 -0.4022 -0.8997  1.8074
  156SAPE  C31117420   0.840   4.904   8.192  0.5849  0.8536 -0.6468
  156SAPE  H11X17421   0.843   5.013   8.173  1.0448  0.8536 -0.5728
  156SAPE  H11Y17422   0.943   4.862   8.187  0.5047  0.7665 -1.6171
  156SAPE  C31217423   0.806   4.874   8.337 -0.4429 -0.4069 -0.1421
  156SAPE  H12X17424   0.881   4.905   8.413 -0.0889 -0.4044 -0.4926
  156SAPE  H12Y17425   0.807   4.764   8.347 -0.9592 -0.3919  0.1330
  156SAPE  C31317426   0.670   4.925   8.384  0.6006  0.1315  0.1492
  156SAPE  H13X17427   0.589   4.869   8.333  1.6622 -0.8925 -0.4478
  156SAPE  H13Y17428   0.667   5.029   8.347 -2.7592 -0.0127 -0.3235
  156SAPE  C31417429   0.653   4.931   8.541  0.6310 -0.4013 -0.3259
  156SAPE  H14X17430   0.740   4.978   8.593  0.4667 -0.4348 -0.0135
  156SAPE  H14Y17431   0.636   4.834   8.593 -2.6001 -0.3411 -1.0437
  156SAPE  C31517432   0.523   5.003   8.573 -0.0244  0.2411 -0.5392
  156SAPE  H15X17433   0.440   4.962   8.512 -0.4644 -0.3032  0.3981
  156SAPE  H15Y17434   0.525   5.112   8.549 -1.7119  0.8627  1.7502
  156SAPE  C31617435   0.497   5.002   8.725 -0.2718 -0.5509  0.0265
  156SAPE  H16X17436   0.448   5.098   8.755  0.5840  0.0166 -0.3524
  156SAPE  H16Y17437   0.597   5.015   8.770 -0.7118  2.4828  0.3279
  156SAPE  C31717438   0.416   4.880   8.773  0.5450  0.0011  0.2285
  156SAPE  H17X17439   0.478   4.799   8.731  1.8138  0.9906  0.1341
  156SAPE  H17Y17440   0.307   4.874   8.750  0.6954  1.0971 -0.8399
  156SAPE  C31817441   0.426   4.864   8.926  0.2144  0.6245 -1.2093
  156SAPE  H18X17442   0.395   4.960   8.974 -0.3636 -0.4875  0.7848
  156SAPE  H18Y17443   0.525   4.834   8.966  0.1483 -0.7779 -2.0673
  156SAPE  H18Z17444   0.347   4.800   8.971  0.9506  1.2458  1.1310
  157SAPE     N17445   4.659   0.242   6.347  0.4548 -0.8188 -0.2500
  157SAPE   HN117446   4.712   0.173   6.289  2.3711 -0.1899  0.6625
  157SAPE   HN217447   4.562   0.210   6.367  0.1659  0.5071  0.5918
  157SAPE   HN317448   4.650   0.325   6.285  0.4645 -1.1408 -0.6875
  157SAPE   C1217449   4.748   0.267   6.468  0.6935 -0.8083 -0.6874
  157SAPE  H12A17450   4.856   0.269   6.444  1.1778  1.0271  1.3761
  157SAPE  H12B17451   4.718   0.183   6.535 -2.7197  0.9124  0.2104
  157SAPE   C1117452   4.715   0.409   6.534  0.4611  0.4135 -0.1431
  157SAPE  H11A17453   4.783   0.421   6.621  0.8902 -3.3482  0.1748
  157SAPE  H11B17454   4.616   0.403   6.584  0.7733 -0.5792  0.3719
  157SAPE     P17455   4.850   0.575   6.395  0.0202 -0.0350  0.2809
  157SAPE   O1317456   4.918   0.470   6.322  0.0088  0.0391  0.1712
  157SAPE   O1417457   4.810   0.700   6.332 -0.5110 -0.5628  0.0933
  157SAPE   O1217458   4.709   0.518   6.442  1.0379 -0.5884 -0.1176
  157SAPE   O1117459   4.933   0.616   6.524  0.1770 -0.0839 -0.0941
  157SAPE    C117460   5.050   0.696   6.515  0.1809 -0.1206  0.1294
  157SAPE    HA17461   5.128   0.641   6.458  1.3938  1.6370  0.0527
  157SAPE    HB17462   5.026   0.788   6.458  0.2185 -0.4431 -0.4126
  157SAPE    C217463   5.089   0.728   6.657  0.0006  0.1107  0.0307
  157SAPE    HS17464   5.072   0.837   6.673  2.3233  0.1848  2.9151
  157SAPE   O2117465   5.222   0.701   6.689 -0.0684  1.1252  0.2070
  157SAPE   C2117466   5.317   0.768   6.635  0.0193  0.5906 -0.2207
  157SAPE   O2217467   5.315   0.857   6.554 -0.4045  0.4761  0.4010
  157SAPE   C2217468   5.443   0.713   6.704 -0.2364 -0.1183  0.3854
  157SAPE   H2R17469   5.477   0.619   6.658  2.9883  0.5478  1.1833
  157SAPE   H2S17470   5.518   0.795   6.698  1.8733 -1.8197  2.1564
  157SAPE    C317471   4.991   0.668   6.768  0.1491  0.8032 -1.1225
  157SAPE    HX17472   4.982   0.558   6.755  0.5313  0.1951  2.6819
  157SAPE    HY17473   4.895   0.719   6.742 -0.6195  0.5409  0.9818
  157SAPE   O3117474   5.030   0.710   6.901 -0.0465 -0.5368 -0.1121
  157SAPE   C3117475   5.001   0.842   6.926 -0.1869 -0.2139  0.1897
  157SAPE   O3217476   4.942   0.918   6.852  0.3932 -0.2950 -0.3453
  157SAPE   C3217477   5.044   0.861   7.070 -0.3134  0.0275  0.4102
  157SAPE   H2X17478   4.974   0.807   7.139 -0.4241 -0.2096  0.1153
  157SAPE   H2Y17479   5.028   0.968   7.096 -0.2199  0.8773 -2.6867
  157SAPE   C2317480   5.427   0.684   6.857 -0.5831 -0.4472  0.5124
  157SAPE   H3R17481   5.341   0.615   6.864  0.5256 -1.8864  0.4597
  157SAPE   H3S17482   5.403   0.778   6.911  0.1474  0.1678 -0.1990
  157SAPE   C2417483   5.555   0.627   6.908  0.3094  0.1750 -0.3276
  157SAPE   H4R17484   5.645   0.693   6.904  2.1840 -1.7633  3.9020
  157SAPE   H4S17485   5.585   0.546   6.838 -1.1395  0.9789 -1.9648
  157SAPE   C2517486   5.540   0.559   7.041 -0.4373 -0.2531  0.5512
  157SAPE   H5R17487   5.445   0.509   7.062  0.4528 -2.3285 -0.0862
  157SAPE   C2617488   5.620   0.573   7.151 -0.0023  0.4344 -0.1832
  157SAPE   H6R17489   5.596   0.518   7.243  0.6361 -1.2226 -0.9711
  157SAPE   C2717490   5.746   0.651   7.166 -0.0575  0.0531  0.5281
  157SAPE   H7R17491   5.731   0.734   7.238 -1.1931 -1.4647  2.1409
  157SAPE   H7S17492   5.786   0.686   7.068  0.9420  0.3174  1.0155
  157SAPE   C2817493   5.856   0.556   7.223 -0.6049  0.0787 -0.0941
  157SAPE   H8R17494   5.901   0.486   7.151  0.2498  1.4412 -0.9475
  157SAPE   C2917495   5.888   0.543   7.354  0.2963 -0.2128 -0.2697
  157SAPE   H9R17496   5.970   0.473   7.377 -0.3602 -1.7563 -2.3540
  157SAPE  C21017497   5.836   0.624   7.470 -0.2090 -0.0417 -0.5960
  157SAPE  H10R17498   5.743   0.679   7.445 -1.0268 -0.6035  1.0057
  157SAPE  H10S17499   5.912   0.701   7.494 -0.8170  0.1561  0.8352
  157SAPE  C21117500   5.797   0.538   7.591 -1.2872  0.0905 -0.0961
  157SAPE  H11R17501   5.790   0.430   7.576 -1.8265 -0.3380  2.6339
  157SAPE  C21217502   5.778   0.598   7.711 -0.2535  0.0888 -0.0212
  157SAPE  H12R17503   5.719   0.544   7.786 -1.2131 -0.6404 -1.2684
  157SAPE  C21317504   5.778   0.747   7.734  0.5183 -0.2718 -0.1900
  157SAPE  H13R17505   5.784   0.810   7.643  1.7259  0.7920  0.5847
  157SAPE  H13S17506   5.876   0.783   7.772  0.9090  0.7950 -2.0929
  157SAPE  C21417507   5.663   0.808   7.803  0.6932  0.2776 -0.1696
  157SAPE  H14R17508   5.564   0.790   7.759  0.6559 -0.7858  0.3192
  157SAPE  C21517509   5.669   0.859   7.933 -0.3406 -0.4038 -0.0193
  157SAPE  H15R17510   5.579   0.913   7.966 -0.3878 -0.8191  0.5416
  157SAPE  C21617511   5.799   0.863   8.017  0.0377 -0.5817  0.4413
  157SAPE  H16R17512   5.840   0.966   8.011 -0.7614 -0.2645  0.2034
  157SAPE  H16S17513   5.879   0.794   7.984  1.2843  0.8246  0.4100
  157SAPE  C21717514   5.762   0.833   8.160  0.0360  0.6785  0.4496
  157SAPE  H17R17515   5.697   0.744   8.176  0.5085  0.4444  1.1368
  157SAPE  H17S17516   5.695   0.918   8.186 -2.9673 -1.3915  0.0246
  157SAPE  C21817517   5.882   0.828   8.257 -0.1710 -0.8179  0.0521
  157SAPE  H18R17518   5.963   0.877   8.199 -0.8363  1.3058  0.8393
  157SAPE  H18S17519   5.912   0.721   8.258  1.2090 -0.4408  1.3429
  157SAPE  C21917520   5.873   0.883   8.396 -0.2957  0.0387 -0.4730
  157SAPE  H19R17521   5.836   0.988   8.397  1.2290  0.6531 -2.0107
  157SAPE  H19S17522   5.975   0.889   8.440 -0.6224 -0.5688  0.3823
  157SAPE  C22017523   5.779   0.799   8.481  0.3107 -0.0576  0.1699
  157SAPE  H20R17524   5.787   0.825   8.589 -1.2258  0.9700  0.0721
  157SAPE  H20S17525   5.802   0.691   8.472  2.0392  0.3543 -0.6736
  157SAPE  H20T17526   5.678   0.826   8.444  0.7163 -1.7716 -2.3806
  157SAPE   C3317527   5.182   0.814   7.102  1.0250  0.1770  0.1760
  157SAPE   H3X17528   5.247   0.857   7.023 -0.8351  3.1137  0.1075
  157SAPE   H3Y17529   5.194   0.704   7.101  1.0230  0.0693  2.8792
  157SAPE   C3417530   5.244   0.856   7.241  0.2732 -0.4027  0.0272
  157SAPE   H4X17531   5.169   0.832   7.320  0.0136 -1.9372 -0.6580
  157SAPE   H4Y17532   5.277   0.962   7.246 -1.8110  0.2437  1.5891
  157SAPE   C3517533   5.364   0.770   7.275 -0.2914 -0.4639 -0.8121
  157SAPE   H5X17534   5.446   0.795   7.204  0.9394  0.8366  0.9531
  157SAPE   H5Y17535   5.334   0.664   7.265 -0.0517 -0.6976  0.6675
  157SAPE   C3617536   5.417   0.786   7.429  0.2946 -0.2410  1.3632
  157SAPE   H6X17537   5.464   0.887   7.438 -1.1542  0.5942  0.0748
  157SAPE   H6Y17538   5.494   0.706   7.432 -0.7647 -1.4277 -0.6587
  157SAPE   C3717539   5.307   0.760   7.537  0.7342  0.1777 -0.3903
  157SAPE   H7X17540   5.229   0.838   7.526  0.4732 -0.3903 -3.3974
  157SAPE   H7Y17541   5.351   0.761   7.639 -0.8442  3.1142  0.3570
  157SAPE   C3817542   5.230   0.626   7.513 -0.0972 -0.0059 -0.0032
  157SAPE   H8X17543   5.300   0.540   7.508  1.1993  0.7426  2.8441
  157SAPE   H8Y17544   5.167   0.639   7.422  4.4184  3.8659 -3.0359
  157SAPE   C3917545   5.150   0.594   7.643  1.1349 -0.2392 -0.4155
  157SAPE   H9X17546   5.067   0.523   7.623 -0.0846  0.6804  1.1167
  157SAPE   H9Y17547   5.094   0.683   7.677 -0.8217 -1.0077 -1.4502
  157SAPE  C31017548   5.235   0.532   7.766  0.0242 -0.0693  0.5568
  157SAPE  H10X17549   5.312   0.611   7.780 -0.8425  0.7561  0.8174
  157SAPE  H10Y17550   5.279   0.434   7.741 -0.5716 -0.4608  1.0055
  157SAPE  C31117551   5.153   0.526   7.898  0.1700  0.0402  0.4752
  157SAPE  H11X17552   5.086   0.438   7.900 -1.2215  1.0643  0.3180
  157SAPE  H11Y17553   5.080   0.610   7.897  1.0770  0.8680 -1.5948
  157SAPE  C31217554   5.249   0.525   8.013 -0.1322 -0.2304 -0.7660
  157SAPE  H12X17555   5.297   0.625   8.017  0.5316 -0.5437 -0.6948
  157SAPE  H12Y17556   5.321   0.443   7.992 -1.3995 -1.6902  0.3027
  157SAPE  C31317557   5.178   0.496   8.151 -0.4581  0.0847  0.1950
  157SAPE  H13X17558   5.119   0.403   8.138 -1.5401  0.8596 -0.5629
  157SAPE  H13Y17559   5.096   0.570   8.163 -1.2982 -0.9013  0.7301
  157SAPE  C31417560   5.275   0.495   8.278  0.7095  0.5660  0.0728
  157SAPE  H14X17561   5.341   0.583   8.291  0.4058  0.9181 -0.6834
  157SAPE  H14Y17562   5.337   0.406   8.257  1.2499  1.2873 -1.5575
  157SAPE  C31517563   5.206   0.468   8.418  0.2048  0.1115  0.4370
  157SAPE  H15X17564   5.175   0.361   8.414 -0.8135  0.3918  0.6621
  157SAPE  H15Y17565   5.122   0.537   8.435 -0.7246 -0.8422 -0.1682
  157SAPE  C31617566   5.307   0.483   8.533 -0.3033  0.6465  0.5113
  157SAPE  H16X17567   5.258   0.473   8.632  0.2091  2.9300  1.0571
  157SAPE  H16Y17568   5.359   0.581   8.533  2.1399 -0.5498 -0.9423
  157SAPE  C31717569   5.424   0.383   8.530  0.0963  0.3653  0.4050
  157SAPE  H17X17570   5.512   0.412   8.469  0.6517 -0.6282  0.7157
  157SAPE  H17Y17571   5.386   0.286   8.492  0.0743  1.5367 -2.8804
  157SAPE  C31817572   5.491   0.365   8.663 -0.4089  0.2909 -0.0926
  157SAPE  H18X17573   5.422   0.317   8.736 -0.8019 -3.1125 -2.4794
  157SAPE  H18Y17574   5.531   0.457   8.711 -0.4970  0.6551 -0.7088
  157SAPE  H18Z17575   5.575   0.294   8.655  1.5458  2.5234 -0.3807
  158SAPE     N17576   6.229   4.118   5.970  0.0152  0.2626  0.2688
  158SAPE   HN117577   6.192   4.175   5.891 -1.7998  0.2419  1.0539
  158SAPE   HN217578   6.236   4.018   5.943  0.2914  0.6573 -1.2201
  158SAPE   HN317579   6.167   4.136   6.052 -1.9797  1.7254 -1.4515
  158SAPE   C1217580   6.371   4.175   5.982  0.5119  0.1129  0.3664
  158SAPE  H12A17581   6.372   4.278   5.941 -0.3537  0.9362  2.2713
  158SAPE  H12B17582   6.435   4.103   5.927 -0.6627 -1.5956  1.1311
  158SAPE   C1117583   6.429   4.148   6.126  0.2946  0.0923  0.4420
  158SAPE  H11A17584   6.530   4.193   6.115  0.6057 -0.5641  0.5274
  158SAPE  H11B17585   6.450   4.045   6.162  3.5075  0.5371  0.1448
  158SAPE     P17586   6.410   4.335   6.297 -0.2315  0.3408  0.3740
  158SAPE   O1317587   6.461   4.440   6.208 -0.3196  0.5035 -0.3523
  158SAPE   O1417588   6.316   4.385   6.400 -0.4578 -0.4001  0.5288
  158SAPE   O1217589   6.347   4.216   6.219  0.2564  0.1007  0.4757
  158SAPE   O1117590   6.537   4.254   6.354 -0.1816 -0.6573  0.0906
  158SAPE    C117591   6.537   4.184   6.485  0.5411  0.5932 -0.5437
  158SAPE    HA17592   6.436   4.185   6.530  0.1321  1.4443 -1.4590
  158SAPE    HB17593   6.559   4.075   6.477 -1.2518  0.0508  1.1804
  158SAPE    C217594   6.638   4.246   6.589  0.0959  0.5118  0.2838
  158SAPE    HS17595   6.629   4.180   6.677 -2.9424  1.3298  0.6961
  158SAPE   O2117596   6.617   4.383   6.624  0.2625  0.4040 -0.4709
  158SAPE   C2117597   6.514   4.411   6.700 -0.4468  0.6504  0.2519
  158SAPE   O2217598   6.414   4.343   6.722 -0.0065  0.5151  0.5870
  158SAPE   C2217599   6.537   4.550   6.763 -0.0030  0.0860 -0.4578
  158SAPE   H2R17600   6.549   4.615   6.674 -1.6613  1.0988  0.0385
  158SAPE   H2S17601   6.453   4.593   6.820 -0.5188  0.5695 -1.5560
  158SAPE    C317602   6.781   4.228   6.527 -0.2857 -0.8847 -0.1346
  158SAPE    HX17603   6.790   4.277   6.427 -0.5126  1.6920  1.0311
  158SAPE    HY17604   6.794   4.119   6.508  0.9432 -0.9322  0.8832
  158SAPE   O3117605   6.888   4.283   6.608  0.6326  0.2566 -0.1289
  158SAPE   C3117606   6.918   4.213   6.718  0.2618 -0.2193  0.2580
  158SAPE   O3217607   6.856   4.110   6.751  0.0518 -0.1490  0.8618
  158SAPE   C3217608   7.035   4.274   6.792  0.1254  0.5628  0.3584
  158SAPE   H2X17609   7.001   4.363   6.850 -0.6425  0.4395  0.1042
  158SAPE   H2Y17610   7.108   4.299   6.712 -0.1614  0.3758  0.0397
  158SAPE   C2317611   6.668   4.555   6.856  0.7265  0.0050  0.3438
  158SAPE   H3R17612   6.681   4.665   6.852  1.1978 -0.0638 -2.3472
  158SAPE   H3S17613   6.749   4.503   6.800  1.2126  0.0817  0.9744
  158SAPE   C2417614   6.636   4.498   7.000  0.3353 -0.3290  0.5061
  158SAPE   H4R17615   6.566   4.415   6.977 -1.5794  1.2323  0.3776
  158SAPE   H4S17616   6.565   4.568   7.050 -2.7040 -1.2206 -2.1766
  158SAPE   C2517617   6.755   4.452   7.081  0.0126  0.3196 -0.0863
  158SAPE   H5R17618   6.839   4.409   7.025  0.9805  0.5309  1.1618
  158SAPE   C2617619   6.776   4.444   7.216  0.5095  0.0620  0.2504
  158SAPE   H6R17620   6.876   4.414   7.251  0.6212  0.7238  0.5250
  158SAPE   C2717621   6.672   4.474   7.317 -0.0721  0.2462 -0.5472
  158SAPE   H7R17622   6.571   4.450   7.278 -0.2386  0.1509 -0.0698
  158SAPE   H7S17623   6.678   4.581   7.345 -0.3223  0.5228 -1.5075
  158SAPE   C2817624   6.695   4.378   7.435  0.5181 -0.3813  0.6311
  158SAPE   H8R17625   6.733   4.280   7.401  1.9100  0.8126 -1.4929
  158SAPE   C2917626   6.680   4.402   7.568  0.2234 -0.5637 -0.1042
  158SAPE   H9R17627   6.693   4.313   7.632 -1.6790  0.3841  1.7236
  158SAPE  C21017628   6.619   4.527   7.636 -0.2886  0.8118 -0.0199
  158SAPE  H10R17629   6.560   4.574   7.555  0.5878 -0.2954 -1.3649
  158SAPE  H10S17630   6.703   4.597   7.655 -0.4708  1.2211 -0.6859
  158SAPE  C21117631   6.539   4.493   7.758  0.0392 -0.3199 -0.7893
  158SAPE  H11R17632   6.436   4.462   7.736 -0.1076  0.0343 -0.6113
  158SAPE  C21217633   6.584   4.511   7.885 -0.2679 -0.2424 -0.1397
  158SAPE  H12R17634   6.511   4.492   7.966  1.3193 -0.2927  1.3403
  158SAPE  C21317635   6.720   4.555   7.935  1.0312  0.1953 -0.2786
  158SAPE  H13R17636   6.766   4.617   7.855  2.5268  0.3860  0.6841
  158SAPE  H13S17637   6.782   4.463   7.944  1.2828  0.3292 -0.6332
  158SAPE  C21417638   6.736   4.649   8.055  0.1944  0.2591  0.1661
  158SAPE  H14R17639   6.774   4.748   8.025 -0.9490  0.9453  0.9399
  158SAPE  C21517640   6.716   4.626   8.184  0.1653  0.4899 -1.2487
  158SAPE  H15R17641   6.738   4.701   8.261  1.7759 -2.9908  2.0266
  158SAPE  C21617642   6.673   4.494   8.247  0.0884 -0.2436 -0.2753
  158SAPE  H16R17643   6.762   4.455   8.301 -0.2500 -1.1408 -0.3534
  158SAPE  H16S17644   6.649   4.412   8.177  1.8416 -0.1228 -1.0782
  158SAPE  C21717645   6.557   4.509   8.349  0.5063  0.2293 -0.6139
  158SAPE  H17R17646   6.578   4.588   8.425 -3.0674  0.7060  0.0520
  158SAPE  H17S17647   6.550   4.411   8.400  0.4785  0.3311 -0.4196
  158SAPE  C21817648   6.440   4.546   8.269  0.8010 -0.2074  0.2228
  158SAPE  H18R17649   6.430   4.473   8.185 -1.3893 -2.1902  2.0526
  158SAPE  H18S17650   6.460   4.647   8.228 -0.2818  1.8837  4.3285
  158SAPE  C21917651   6.306   4.535   8.336  0.2823 -0.3750  0.3883
  158SAPE  H19R17652   6.303   4.606   8.421 -0.4942  0.9442 -0.7109
  158SAPE  H19S17653   6.297   4.435   8.383 -0.0065 -2.1010 -3.0043
  158SAPE  C22017654   6.180   4.563   8.248 -0.0239 -0.5372  0.6661
  158SAPE  H20R17655   6.171   4.483   8.172  1.1339 -0.3152  0.2732
  158SAPE  H20S17656   6.187   4.660   8.194 -1.3789 -0.6093  0.3376
  158SAPE  H20T17657   6.093   4.562   8.317  0.9358  0.3848  1.9604
  158SAPE   C3317658   7.111   4.165   6.875 -0.0581 -0.0010 -0.4993
  158SAPE   H3X17659   7.142   4.085   6.803  1.0428 -0.3442  0.3247
  158SAPE   H3Y17660   7.038   4.129   6.951 -0.8241  3.3523  0.5135
  158SAPE   C3417661   7.237   4.214   6.939 -0.1063  0.0186 -0.1562
  158SAPE   H4X17662   7.297   4.252   6.854 -1.1145  0.7327 -0.5744
  158SAPE   H4Y17663   7.293   4.127   6.980 -1.3208 -0.7840 -0.1386
  158SAPE   C3517664   7.213   4.317   7.050 -0.0560 -0.2314  0.3481
  158SAPE   H5X17665   7.134   4.388   7.018  1.3175  0.2918 -2.1664
  158SAPE   H5Y17666   7.308   4.371   7.068  0.5089 -0.4635 -1.6687
  158SAPE   C3617667   7.162   4.261   7.182 -0.2364  0.0640  0.4879
  158SAPE   H6X17668   7.238   4.189   7.218  1.1334  1.2331  0.0243
  158SAPE   H6Y17669   7.079   4.189   7.163 -1.1318  1.2569 -0.2797
  158SAPE   C3717670   7.145   4.373   7.286 -0.0262 -0.1346 -0.3756
  158SAPE   H7X17671   7.236   4.437   7.281 -1.7605  2.5667  0.5945
  158SAPE   H7Y17672   7.077   4.455   7.254  0.8158  0.2184 -1.3148
  158SAPE   C3817673   7.129   4.317   7.428  0.3090  0.4792 -0.3059
  158SAPE   H8X17674   7.213   4.253   7.463  1.7081  0.9452 -2.5788
  158SAPE   H8Y17675   7.039   4.254   7.437  0.7281 -0.1695 -0.6044
  158SAPE   C3917676   7.111   4.423   7.535  0.1289  0.2962 -0.0193
  158SAPE   H9X17677   7.018   4.480   7.513  0.4120  1.2384  1.1155
  158SAPE   H9Y17678   7.197   4.493   7.523 -0.6996  1.1602 -1.1943
  158SAPE  C31017679   7.094   4.362   7.676 -0.1969 -0.1633  0.3707
  158SAPE  H10X17680   7.168   4.280   7.693  0.9846  0.9354  0.7105
  158SAPE  H10Y17681   6.988   4.331   7.673  0.4048 -2.3944  0.3505
  158SAPE  C31117682   7.110   4.469   7.787 -0.1372  0.3586  0.1568
  158SAPE  H11X17683   7.037   4.553   7.783 -1.1466 -0.5243 -0.4872
  158SAPE  H11Y17684   7.212   4.512   7.787  1.2670 -2.6524  2.4216
  158SAPE  C31217685   7.082   4.415   7.932 -0.2933  0.1940  0.0878
  158SAPE  H12X17686   7.158   4.341   7.964  1.9236  1.5106 -1.8542
  158SAPE  H12Y17687   6.979   4.372   7.929 -0.1002 -0.2404 -2.6853
  158SAPE  C31317688   7.095   4.539   8.029  0.1931  0.0097 -0.0643
  158SAPE  H13X17689   7.021   4.620   8.012 -0.1311 -0.6376 -2.1053
  158SAPE  H13Y17690   7.197   4.577   8.008  1.3924 -2.4428  0.9213
  158SAPE  C31417691   7.087   4.481   8.175 -0.1340  0.6395 -0.5592
  158SAPE  H14X17692   7.127   4.378   8.185 -0.6733  0.4824  0.0048
  158SAPE  H14Y17693   6.980   4.464   8.199  0.0211  1.2510  0.6174
  158SAPE  C31517694   7.132   4.583   8.282 -0.2733  0.0405 -1.2426
  158SAPE  H15X17695   7.068   4.674   8.279 -2.0084 -1.0347  0.6952
  158SAPE  H15Y17696   7.237   4.616   8.267 -0.5204  0.2073 -2.7750
  158SAPE  C31617697   7.130   4.517   8.422  0.0938  0.1723  0.0525
  158SAPE  H16X17698   7.212   4.443   8.414  1.2188  1.4430 -0.7466
  158SAPE  H16Y17699   7.038   4.456   8.429  1.2038 -1.6982 -0.7900
  158SAPE  C31717700   7.162   4.605   8.545  0.4827 -0.3928 -0.1583
  158SAPE  H17X17701   7.079   4.673   8.573 -0.4383 -1.6894  0.3980
  158SAPE  H17Y17702   7.245   4.673   8.518 -0.8964  1.7978  0.8321
  158SAPE  C31817703   7.207   4.521   8.670 -0.3165 -0.2403 -0.3431
  158SAPE  H18X17704   7.171   4.416   8.667 -0.5759 -0.3558  3.0690
  158SAPE  H18Y17705   7.162   4.565   8.761  0.3856 -3.8328  1.9265
  158SAPE  H18Z17706   7.317   4.516   8.686 -0.5136 -0.8083  0.9059
  159SAPE     N17707   0.100   1.541   6.107 -0.0640  0.0065  0.1883
  159SAPE   HN117708   0.169   1.618   6.094  0.6046 -0.7126 -0.6001
  159SAPE   HN217709   0.041   1.546   6.022 -0.9740  1.0565  0.8517
  159SAPE   HN317710   0.047   1.568   6.192 -0.9581 -0.9711 -0.0534
  159SAPE   C1217711   0.185   1.419   6.131  0.7325  0.0204  0.3142
  159SAPE  H12A17712   0.281   1.437   6.076 -0.7480 -0.2021 -2.5276
  159SAPE  H12B17713   0.124   1.335   6.093 -0.1107  0.9339 -0.4148
  159SAPE   C1117714   0.208   1.402   6.285 -0.0562  0.0663  0.2122
  159SAPE  H11A17715   0.247   1.298   6.287 -0.4267 -0.1681 -1.7823
  159SAPE  H11B17716   0.114   1.397   6.344 -0.4555 -0.5386 -0.4474
  159SAPE     P17717   0.455   1.492   6.305 -0.2973 -0.1918  0.0897
  159SAPE   O1317718   0.496   1.399   6.197 -0.3051 -0.1335 -0.6464
  159SAPE   O1417719   0.482   1.632   6.262  0.1888 -0.5015 -0.7536
  159SAPE   O1217720   0.299   1.490   6.334 -0.0667  0.5638 -0.9690
  159SAPE   O1117721   0.526   1.461   6.437 -0.1132  0.5765  0.4506
  159SAPE    C117722   0.488   1.492   6.564  0.2553  0.2054 -0.2065
  159SAPE    HA17723   0.574   1.495   6.634  0.2754 -1.3161 -0.1213
  159SAPE    HB17724   0.448   1.595   6.570  0.9291  0.6471 -2.4149
  159SAPE    C217725   0.381   1.388   6.611 -0.0900 -0.5722 -0.1639
  159SAPE    HS17726   0.295   1.378   6.542 -1.0016 -1.4575  1.0560
  159SAPE   O2117727   0.334   1.449   6.741 -0.4777 -0.4361  0.0837
  159SAPE   C2117728   0.211   1.400   6.773 -0.1196 -0.7003  0.2704
  159SAPE   O2217729   0.149   1.313   6.714 -0.3727 -0.5122  0.2314
  159SAPE   C2217730   0.159   1.481   6.889  1.0887  0.4202  0.1679
  159SAPE   H2R17731   0.241   1.519   6.953  0.5011  1.5788  0.2502
  159SAPE   H2S17732   0.108   1.569   6.845  2.1431  1.5647  1.1651
  159SAPE    C317733   0.439   1.244   6.628 -0.0353  0.8204  0.3750
  159SAPE    HX17734   0.459   1.205   6.526  0.0645 -1.0899  1.0831
  159SAPE    HY17735   0.350   1.192   6.669 -1.7694  0.9978 -2.8958
  159SAPE   O3117736   0.559   1.233   6.710  0.0892  0.6271 -0.2399
  159SAPE   C3117737   0.532   1.199   6.835 -0.1266 -0.1420 -0.0844
  159SAPE   O3217738   0.424   1.165   6.883  0.2767  0.2861  1.1741
  159SAPE   C3217739   0.661   1.213   6.908 -0.1042  0.3358 -0.6280
  159SAPE   H2X17740   0.746   1.197   6.838  0.8743 -0.4266  0.6955
  159SAPE   H2Y17741   0.670   1.122   6.971  1.5459 -0.3736 -1.8013
  159SAPE   C2317742   0.066   1.394   6.976 -0.3015  0.7499 -0.1054
  159SAPE   H3R17743  -0.026   1.364   6.921  0.5663 -0.5765 -0.9063
  159SAPE   H3S17744   0.033   1.458   7.059  0.1846 -0.8947  1.4273
  159SAPE   C2417745   0.143   1.280   7.036  0.4684 -0.2649  0.2172
  159SAPE   H4R17746   0.241   1.316   7.075 -1.6812  2.8872  3.2765
  159SAPE   H4S17747   0.168   1.208   6.955 -0.2903  1.6598 -1.8063
  159SAPE   C2517748   0.053   1.212   7.137  0.2269  0.1680  0.2593
  159SAPE   H5R17749   0.002   1.122   7.098  2.2332 -0.8738 -0.1286
  159SAPE   C2617750   0.031   1.245   7.261  0.4616  0.3018  0.4066
  159SAPE   H6R17751  -0.028   1.189   7.334 -0.7029  1.7276  0.6042
  159SAPE   C2717752   0.108   1.358   7.321  0.0082  0.1756 -0.6318
  159SAPE   H7R17753   0.178   1.408   7.251 -0.6300  1.5585 -0.3359
  159SAPE   H7S17754   0.182   1.321   7.395  1.5722  0.7463 -1.8725
  159SAPE   C2817755   0.000   1.450   7.369 -0.0289  0.6313  0.1395
  159SAPE   H8R17756  -0.079   1.465   7.293 -1.0365 -2.7147  0.3652
  159SAPE   C2917757  -0.001   1.516   7.482 -0.1212 -0.5511 -0.2837
  159SAPE   H9R17758  -0.085   1.576   7.520 -0.1406 -2.1397  2.4832
  159SAPE  C21017759   0.099   1.514   7.597 -0.0426 -0.7460  0.0698
  159SAPE  H10R17760   0.161   1.605   7.582  1.8621 -1.9875  0.0698
  159SAPE  H10S17761   0.169   1.429   7.580  0.5902 -0.6582  1.9646
  159SAPE  C21117762   0.024   1.521   7.731 -0.5385 -0.3462 -0.1694
  159SAPE  H11R17763  -0.021   1.422   7.748 -0.2053 -1.0378 -2.8416
  159SAPE  C21217764   0.013   1.621   7.821  0.3752  0.2159 -1.1133
  159SAPE  H12R17765  -0.036   1.585   7.913  0.0385 -2.3862 -2.2098
  159SAPE  C21317766   0.076   1.755   7.818  0.9036 -0.2208 -0.4259
  159SAPE  H13R17767   0.003   1.838   7.826 -0.8038 -1.7533  0.5374
  159SAPE  H13S17768   0.117   1.782   7.718  2.0085  0.0750  0.0946
  159SAPE  C21417769   0.184   1.758   7.926  0.4061 -0.2125  0.3606
  159SAPE  H14R17770   0.283   1.722   7.896 -0.2762  0.4203 -3.0919
  159SAPE  C21517771   0.157   1.809   8.050  0.9575  0.1379  0.0619
  159SAPE  H15R17772   0.236   1.823   8.125 -0.9190  2.3565  1.7629
  159SAPE  C21617773   0.026   1.859   8.107 -0.8774 -0.1707  0.4679
  159SAPE  H16R17774  -0.045   1.838   8.024  0.5443 -1.1270 -0.5603
  159SAPE  H16S17775   0.043   1.968   8.093 -1.4663 -0.1276  0.0820
  159SAPE  C21717776  -0.005   1.832   8.249 -0.0805 -0.2448  0.4082
  159SAPE  H17R17777   0.080   1.838   8.320 -0.2571 -0.0348  0.5989
  159SAPE  H17S17778  -0.054   1.733   8.260  0.0042 -0.4257 -0.7445
  159SAPE  C21817779  -0.106   1.940   8.300  0.4543 -0.6561  0.0920
  159SAPE  H18R17780  -0.196   1.915   8.241  0.8793 -0.6181 -0.5796
  159SAPE  H18S17781  -0.066   2.040   8.272 -1.8041  0.5183  0.8425
  159SAPE  C21917782  -0.152   1.929   8.446 -0.7007  0.2889 -0.4217
  159SAPE  H19R17783  -0.063   1.898   8.504 -1.2909 -0.7080 -0.0189
  159SAPE  H19S17784  -0.219   1.841   8.458 -0.7919 -0.1362 -3.2746
  159SAPE  C22017785  -0.212   2.060   8.501  0.1023  0.5459  0.3677
  159SAPE  H20R17786  -0.248   2.042   8.604  0.8837  0.8809  0.7126
  159SAPE  H20S17787  -0.302   2.087   8.442 -0.7977 -0.1403  1.3762
  159SAPE  H20T17788  -0.126   2.131   8.502  0.4987  0.0656  0.7579
  159SAPE   C3317789   0.676   1.339   6.994 -0.2256 -0.1429  0.0367
  159SAPE   H3X17790   0.749   1.332   7.078  3.1425  1.5252 -2.4664
  159SAPE   H3Y17791   0.576   1.350   7.041  0.4502  0.9021  1.3040
  159SAPE   C3417792   0.694   1.477   6.924 -0.4809  0.3859 -0.6607
  159SAPE   H4X17793   0.599   1.495   6.870 -0.8867 -0.7381 -0.3626
  159SAPE   H4Y17794   0.772   1.461   6.847 -0.9284  2.6659 -1.6441
  159SAPE   C3517795   0.742   1.591   7.013 -0.3798 -0.7940 -0.2983
  159SAPE   H5X17796   0.771   1.677   6.949  1.9579 -1.0107  0.3852
  159SAPE   H5Y17797   0.840   1.559   7.054 -0.7282 -1.1997  0.2367
  159SAPE   C3617798   0.660   1.631   7.128  0.4376 -0.2691 -0.0008
  159SAPE   H6X17799   0.553   1.605   7.111  0.9037 -2.7505  0.3937
  159SAPE   H6Y17800   0.681   1.738   7.149 -0.0618 -0.1282 -0.1973
  159SAPE   C3717801   0.677   1.557   7.263  0.7860  0.0915 -0.7541
  159SAPE   H7X17802   0.772   1.570   7.318 -0.8216  0.1728  2.2030
  159SAPE   H7Y17803   0.658   1.449   7.248  0.3770  0.2824 -1.7312
  159SAPE   C3817804   0.573   1.602   7.371  0.3134 -0.3052 -0.8294
  159SAPE   H8X17805   0.467   1.587   7.344  0.0715  0.1638 -0.1826
  159SAPE   H8Y17806   0.587   1.713   7.372  2.2902 -0.5131  0.4140
  159SAPE   C3917807   0.601   1.540   7.511  0.1418  0.0288  0.5653
  159SAPE   H9X17808   0.709   1.532   7.538  0.7205 -0.3223 -1.6222
  159SAPE   H9Y17809   0.564   1.436   7.501  2.1455 -0.7348  0.5897
  159SAPE  C31017810   0.537   1.631   7.615 -0.2205  0.6576  0.8420
  159SAPE  H10X17811   0.466   1.580   7.683  1.4219 -0.0964  2.0525
  159SAPE  H10Y17812   0.471   1.705   7.565  0.2432  0.5814  0.0987
  159SAPE  C31117813   0.639   1.698   7.710  0.6766 -0.1320  0.4457
  159SAPE  H11X17814   0.713   1.753   7.648 -1.2608 -0.4205 -2.3131
  159SAPE  H11Y17815   0.689   1.609   7.753  1.2566  1.0445  2.3417
  159SAPE  C31217816   0.583   1.791   7.817  0.2725 -0.5889  0.0833
  159SAPE  H12X17817   0.514   1.735   7.884 -0.0913 -0.0492  0.1621
  159SAPE  H12Y17818   0.526   1.871   7.766 -2.6802 -0.7359  2.7944
  159SAPE  C31317819   0.694   1.837   7.906 -0.5479 -0.2194 -0.6047
  159SAPE  H13X17820   0.750   1.904   7.838 -3.8355  2.6006 -0.7617
  159SAPE  H13Y17821   0.752   1.746   7.936 -1.2493 -1.4266 -2.7069
  159SAPE  C31417822   0.620   1.896   8.024 -0.1931  0.8635 -0.6856
  159SAPE  H14X17823   0.550   1.822   8.070 -0.6252  1.9406  0.4433
  159SAPE  H14Y17824   0.558   1.984   7.996  0.5938  1.3422 -0.9355
  159SAPE  C31517825   0.711   1.925   8.142  0.1867 -0.0204  0.1543
  159SAPE  H15X17826   0.811   1.963   8.115 -0.1050  1.9814  1.6411
  159SAPE  H15Y17827   0.711   1.825   8.192 -2.2611  0.1832  0.7231
  159SAPE  C31617828   0.640   2.031   8.228 -1.1420 -0.5801  0.5449
  159SAPE  H16X17829   0.541   2.001   8.268 -1.6045 -0.9664 -0.8349
  159SAPE  H16Y17830   0.613   2.109   8.155 -0.1603  0.6337  1.4326
  159SAPE  C31717831   0.733   2.089   8.339 -0.2726 -0.8276  0.1596
  159SAPE  H17X17832   0.826   2.131   8.295  0.1979 -2.7021 -0.7119
  159SAPE  H17Y17833   0.754   1.998   8.399  0.1516 -0.5813  0.3841
  159SAPE  C31817834   0.666   2.193   8.437 -0.2876 -0.1667 -0.0837
  159SAPE  H18X17835   0.645   2.288   8.384 -1.8223  0.4127  1.4671
  159SAPE  H18Y17836   0.739   2.214   8.519 -1.4843 -1.3292  1.3505
  159SAPE  H18Z17837   0.562   2.163   8.460  0.3249 -1.9275  0.6469
  160SAPE     N17838   1.972   0.103   6.388 -0.0185  0.8514  0.3538
  160SAPE   HN117839   1.917   0.150   6.313  1.2927 -0.6980 -1.6913
  160SAPE   HN217840   1.932   0.123   6.482  2.1967 -0.5074  1.6943
  160SAPE   HN317841   2.070   0.135   6.397  0.6256 -0.5892 -0.9805
  160SAPE   C1217842   1.978  -0.048   6.377  0.0986  0.3671  0.7145
  160SAPE  H12A17843   2.080  -0.072   6.414  0.2474 -0.2161 -0.0485
  160SAPE  H12B17844   1.967  -0.077   6.270 -0.8867 -0.0581  0.9182
  160SAPE   C1117845   1.885  -0.125   6.457  0.2114 -0.0735 -0.3678
  160SAPE  H11A17846   1.920  -0.230   6.445 -3.1192 -1.0026 -3.4769
  160SAPE  H11B17847   1.780  -0.115   6.425  0.5288 -1.3571 -1.9116
  160SAPE     P17848   1.820   0.014   6.682  0.0113 -0.2867  0.0705
  160SAPE   O1317849   1.684  -0.002   6.638  0.4985  0.5211 -0.2433
  160SAPE   O1417850   1.845  -0.003   6.823  0.2979  0.3105  0.2617
  160SAPE   O1217851   1.898  -0.090   6.599 -0.0907 -0.9663 -0.2245
  160SAPE   O1117852   1.890   0.145   6.634  0.1110  0.0943 -0.0953
  160SAPE    C117853   1.806   0.265   6.621  0.2655 -0.2659 -0.1867
  160SAPE    HA17854   1.872   0.348   6.587  0.0991  0.5082  1.3159
  160SAPE    HB17855   1.722   0.257   6.548 -0.0364  2.6159 -0.2891
  160SAPE    C217856   1.775   0.326   6.760 -0.1281  0.1262 -0.7040
  160SAPE    HS17857   1.760   0.435   6.748  0.8292  0.1936 -1.4081
  160SAPE   O2117858   1.878   0.295   6.859  0.6744  0.5897 -0.0975
  160SAPE   C2117859   1.997   0.345   6.823 -0.2481  0.5480 -0.4679
  160SAPE   O2217860   2.014   0.436   6.743  0.1833  0.0935 -0.5890
  160SAPE   C2217861   2.105   0.271   6.894 -0.0558 -0.7450 -0.3540
  160SAPE   H2R17862   2.069   0.173   6.930 -1.0240 -0.5424 -0.7373
  160SAPE   H2S17863   2.182   0.245   6.817  0.8176  1.3014 -0.2402
  160SAPE    C317864   1.637   0.281   6.812  1.3906 -0.1129 -0.4886
  160SAPE    HX17865   1.631   0.171   6.820  1.3747 -0.0093  1.7833
  160SAPE    HY17866   1.549   0.299   6.748  2.3738 -0.6796 -2.0491
  160SAPE   O3117867   1.614   0.346   6.941  0.0915 -0.1274 -0.2169
  160SAPE   C3117868   1.606   0.271   7.052 -0.0781 -0.1355  0.0466
  160SAPE   O3217869   1.582   0.150   7.053 -0.6356  0.4628 -0.0481
  160SAPE   C3217870   1.626   0.360   7.180  0.3973 -0.2848  0.1312
  160SAPE   H2X17871   1.542   0.433   7.186  1.8226  1.5530 -1.3345
  160SAPE   H2Y17872   1.724   0.409   7.169  1.3856 -2.4857 -1.5213
  160SAPE   C2317873   2.170   0.351   7.009  0.0648 -0.0040  0.0467
  160SAPE   H3R17874   2.207   0.443   6.959 -1.3298  0.7796  0.4105
  160SAPE   H3S17875   2.244   0.288   7.063 -0.5235 -0.0867  0.7720
  160SAPE   C2417876   2.071   0.382   7.126 -0.6944  0.6567 -0.1863
  160SAPE   H4R17877   1.996   0.448   7.077 -1.0383 -1.7350 -3.1729
  160SAPE   H4S17878   2.131   0.426   7.208 -0.2234  2.7669 -1.5959
  160SAPE   C2517879   1.998   0.262   7.185  0.4779 -0.0469  0.5432
  160SAPE   H5R17880   1.969   0.182   7.115  1.0088 -1.1377  1.5340
  160SAPE   C2617881   1.980   0.238   7.316  0.0692  0.2953 -0.4745
  160SAPE   H6R17882   1.932   0.143   7.342  0.2238  0.3768  0.1179
  160SAPE   C2717883   2.026   0.330   7.427 -0.7448 -0.0458 -0.3581
  160SAPE   H7R17884   1.945   0.403   7.452  1.4435  2.7594 -0.8872
  160SAPE   H7S17885   2.112   0.387   7.387 -2.1046  0.1017 -3.3642
  160SAPE   C2817886   2.053   0.245   7.549  0.7534 -0.4822  0.8988
  160SAPE   H8R17887   2.063   0.139   7.523 -0.0647 -0.4502  0.3954
  160SAPE   C2917888   2.046   0.277   7.677  0.1491 -1.3353 -0.0260
  160SAPE   H9R17889   2.072   0.201   7.752 -2.7708 -3.4762 -1.0025
  160SAPE  C21017890   2.022   0.414   7.742 -1.0730  0.6055  0.1364
  160SAPE  H10R17891   2.008   0.493   7.665 -0.3508  0.0187 -0.6167
  160SAPE  H10S17892   2.120   0.431   7.791 -1.1544  0.0392  0.5064
  160SAPE  C21117893   1.912   0.424   7.842  0.7927 -0.8377 -0.4200
  160SAPE  H11R17894   1.815   0.376   7.823  0.6209 -0.7119  0.1366
  160SAPE  C21217895   1.909   0.498   7.954  0.2340 -0.0347 -0.2272
  160SAPE  H12R17896   1.815   0.494   8.010  0.4186  3.2914  0.4921
  160SAPE  C21317897   2.012   0.591   7.993  0.3214  0.1496  0.1352
  160SAPE  H13R17898   2.068   0.620   7.902 -3.0185 -0.4013 -2.2777
  160SAPE  H13S17899   2.076   0.527   8.058  1.2870 -0.8169 -1.6821
  160SAPE  C21417900   1.957   0.712   8.053 -0.1187 -0.4044  0.2277
  160SAPE  H14R17901   1.865   0.754   8.010  0.9304  0.7676 -0.9311
  160SAPE  C21517902   2.014   0.775   8.158 -0.1583 -0.4579 -0.1953
  160SAPE  H15R17903   1.974   0.875   8.181 -3.5477 -1.1963 -2.1647
  160SAPE  C21617904   2.133   0.733   8.239  0.4481 -0.6484  0.6375
  160SAPE  H16R17905   2.196   0.823   8.255 -0.8368  0.7208 -1.4670
  160SAPE  H16S17906   2.199   0.657   8.193  1.5538  0.0438  1.0350
  160SAPE  C21717907   2.096   0.677   8.375 -0.4510 -0.1502 -0.0870
  160SAPE  H17R17908   1.999   0.626   8.360 -1.7002  1.9978  0.2485
  160SAPE  H17S17909   2.078   0.754   8.454 -0.6439 -0.4540  0.1673
  160SAPE  C21817910   2.195   0.564   8.431 -0.2068 -0.0927  0.7822
  160SAPE  H18R17911   2.296   0.603   8.456  1.5682 -1.5022 -3.4318
  160SAPE  H18S17912   2.218   0.493   8.350  0.1879  1.7606 -0.8143
  160SAPE  C21917913   2.136   0.508   8.560  0.0908 -1.0514 -0.2150
  160SAPE  H19R17914   2.036   0.474   8.526  0.1718 -2.4272  0.7878
  160SAPE  H19S17915   2.112   0.588   8.633 -1.7373 -0.9552 -0.8618
  160SAPE  C22017916   2.217   0.395   8.620  0.3827  1.0620  0.1904
  160SAPE  H20R17917   2.244   0.396   8.727  0.7692 -0.8714  0.1595
  160SAPE  H20S17918   2.316   0.380   8.572 -0.0481  1.7601 -0.9693
  160SAPE  H20T17919   2.159   0.300   8.609  0.0835  1.2751 -0.1027
  160SAPE   C3317920   1.609   0.267   7.306  0.0677  0.7377 -0.4085
  160SAPE   H3X17921   1.697   0.202   7.288 -0.6418 -0.8415  1.3829
  160SAPE   H3Y17922   1.520   0.201   7.315  0.5507  0.1365 -0.0222
  160SAPE   C3417923   1.628   0.341   7.438 -0.0091  0.1780 -0.4288
  160SAPE   H4X17924   1.701   0.425   7.433  0.7282 -0.2222  2.1244
  160SAPE   H4Y17925   1.669   0.269   7.512 -2.0301 -0.9977 -0.3779
  160SAPE   C3517926   1.500   0.396   7.491  0.7373  0.6025 -0.3778
  160SAPE   H5X17927   1.414   0.330   7.467  1.1605 -0.6535  1.3045
  160SAPE   H5Y17928   1.475   0.484   7.428  1.3848  0.4102 -0.9166
  160SAPE   C3617929   1.504   0.434   7.639  0.0412 -0.7071 -0.3304
  160SAPE   H6X17930   1.515   0.341   7.698  1.2750 -0.2355  0.2130
  160SAPE   H6Y17931   1.403   0.475   7.663  0.9235 -0.0171  2.6002
  160SAPE   C3717932   1.615   0.541   7.676 -0.2006  0.8653  0.2482
  160SAPE   H7X17933   1.625   0.592   7.578 -2.1741 -0.3139 -0.6336
  160SAPE   H7Y17934   1.716   0.495   7.667 -0.6978  0.0798 -1.9022
  160SAPE   C3817935   1.578   0.650   7.772  0.1414  0.6967 -0.0619
  160SAPE   H8X17936   1.575   0.601   7.872  0.0572 -1.5019 -1.0671
  160SAPE   H8Y17937   1.481   0.702   7.762 -0.4804  0.1778  2.5172
  160SAPE   C3917938   1.686   0.756   7.770 -0.3546 -1.2424 -0.0417
  160SAPE   H9X17939   1.729   0.787   7.672  2.5348 -3.0563  0.5176
  160SAPE   H9Y17940   1.773   0.706   7.818  1.6435 -0.3651 -2.4804
  160SAPE  C31017941   1.666   0.876   7.860  0.3043  0.0999  0.0446
  160SAPE  H10X17942   1.760   0.936   7.864 -0.1791  0.9666 -0.9576
  160SAPE  H10Y17943   1.635   0.855   7.964 -1.6362  1.9482 -0.1044
  160SAPE  C31117944   1.547   0.961   7.811 -0.6042 -0.2415  0.0935
  160SAPE  H11X17945   1.444   0.923   7.826 -1.0530  1.6694  2.6540
  160SAPE  H11Y17946   1.556   0.985   7.703  0.2553 -1.4608 -0.1281
  160SAPE  C31217947   1.546   1.101   7.877 -0.3777  0.5413  0.1515
  160SAPE  H12X17948   1.494   1.171   7.808 -0.1062 -0.3289 -0.9685
  160SAPE  H12Y17949   1.645   1.149   7.888  0.0456 -0.4175  0.6627
  160SAPE  C31317950   1.463   1.108   8.006  0.1930  0.4167 -0.0460
  160SAPE  H13X17951   1.499   1.029   8.075 -0.6296 -1.8653 -2.0649
  160SAPE  H13Y17952   1.354   1.098   7.986 -0.4885  4.2443  0.8459
  160SAPE  C31417953   1.478   1.239   8.078  0.5247 -0.2418 -0.2248
  160SAPE  H14X17954   1.408   1.316   8.037  0.6087 -0.7173 -1.2902
  160SAPE  H14Y17955   1.575   1.280   8.043  0.1560 -0.0857 -1.1009
  160SAPE  C31517956   1.458   1.248   8.230 -0.2596  0.1086  1.0885
  160SAPE  H15X17957   1.536   1.193   8.287 -0.6684 -0.2129  1.3436
  160SAPE  H15Y17958   1.355   1.216   8.257  0.1327 -0.8448  1.4976
  160SAPE  C31617959   1.469   1.396   8.271  0.3712  0.0643 -0.0834
  160SAPE  H16X17960   1.382   1.439   8.218  1.3700 -0.0965 -1.9576
  160SAPE  H16Y17961   1.556   1.444   8.220  0.8897 -0.4670  0.2825
  160SAPE  C31717962   1.466   1.441   8.417 -0.1178 -0.5782 -0.0138
  160SAPE  H17X17963   1.366   1.408   8.453 -1.0458  0.4371 -1.5504
  160SAPE  H17Y17964   1.470   1.552   8.419  0.2568 -0.4882 -2.7127
  160SAPE  C31817965   1.583   1.394   8.514 -0.3828 -0.6278  0.2786
  160SAPE  H18X17966   1.663   1.471   8.521 -2.9800  2.4249 -0.7039
  160SAPE  H18Y17967   1.635   1.301   8.483 -2.7123 -2.7809  2.3733
  160SAPE  H18Z17968   1.545   1.388   8.618 -1.0574  1.5994  0.2093
  161SOPE     N17969   4.531   1.161  11.226 -0.2028 -0.2389  0.6065
  161SOPE   HN117970   4.507   1.073  11.277  2.2269 -1.4099 -0.1241
  161SOPE   HN217971   4.565   1.118  11.138 -2.2274 -0.3036 -0.1967
  161SOPE   HN317972   4.598   1.218  11.282 -0.6411  1.0317 -0.1230
  161SOPE   C1217973   4.413   1.246  11.198  1.1955  0.0468 -0.1639
  161SOPE  H12A17974   4.404   1.311  11.287  0.6794 -0.5622  0.2389
  161SOPE  H12B17975   4.331   1.171  11.199  0.7077  0.5399  1.9242
  161SOPE   C1117976   4.419   1.329  11.068  0.8393 -0.2208 -0.5428
  161SOPE  H11A17977   4.506   1.396  11.085  2.5644 -2.8469  1.8976
  161SOPE  H11B17978   4.326   1.389  11.056  0.1872  0.0547  4.1062
  161SOPE     P17979   4.329   1.178  10.877  0.0432 -0.2526  0.2463
  161SOPE   O1317980   4.271   1.082  10.974  0.0150 -0.5420 -0.1608
  161SOPE   O1417981   4.389   1.118  10.756  0.4872  0.5046 -0.1482
  161SOPE   O1217982   4.441   1.253  10.953 -0.6384  0.2665  0.3827
  161SOPE   O1117983   4.225   1.288  10.840  0.1852 -0.3569  0.2888
  161SOPE    C117984   4.248   1.406  10.768 -0.3422 -0.1640  0.8806
  161SOPE    HA17985   4.351   1.448  10.776  0.9400 -2.8023 -0.3228
  161SOPE    HB17986   4.184   1.481  10.819 -0.4350 -1.8978  3.5428
  161SOPE    C217987   4.205   1.402  10.621  0.2564 -0.1381 -0.0501
  161SOPE    HS17988   4.267   1.336  10.556 -0.7974  2.0378 -3.5470
  161SOPE   O2117989   4.216   1.543  10.567 -0.0358  0.0513  0.1162
  161SOPE   C2117990   4.238   1.546  10.439  0.3037 -0.0358  0.0003
  161SOPE   O2217991   4.245   1.446  10.366 -0.2313 -0.5309 -0.2876
  161SOPE   C2217992   4.235   1.694  10.405  0.5480 -0.4086  0.4035
  161SOPE   H2R17993   4.319   1.749  10.454  1.8148 -0.9634 -1.0475
  161SOPE   H2S17994   4.137   1.729  10.443  0.7345  1.0630 -0.3984
  161SOPE    C317995   4.054   1.353  10.615 -0.1363 -0.0781  0.0470
  161SOPE    HX17996   4.009   1.412  10.697 -0.7158  2.0772 -1.7410
  161SOPE    HY17997   4.047   1.249  10.654 -1.1924  0.0720  0.2742
  161SOPE   O3117998   3.986   1.376  10.488 -0.4249 -0.4202 -0.3405
  161SOPE   C3117999   3.942   1.268  10.425 -0.0801 -0.0576  0.2041
  161SOPE   O3218000   3.960   1.157  10.462 -0.3195  0.2307 -0.4633
  161SOPE   C3218001   3.871   1.293  10.292 -0.3392 -0.7327 -0.0018
  161SOPE   H2X18002   3.777   1.352  10.303  0.2347 -0.0256  1.3005
  161SOPE   H2Y18003   3.846   1.198  10.239  2.3157 -0.9381 -1.0364
  161SOPE   C2318004   4.250   1.710  10.253  0.9875 -0.2173  0.1742
  161SOPE   H3R18005   4.159   1.675  10.200  1.4903 -0.0714 -0.8074
  161SOPE   H3S18006   4.333   1.646  10.215 -0.8760 -1.9140 -1.2657
  161SOPE   C2418007   4.274   1.855  10.210  0.4023 -0.4483 -0.5213
  161SOPE   H4R18008   4.202   1.922  10.260  1.1350 -0.5020  0.6520
  161SOPE   H4S18009   4.371   1.899  10.241 -0.9364  0.4707  2.6663
  161SOPE   C2518010   4.255   1.866  10.060 -0.3304  0.0264  0.6337
  161SOPE   H5R18011   4.336   1.804  10.015  0.4063 -1.0182  3.1867
  161SOPE   H5S18012   4.157   1.821  10.036 -0.9727  1.0203  1.3244
  161SOPE   C2618013   4.275   2.002  10.003 -0.5022 -0.0717  0.0416
  161SOPE   H6R18014   4.376   2.049  10.012 -0.8252  1.2014 -2.1205
  161SOPE   H6S18015   4.259   1.993   9.893  1.5171  0.9577 -0.3952
  161SOPE   C2718016   4.162   2.096  10.048 -0.2796 -0.2578  0.7438
  161SOPE   H7R18017   4.067   2.052  10.010  0.6646 -2.0986  0.4271
  161SOPE   H7S18018   4.153   2.100  10.159 -0.4871 -0.8880  0.7509
  161SOPE   C2818019   4.170   2.235   9.981 -0.4566  0.9433  0.1607
  161SOPE   H8R18020   4.261   2.276  10.031 -0.6690  1.0515  0.4579
  161SOPE   H8S18021   4.190   2.225   9.872 -0.7345  0.8527  0.1187
  161SOPE   C2918022   4.054   2.327  10.005  0.1775  0.4823  0.1074
  161SOPE   H9118023   4.061   2.407  10.079  0.9708 -0.7109  1.3728
  161SOPE  C21018024   3.949   2.331   9.917  0.3525 -0.5251  0.2748
  161SOPE  H10118025   3.875   2.410   9.938  0.2587 -0.4223 -0.4335
  161SOPE  C21118026   3.934   2.250   9.791  0.5420 -0.3943 -0.2843
  161SOPE  H11R18027   3.834   2.206   9.772 -0.0896  0.9029 -0.0385
  161SOPE  H11S18028   3.997   2.160   9.806  2.6488  1.2510  1.2934
  161SOPE  C21218029   3.983   2.328   9.665 -0.2101  0.4897 -0.0331
  161SOPE  H12R18030   3.990   2.269   9.570  0.6232  0.8186 -0.1802
  161SOPE  H12S18031   4.089   2.355   9.682 -0.4004  2.3647 -1.4128
  161SOPE  C21318032   3.909   2.459   9.643 -0.3677  0.1420  0.5594
  161SOPE  H13R18033   3.959   2.509   9.558  1.4424 -0.5186  1.1973
  161SOPE  H13S18034   3.911   2.530   9.728 -0.4435 -0.2738  0.9135
  161SOPE  C21418035   3.763   2.443   9.623  1.0499  0.6757  1.2698
  161SOPE  H14R18036   3.729   2.378   9.706 -0.2901  0.2012  0.3899
  161SOPE  H14S18037   3.755   2.380   9.531  1.3674  2.7922 -0.2898
  161SOPE  C21518038   3.678   2.574   9.604 -0.5360  0.7899  0.6807
  161SOPE  H15R18039   3.681   2.642   9.692 -3.1428  3.4600 -1.1081
  161SOPE  H15S18040   3.573   2.540   9.597 -0.4449  0.5736  0.3577
  161SOPE  C21618041   3.709   2.663   9.481  0.2268  0.6224 -0.4019
  161SOPE  H16R18042   3.695   2.591   9.397  3.1491 -1.9045  1.0639
  161SOPE  H16S18043   3.818   2.685   9.479  0.1633  0.9566 -0.2494
  161SOPE  C21718044   3.619   2.782   9.468 -0.3085 -0.1686 -0.3403
  161SOPE  H17R18045   3.612   2.837   9.564  1.4426  1.2989 -1.0006
  161SOPE  H17S18046   3.521   2.745   9.431  1.0612 -1.3118 -3.1264
  161SOPE  C21818047   3.667   2.862   9.350  0.3998  0.5800  0.1121
  161SOPE  H18R18048   3.618   2.811   9.265 -1.1072  1.8040  0.1931
  161SOPE  H18S18049   3.775   2.886   9.339  0.9451 -1.6206  0.1954
  161SOPE  H18T18050   3.619   2.962   9.346 -1.1161 -0.1571 -2.6096
  161SOPE   C3318051   3.959   1.383  10.207  0.7445  0.5750 -0.1008
  161SOPE   H3X18052   3.989   1.471  10.268 -0.7663  0.1287  1.3860
  161SOPE   H3Y18053   3.886   1.429  10.138  0.4579  0.1216 -0.1048
  161SOPE   C3418054   4.066   1.307  10.131 -0.1225  0.3459 -0.0398
  161SOPE   H4X18055   4.022   1.230  10.064  1.6357  0.9605 -2.0161
  161SOPE   H4Y18056   4.118   1.255  10.214 -1.7491 -0.9192  0.2429
  161SOPE   C3518057   4.167   1.388  10.042 -0.0975  0.5403 -0.5938
  161SOPE   H5X18058   4.246   1.317  10.011 -1.5479 -0.5391 -2.0355
  161SOPE   H5Y18059   4.217   1.460  10.110 -2.4102  0.9027  0.8277
  161SOPE   C3618060   4.102   1.463   9.925 -0.5396  0.1305 -0.2761
  161SOPE   H6X18061   4.036   1.545   9.960 -0.2327 -0.3648  1.5714
  161SOPE   H6Y18062   4.031   1.398   9.870  0.8966 -0.6194 -1.3141
  161SOPE   C3718063   4.202   1.512   9.820  0.2283 -0.0891  0.4482
  161SOPE   H7X18064   4.259   1.418   9.801  0.4106 -0.3228  2.0039
  161SOPE   H7Y18065   4.272   1.587   9.862  1.3867 -1.4094  0.9580
  161SOPE   C3818066   4.135   1.556   9.697 -0.3139 -0.1191  0.2608
  161SOPE   H8X18067   4.093   1.658   9.710 -2.2695 -0.9150  0.4903
  161SOPE   H8Y18068   4.053   1.483   9.680 -0.9871  0.5962  0.3537
  161SOPE   C3918069   4.243   1.550   9.580 -0.4785 -0.3986 -0.2080
  161SOPE   H9X18070   4.279   1.447   9.560  1.4103  0.5991 -2.4751
  161SOPE   H9Y18071   4.330   1.616   9.598 -0.3918 -0.2370 -1.1846
  161SOPE  C31018072   4.177   1.612   9.460  0.4344  0.7192  0.1232
  161SOPE  H10X18073   4.139   1.715   9.480 -2.2700 -0.1868  0.1082
  161SOPE  H10Y18074   4.093   1.550   9.420 -0.0283  0.9501  0.7083
  161SOPE  C31118075   4.284   1.636   9.348 -0.3064  0.3302  0.4874
  161SOPE  H11X18076   4.304   1.533   9.313  1.2247  0.8706 -0.3302
  161SOPE  H11Y18077   4.378   1.681   9.387 -0.2589 -0.6292  1.5235
  161SOPE  C31218078   4.227   1.719   9.225 -0.4697  0.2063  0.8541
  161SOPE  H12X18079   4.190   1.816   9.265  0.6637  0.6671  0.8015
  161SOPE  H12Y18080   4.135   1.662   9.199 -0.2367  0.0174  0.4487
  161SOPE  C31318081   4.333   1.740   9.113 -0.3250 -0.3784  0.1395
  161SOPE  H13X18082   4.381   1.644   9.084  0.0035  0.1347 -1.0504
  161SOPE  H13Y18083   4.416   1.807   9.146 -1.7450  0.3353  2.5030
  161SOPE  C31418084   4.285   1.799   8.975  0.2836  0.4354  0.0685
  161SOPE  H14X18085   4.202   1.734   8.942  0.1411  0.1566  0.9506
  161SOPE  H14Y18086   4.373   1.789   8.907 -0.3238 -0.3276 -0.6105
  161SOPE  C31518087   4.228   1.941   8.989  0.5394 -0.1025 -0.4111
  161SOPE  H15X18088   4.149   1.941   9.068 -0.2745  0.1830 -1.2088
  161SOPE  H15Y18089   4.181   1.977   8.895 -1.6412  0.7288  0.9325
  161SOPE  C31618090   4.343   2.040   9.019  0.0037 -0.5343  0.2229
  161SOPE  H16X18091   4.429   2.011   8.956 -1.4271 -0.0491 -2.0831
  161SOPE  H16Y18092   4.370   2.018   9.125 -0.3340 -0.9973  0.2161
  161SOPE  C31718093   4.303   2.191   8.998 -0.0979 -0.0752  0.3123
  161SOPE  H17X18094   4.386   2.252   9.039  1.0894 -1.2191 -0.3280
  161SOPE  H17Y18095   4.209   2.213   9.053 -1.2521 -0.2246 -1.5094
  161SOPE  C31818096   4.275   2.236   8.854 -0.5618 -0.1762 -0.4685
  161SOPE  H18X18097   4.203   2.163   8.811  1.8357 -3.2039  0.2948
  161SOPE  H18Y18098   4.371   2.222   8.800 -0.1362 -0.3152  0.3110
  161SOPE  H18Z18099   4.239   2.340   8.839 -0.3518 -0.5439 -5.2571
  162SOPE     N18100   4.064   0.864  10.913  0.0997  0.3995  0.1892
  162SOPE   HN118101   4.046   0.762  10.910  0.1297  0.3105  1.9784
  162SOPE   HN218102   3.989   0.917  10.864  0.3202  2.1714  1.6510
  162SOPE   HN318103   4.161   0.877  10.878  0.0283  2.1844  0.5471
  162SOPE   C1218104   4.044   0.894  11.060 -0.1415 -0.1014  0.1452
  162SOPE  H12A18105   4.060   1.003  11.071  0.0189  0.1070 -1.7924
  162SOPE  H12B18106   4.117   0.831  11.115 -0.1166  0.3188  0.6043
  162SOPE   C1118107   3.896   0.862  11.084  0.2020  0.2215  0.3467
  162SOPE  H11A18108   3.860   0.873  11.188  0.3948 -0.4890  0.4904
  162SOPE  H11B18109   3.880   0.753  11.075 -0.5404  0.3009  0.6791
  162SOPE     P18110   3.758   1.072  11.041  0.2584 -0.1096 -0.2664
  162SOPE   O1318111   3.819   1.173  10.961  0.0088 -0.3878  0.0837
  162SOPE   O1418112   3.766   1.086  11.186 -0.3907  0.0385  0.1229
  162SOPE   O1218113   3.815   0.932  10.995  0.0417 -0.4715 -0.6350
  162SOPE   O1118114   3.610   1.063  10.995 -0.6977 -0.1859  0.0552
  162SOPE    C118115   3.557   0.976  10.898 -0.6161 -0.0504 -0.4570
  162SOPE    HA18116   3.447   0.969  10.911 -0.7296 -1.8089 -2.0277
  162SOPE    HB18117   3.590   0.870  10.908  1.0523  0.4738 -0.0770
  162SOPE    C218118   3.572   1.026  10.751 -0.2690 -0.6402  0.2918
  162SOPE    HS18119   3.676   1.001  10.720 -0.3508  0.7350 -1.1886
  162SOPE   O2118120   3.540   1.164  10.738  0.2079  0.2383  0.2034
  162SOPE   C2118121   3.615   1.237  10.646 -1.0889  0.4769  0.2570
  162SOPE   O2218122   3.704   1.185  10.578 -0.0393  0.5456  0.3678
  162SOPE   C2218123   3.555   1.380  10.646  0.0016 -0.6152 -0.5305
  162SOPE   H2R18124   3.615   1.448  10.711 -1.8820 -0.0605  0.7264
  162SOPE   H2S18125   3.448   1.378  10.675  0.2808 -2.1561  0.5840
  162SOPE    C318126   3.488   0.941  10.657 -1.4119  0.0924 -0.2974
  162SOPE    HX18127   3.382   0.966  10.678 -1.0984  0.4201  0.9727
  162SOPE    HY18128   3.514   0.837  10.686  2.7961  0.9860 -0.0893
  162SOPE   O3118129   3.528   0.973  10.516 -0.2528 -0.5525 -0.4929
  162SOPE   C3118130   3.623   0.894  10.460 -0.1532 -0.0097  0.2925
  162SOPE   O3218131   3.661   0.789  10.509  0.0630  0.2149  0.1715
  162SOPE   C3218132   3.652   0.934  10.318  0.5810  0.1601 -0.2933
  162SOPE   H2X18133   3.738   1.003  10.328 -0.6761  1.8400 -0.6637
  162SOPE   H2Y18134   3.569   0.993  10.275  0.0696 -1.2794 -1.3814
  162SOPE   C2318135   3.551   1.437  10.502 -0.0365  0.2513 -0.0182
  162SOPE   H3R18136   3.654   1.452  10.461  1.3841 -2.8146  2.0643
  162SOPE   H3S18137   3.501   1.533  10.527 -1.0898 -0.2780 -0.0364
  162SOPE   C2418138   3.472   1.344  10.405 -0.6725 -0.4132 -0.0179
  162SOPE   H4R18139   3.521   1.244  10.406 -0.1946 -0.1772  0.0086
  162SOPE   H4S18140   3.366   1.330  10.437 -0.8787  2.7897  1.0415
  162SOPE   C2518141   3.480   1.402  10.258  0.0379 -0.5768 -1.2714
  162SOPE   H5R18142   3.417   1.492  10.243 -1.4367 -0.8025  2.3647
  162SOPE   H5S18143   3.587   1.433  10.252 -0.6500  3.5513  2.6288
  162SOPE   C2618144   3.448   1.303  10.142 -0.2528 -0.2788  0.3286
  162SOPE   H6R18145   3.525   1.223  10.151  1.6674  1.5739  1.2099
  162SOPE   H6S18146   3.343   1.269  10.148 -0.0907 -0.8838 -0.1131
  162SOPE   C2718147   3.447   1.364  10.004  0.0408 -0.2527 -0.5580
  162SOPE   H7R18148   3.417   1.287   9.930  2.3723 -2.1317  0.3405
  162SOPE   H7S18149   3.376   1.450  10.008 -0.9937 -1.0845 -0.6761
  162SOPE   C2818150   3.589   1.409   9.949  0.0346  0.3041  0.2170
  162SOPE   H8R18151   3.573   1.483   9.867 -1.1596  2.1787  2.0634
  162SOPE   H8S18152   3.639   1.470  10.027 -0.5662 -0.3894  1.1575
  162SOPE   C2918153   3.688   1.300   9.914 -0.1516  0.1065  0.0748
  162SOPE   H9118154   3.697   1.225   9.993 -1.7947  0.1829  0.3782
  162SOPE  C21018155   3.744   1.277   9.793 -0.1760 -0.1579  0.6879
  162SOPE  H10118156   3.809   1.189   9.782 -0.9275 -0.3996 -2.5908
  162SOPE  C21118157   3.721   1.357   9.664  0.2491  0.1236  0.1584
  162SOPE  H11R18158   3.819   1.390   9.622  0.4922 -1.3471 -0.4908
  162SOPE  H11S18159   3.651   1.441   9.683  0.3454  0.0681  0.7614
  162SOPE  C21218160   3.674   1.269   9.540  0.4270  0.1969  0.4654
  162SOPE  H12R18161   3.571   1.236   9.565 -0.2747  0.5404 -1.7303
  162SOPE  H12S18162   3.747   1.185   9.541  0.7658  0.4981  0.9955
  162SOPE  C21318163   3.674   1.335   9.405  0.1307 -0.8069  0.0612
  162SOPE  H13R18164   3.770   1.391   9.397 -0.7961  0.8694  0.2533
  162SOPE  H13S18165   3.584   1.400   9.400  0.6414 -0.1071 -0.2226
  162SOPE  C21418166   3.656   1.244   9.287  0.5987  0.0575  0.7048
  162SOPE  H14R18167   3.561   1.187   9.293  0.8079 -0.5790 -1.2781
  162SOPE  H14S18168   3.738   1.169   9.276  0.1901 -0.1044 -2.3819
  162SOPE  C21518169   3.650   1.341   9.163  0.1766 -0.2573  0.3416
  162SOPE  H15R18170   3.744   1.399   9.163 -0.3196  0.5594  0.0617
  162SOPE  H15S18171   3.561   1.407   9.175  0.2848  0.1396 -0.9734
  162SOPE  C21618172   3.647   1.257   9.033  0.2772  0.3242  0.3100
  162SOPE  H16R18173   3.541   1.225   9.024 -0.5188  2.3193  1.8808
  162SOPE  H16S18174   3.716   1.171   9.041  0.4733  0.5866  1.6795
  162SOPE  C21718175   3.679   1.343   8.910 -0.1606  0.4425  0.4615
  162SOPE  H17R18176   3.734   1.272   8.844 -3.2074  0.3422 -2.2183
  162SOPE  H17S18177   3.747   1.430   8.920  0.5566  0.5568 -3.6391
  162SOPE  C21818178   3.559   1.386   8.820 -0.0452 -0.4491 -0.2287
  162SOPE  H18R18179   3.600   1.429   8.726  2.6259 -2.0631  0.0924
  162SOPE  H18S18180   3.507   1.460   8.883  2.3804 -0.0578  1.4529
  162SOPE  H18T18181   3.491   1.299   8.806  2.5831 -2.8844  1.1650
  162SOPE   C3318182   3.689   0.810  10.226  0.2664 -0.3926  0.6922
  162SOPE   H3X18183   3.625   0.719  10.219  0.4578 -0.4623 -0.2785
  162SOPE   H3Y18184   3.785   0.770  10.265  1.2651  1.0619 -0.1956
  162SOPE   C3418185   3.712   0.862  10.082  0.3739  0.0837 -0.1805
  162SOPE   H4X18186   3.794   0.936  10.096  0.9174 -0.7695  1.3098
  162SOPE   H4Y18187   3.630   0.920  10.034 -0.5619 -0.8104  0.3252
  162SOPE   C3518188   3.760   0.749   9.994 -0.0224  0.6870  0.6485
  162SOPE   H5X18189   3.675   0.677   9.989  1.3630 -0.8956 -1.8772
  162SOPE   H5Y18190   3.840   0.695  10.047 -0.2113  1.7070  2.0362
  162SOPE   C3618191   3.795   0.797   9.850  0.4717  0.4840  0.3591
  162SOPE   H6X18192   3.857   0.889   9.851 -0.1807  1.0007 -1.7253
  162SOPE   H6Y18193   3.703   0.842   9.808 -0.1405  1.0956  2.2334
  162SOPE   C3718194   3.840   0.677   9.763  0.0139 -0.5998  0.2288
  162SOPE   H7X18195   3.765   0.596   9.754 -2.1676  0.5651  4.7485
  162SOPE   H7Y18196   3.921   0.625   9.821  1.6066  2.2455  0.7352
  162SOPE   C3818197   3.904   0.713   9.628 -0.0082  0.2189 -0.6780
  162SOPE   H8X18198   3.965   0.628   9.590  3.3622  2.1066  0.0444
  162SOPE   H8Y18199   3.984   0.785   9.657  0.6229 -0.2812 -1.1613
  162SOPE   C3918200   3.808   0.766   9.522  0.2320 -0.1776 -0.2448
  162SOPE   H9X18201   3.751   0.840   9.581  0.4359  1.5992 -2.1484
  162SOPE   H9Y18202   3.734   0.691   9.487 -1.1487  0.8056  0.5252
  162SOPE  C31018203   3.886   0.826   9.407 -0.9844 -0.0172 -0.1017
  162SOPE  H10X18204   3.970   0.891   9.441 -1.4602  0.3385  0.4155
  162SOPE  H10Y18205   3.832   0.889   9.333 -0.5646 -0.3097 -0.6642
  162SOPE  C31118206   3.960   0.706   9.335 -0.1940  0.0892  0.0403
  162SOPE  H11X18207   3.897   0.615   9.341 -0.4284  0.3101  1.3685
  162SOPE  H11Y18208   4.046   0.686   9.401  0.0311 -1.6295 -0.7261
  162SOPE  C31218209   4.005   0.738   9.191 -0.2746 -1.4640  0.2194
  162SOPE  H12X18210   4.075   0.661   9.152  0.0466 -2.5635  2.7795
  162SOPE  H12Y18211   4.058   0.836   9.190  1.3476 -2.3120 -0.7119
  162SOPE  C31318212   3.887   0.759   9.106  0.4272 -0.3728  0.0773
  162SOPE  H13X18213   3.804   0.803   9.164  1.3466  0.1549  1.0226
  162SOPE  H13Y18214   3.847   0.662   9.069 -1.5045  0.3776  0.1130
  162SOPE  C31418215   3.915   0.848   8.980 -0.5404 -0.2001 -0.0425
  162SOPE  H14X18216   3.937   0.953   9.007  0.3168 -0.6555  1.1084
  162SOPE  H14Y18217   3.813   0.851   8.934 -1.9558  1.3809  2.9418
  162SOPE  C31518218   4.013   0.788   8.880  0.0649  0.3178 -1.0439
  162SOPE  H15X18219   3.979   0.687   8.848  0.4409 -0.8418  1.9100
  162SOPE  H15Y18220   4.107   0.769   8.935  0.6928 -2.4711 -2.8792
  162SOPE  C31618221   4.042   0.879   8.759 -0.1563  0.1908  0.3339
  162SOPE  H16X18222   4.018   0.986   8.780 -1.6896 -0.1864  0.6695
  162SOPE  H16Y18223   3.967   0.842   8.686 -1.9089  0.1014  2.1079
  162SOPE  C31718224   4.184   0.854   8.706  1.9355  0.2307  0.0931
  162SOPE  H17X18225   4.251   0.906   8.778  1.6918 -0.1375  0.5914
  162SOPE  H17Y18226   4.199   0.908   8.610  0.4291 -2.3393 -1.7121
  162SOPE  C31818227   4.232   0.709   8.686  0.7452 -0.0382  0.2143
  162SOPE  H18X18228   4.338   0.700   8.655  0.7199  1.2370 -0.3049
  162SOPE  H18Y18229   4.173   0.670   8.600  0.4857  1.0952 -0.1401
  162SOPE  H18Z18230   4.217   0.638   8.770  0.5735  0.4662  0.6184
  163SOPE     N18231   5.138   5.442  11.188  0.0421 -0.4835 -0.1788
  163SOPE   HN118232   5.064   5.514  11.176  0.3392 -0.1172  0.1490
  163SOPE   HN218233   5.082   5.355  11.180  0.8936 -0.9927 -0.7874
  163SOPE   HN318234   5.184   5.454  11.281  2.2044  0.8645 -1.3413
  163SOPE   C1218235   5.226   5.470  11.075 -0.5305  0.0127  0.2433
  163SOPE  H12A18236   5.313   5.401  11.067 -0.8435 -0.2891 -0.7957
  163SOPE  H12B18237   5.274   5.570  11.082 -2.3884  0.9692 -0.0023
  163SOPE   C1118238   5.137   5.473  10.950 -0.0120  0.4904  0.4521
  163SOPE  H11A18239   5.127   5.367  10.918  1.4789 -0.1148  1.8424
  163SOPE  H11B18240   5.181   5.527  10.864 -1.7702 -1.6740 -1.9812
  163SOPE     P18241   4.894   5.514  10.870  0.5350 -0.0914  0.3119
  163SOPE   O1318242   4.793   5.621  10.883  0.1367 -0.3414  0.5140
  163SOPE   O1418243   4.844   5.374  10.880  0.4569  1.0516  0.5669
  163SOPE   O1218244   5.012   5.536  10.978  0.1758 -0.7100 -0.7214
  163SOPE   O1118245   4.968   5.528  10.737  0.3906 -0.1252  0.3544
  163SOPE    C118246   5.034   5.638  10.686  0.1931 -0.7732  0.1461
  163SOPE    HA18247   5.123   5.597  10.633  1.6337 -0.9765  2.5567
  163SOPE    HB18248   5.078   5.703  10.765 -2.8644 -0.3022  1.6115
  163SOPE    C218249   4.939   5.727  10.593 -0.9656  0.0107 -1.0831
  163SOPE    HS18250   4.856   5.764  10.655 -0.9293 -0.1717 -0.9244
  163SOPE   O2118251   4.887   5.639  10.496 -0.3869 -0.0089  0.5043
  163SOPE   C2118252   4.766   5.657  10.441  0.2474 -0.2094  0.0913
  163SOPE   O2218253   4.692   5.752  10.469  0.4561 -0.5154  0.1858
  163SOPE   C2218254   4.733   5.547  10.342 -0.4605 -0.3058 -0.0406
  163SOPE   H2R18255   4.632   5.511  10.374 -0.4884  0.6583  0.9806
  163SOPE   H2S18256   4.803   5.461  10.353  1.5185  0.9880 -1.7775
  163SOPE    C318257   5.017   5.846  10.523  0.0213 -0.5172  0.1945
  163SOPE    HX18258   5.025   5.926  10.600  0.0513 -2.4395  2.2697
  163SOPE    HY18259   4.934   5.871  10.453  1.2182  0.0024 -1.0961
  163SOPE   O3118260   5.142   5.811  10.459 -1.1246 -0.1439  0.3524
  163SOPE   C3118261   5.173   5.882  10.349  0.2691  0.1328 -0.1602
  163SOPE   O3218262   5.101   5.965  10.298 -0.1119  0.3725  0.2301
  163SOPE   C3218263   5.286   5.816  10.275 -0.2725 -0.1934  0.3702
  163SOPE   H2X18264   5.252   5.734  10.209 -0.1853  0.6323 -0.7343
  163SOPE   H2Y18265   5.354   5.769  10.350  2.5278  0.3465 -1.6717
  163SOPE   C2318266   4.728   5.606  10.199 -0.9186 -0.5608  1.1956
  163SOPE   H3R18267   4.665   5.698  10.197  0.7114  0.5882 -0.2993
  163SOPE   H3S18268   4.688   5.542  10.118  2.7328  0.8465 -2.0371
  163SOPE   C2418269   4.856   5.647  10.137 -0.2357  0.5982 -0.1392
  163SOPE   H4R18270   4.866   5.757  10.149 -1.4428  0.9916 -2.4092
  163SOPE   H4S18271   4.948   5.595  10.174  0.2471  2.2086  1.0259
  163SOPE   C2518272   4.871   5.625   9.984 -0.3122  0.1459 -0.2871
  163SOPE   H5R18273   4.903   5.520   9.970  2.1385  0.9559 -1.3532
  163SOPE   H5S18274   4.779   5.652   9.927 -0.1340 -1.8582 -1.6042
  163SOPE   C2618275   4.998   5.698   9.928 -0.2775 -0.0118  0.4998
  163SOPE   H6R18276   4.987   5.807   9.943 -0.8223  0.1927 -1.1448
  163SOPE   H6S18277   5.084   5.668   9.992  0.3466 -0.5673 -0.5510
  163SOPE   C2718278   5.035   5.665   9.782  0.4374 -1.0618  0.2569
  163SOPE   H7R18279   5.141   5.695   9.764  0.8261 -1.7410  1.3059
  163SOPE   H7S18280   5.023   5.555   9.769  0.7972 -1.2485  1.4169
  163SOPE   C2818281   4.951   5.737   9.674 -0.0788  0.0352  0.1688
  163SOPE   H8R18282   4.965   5.699   9.570 -1.0677  3.2867 -1.2842
  163SOPE   H8S18283   4.846   5.717   9.703 -0.4055 -0.2957 -1.1559
  163SOPE   C2918284   4.975   5.883   9.648  1.1404  0.9503 -0.0920
  163SOPE   H9118285   4.941   5.949   9.729  1.7979 -0.1970  1.1648
  163SOPE  C21018286   5.051   5.939   9.561 -0.5211  0.2800  0.8549
  163SOPE  H10118287   5.069   6.048   9.559  2.6721 -0.1223 -2.0709
  163SOPE  C21118288   5.118   5.862   9.447  0.6832  0.1362 -0.1448
  163SOPE  H11R18289   5.059   5.776   9.406 -0.6848  1.7635 -1.7903
  163SOPE  H11S18290   5.217   5.827   9.484  0.5854  1.0589  1.0200
  163SOPE  C21218291   5.159   5.949   9.323 -0.1114 -0.4561 -1.1715
  163SOPE  H12R18292   5.213   5.882   9.253  0.2610  0.6413 -1.9413
  163SOPE  H12S18293   5.222   6.034   9.354  0.4632 -1.5827  1.0197
  163SOPE  C21318294   5.041   5.989   9.242 -0.2257 -0.4510  0.1335
  163SOPE  H13R18295   4.983   6.072   9.290  1.5943  2.3897 -2.2014
  163SOPE  H13S18296   4.976   5.900   9.226  0.6693 -1.1624  0.3942
  163SOPE  C21418297   5.082   6.037   9.102  0.4632 -0.0074 -0.4542
  163SOPE  H14R18298   4.987   6.051   9.047  0.1549  1.0873  0.3262
  163SOPE  H14S18299   5.145   5.967   9.043  0.5503 -0.3597  0.0530
  163SOPE  C21518300   5.138   6.179   9.106 -0.6431  0.1051 -0.1174
  163SOPE  H15R18301   5.223   6.193   9.177 -1.5644  0.2969  0.9759
  163SOPE  H15S18302   5.058   6.248   9.142 -0.7807 -0.6506  1.0745
  163SOPE  C21618303   5.177   6.221   8.968  0.0887 -0.1892 -0.4698
  163SOPE  H16R18304   5.080   6.211   8.914 -0.6515 -3.7497  1.2089
  163SOPE  H16S18305   5.245   6.144   8.927 -0.0978 -0.1807 -0.7950
  163SOPE  C21718306   5.229   6.361   8.949 -0.1610  0.0312  0.0861
  163SOPE  H17R18307   5.162   6.426   9.009  1.5918  0.5919  1.5223
  163SOPE  H17S18308   5.224   6.392   8.843  1.7504  3.4661  0.8392
  163SOPE  C21818309   5.368   6.376   9.010  0.5482 -0.3374 -0.6148
  163SOPE  H18R18310   5.386   6.378   9.120 -0.0278  0.4392 -0.5254
  163SOPE  H18S18311   5.414   6.467   8.966  1.9029 -1.2383 -1.1276
  163SOPE  H18T18312   5.427   6.291   8.971 -1.6592 -1.0447 -2.6853
  163SOPE   C3318313   5.357   5.917  10.175  0.1192 -0.4562  0.1621
  163SOPE   H3X18314   5.391   6.007  10.230  1.4599 -0.0439 -1.2688
  163SOPE   H3Y18315   5.284   5.951  10.099 -0.1818  1.2439  1.1518
  163SOPE   C3418316   5.487   5.860  10.114 -0.3007  0.4870  0.6182
  163SOPE   H4X18317   5.467   5.764  10.063  1.8917 -0.1769  0.9079
  163SOPE   H4Y18318   5.556   5.841  10.200  2.3039  0.6930 -1.3026
  163SOPE   C3518319   5.558   5.952  10.018 -0.2363  0.6162  0.2156
  163SOPE   H5X18320   5.663   5.918  10.008  0.1426  2.2840 -2.6240
  163SOPE   H5Y18321   5.564   6.055  10.061  1.3578  1.0579 -0.9527
  163SOPE   C3618322   5.505   5.950   9.875  0.4019  0.0812  0.3946
  163SOPE   H6X18323   5.395   5.971   9.872  0.0770 -1.5262 -1.7417
  163SOPE   H6Y18324   5.521   5.848   9.834 -0.6330 -0.2938  0.8915
  163SOPE   C3718325   5.569   6.047   9.781 -0.3533  0.1942 -0.1553
  163SOPE   H7X18326   5.675   6.056   9.812  0.2337 -3.2766 -0.7479
  163SOPE   H7Y18327   5.521   6.145   9.799 -0.3913  0.5338 -1.9425
  163SOPE   C3818328   5.573   6.000   9.634 -0.3000  0.1708 -0.6789
  163SOPE   H8X18329   5.471   5.997   9.590  0.3735  1.7152 -2.4952
  163SOPE   H8Y18330   5.610   5.896   9.623  1.3611  0.4633  1.4545
  163SOPE   C3918331   5.668   6.090   9.551  0.0053 -0.1175 -0.1133
  163SOPE   H9X18332   5.768   6.079   9.598  0.2458  0.4276 -0.4788
  163SOPE   H9Y18333   5.617   6.189   9.557 -2.2686 -1.2369 -0.2857
  163SOPE  C31018334   5.680   6.058   9.404 -0.2940  0.0120  0.1048
  163SOPE  H10X18335   5.573   6.057   9.375 -0.5026 -1.0467  0.8451
  163SOPE  H10Y18336   5.703   5.950   9.389 -0.8145 -0.1183  0.2333
  163SOPE  C31118337   5.748   6.152   9.305 -0.0808 -0.2483  0.4593
  163SOPE  H11X18338   5.855   6.164   9.330  0.0346  1.5099 -0.7246
  163SOPE  H11Y18339   5.702   6.253   9.300  2.0922  0.7465 -1.2580
  163SOPE  C31218340   5.727   6.111   9.159 -0.3549 -0.8646  0.6296
  163SOPE  H12X18341   5.632   6.149   9.117  0.0958 -1.1024 -0.6564
  163SOPE  H12Y18342   5.731   6.000   9.154  1.0161 -0.7858 -2.0066
  163SOPE  C31318343   5.838   6.167   9.067  0.3192 -0.3098  0.1035
  163SOPE  H13X18344   5.941   6.141   9.102  0.0647  2.1079  3.0246
  163SOPE  H13Y18345   5.840   6.278   9.076  1.0178 -0.4496  2.1975
  163SOPE  C31418346   5.808   6.130   8.921 -0.1601  0.2786 -0.2476
  163SOPE  H14X18347   5.706   6.161   8.889 -0.1553  0.1388 -0.4013
  163SOPE  H14Y18348   5.823   6.019   8.925 -0.9221  0.2091  1.5449
  163SOPE  C31518349   5.905   6.199   8.822  0.9507 -0.7868  0.9704
  163SOPE  H15X18350   6.013   6.202   8.848  1.6636 -0.7107 -1.7494
  163SOPE  H15Y18351   5.882   6.308   8.819 -2.7485 -1.4551  0.4196
  163SOPE  C31618352   5.896   6.155   8.672  0.4156 -0.2183 -0.5845
  163SOPE  H16X18353   5.946   6.233   8.612 -1.9425 -0.3290 -2.8615
  163SOPE  H16Y18354   5.788   6.149   8.646 -0.1893 -0.7053  1.7358
  163SOPE  C31718355   5.977   6.035   8.629 -0.9484 -0.0187  0.0583
  163SOPE  H17X18356   5.953   6.002   8.526 -0.2459  0.6091 -0.3085
  163SOPE  H17Y18357   5.948   5.952   8.696  0.3796 -1.2542 -0.8473
  163SOPE  C31818358   6.128   6.059   8.633  0.9246 -0.4738 -0.2969
  163SOPE  H18X18359   6.159   6.140   8.563  3.1601 -0.1446  0.9813
  163SOPE  H18Y18360   6.187   5.967   8.612 -0.3347 -0.7162 -3.3564
  163SOPE  H18Z18361   6.161   6.102   8.730  0.0433  0.1305 -0.2527
  164SOPE     N18362   2.989   3.605  10.994 -0.1294 -0.0052  0.5284
  164SOPE   HN118363   2.903   3.580  11.047 -1.6679 -1.9099 -2.4866
  164SOPE   HN218364   3.069   3.542  11.016  0.9800  0.3816 -2.0435
  164SOPE   HN318365   3.012   3.703  11.017 -0.7795 -0.0231  1.2963
  164SOPE   C1218366   2.951   3.608  10.844  0.4881  0.0179 -0.3322
  164SOPE  H12A18367   3.032   3.663  10.793  0.2790  0.1460 -0.5311
  164SOPE  H12B18368   2.855   3.665  10.839  0.4062 -0.0953 -0.0678
  164SOPE   C1118369   2.920   3.469  10.793 -0.1023  0.4297  0.3224
  164SOPE  H11A18370   3.010   3.403  10.798 -0.9806 -0.7062  3.2555
  164SOPE  H11B18371   2.891   3.483  10.686  2.8220 -0.3321 -0.6815
  164SOPE     P18372   2.819   3.256  10.904  0.5447  0.3081  0.2440
  164SOPE   O1318373   2.692   3.219  10.970  0.1001  0.3272 -0.0705
  164SOPE   O1418374   2.947   3.226  10.971 -0.1619  0.1311  0.4118
  164SOPE   O1218375   2.809   3.410  10.869  0.0108  0.3392  0.7028
  164SOPE   O1118376   2.815   3.197  10.762  0.3884 -0.1704 -0.1899
  164SOPE    C118377   2.718   3.246  10.669 -0.1927  0.0765 -0.0837
  164SOPE    HA18378   2.757   3.230  10.566 -0.8292  0.4058 -0.3811
  164SOPE    HB18379   2.707   3.356  10.679 -0.9527 -0.0140  0.1084
  164SOPE    C218380   2.582   3.171  10.676  0.1210  0.5143  0.0352
  164SOPE    HS18381   2.556   3.148  10.781  0.7864  0.3145  0.1603
  164SOPE   O2118382   2.601   3.052  10.597  0.5252 -0.0104 -0.1894
  164SOPE   C2118383   2.528   2.951  10.644  0.2555 -0.0711 -0.0335
  164SOPE   O2218384   2.437   2.961  10.726 -0.0335  0.4787  0.3453
  164SOPE   C2218385   2.563   2.824  10.563  0.1731  0.0637  0.3041
  164SOPE   H2R18386   2.483   2.751  10.586 -0.5825  0.4429 -1.0297
  164SOPE   H2S18387   2.663   2.795  10.601  1.9623 -0.5190 -4.2776
  164SOPE    C318388   2.464   3.257  10.626 -0.1237 -0.1454 -0.4823
  164SOPE    HX18389   2.470   3.348  10.688  0.8279  0.7238 -1.8032
  164SOPE    HY18390   2.365   3.216  10.657  1.0903 -0.5541  3.3694
  164SOPE   O3118391   2.479   3.296  10.488  0.4824  0.3865  0.1180
  164SOPE   C3118392   2.407   3.234  10.403 -0.6517 -0.1011 -0.2088
  164SOPE   O3218393   2.317   3.158  10.424  0.1363  0.4087 -0.2960
  164SOPE   C3218394   2.469   3.265  10.262  0.3634  0.5383 -0.4318
  164SOPE   H2X18395   2.576   3.238  10.275 -0.1364 -0.6434  1.6465
  164SOPE   H2Y18396   2.438   3.368  10.233 -2.4127  0.4138  1.6533
  164SOPE   C2318397   2.566   2.845  10.410 -0.0953 -0.3227  0.1367
  164SOPE   H3R18398   2.485   2.914  10.378 -2.4517 -2.5287  0.9767
  164SOPE   H3S18399   2.542   2.747  10.363 -1.0454 -0.3406  0.6156
  164SOPE   C2418400   2.706   2.895  10.357 -0.0720 -0.0228  0.2395
  164SOPE   H4R18401   2.727   3.003  10.369 -0.4559 -0.1938  3.1847
  164SOPE   H4S18402   2.776   2.845  10.427 -1.7547 -1.1214  1.2396
  164SOPE   C2518403   2.748   2.834  10.222 -0.5863 -0.8800 -0.5701
  164SOPE   H5R18404   2.855   2.856  10.204  0.3407 -1.1391  3.6205
  164SOPE   H5S18405   2.741   2.726  10.246 -1.7049 -0.9012 -0.9065
  164SOPE   C2618406   2.663   2.884  10.104  0.4943  0.3094  0.9160
  164SOPE   H6R18407   2.554   2.869  10.115  0.0435 -1.3345 -3.4504
  164SOPE   H6S18408   2.680   2.993  10.096  1.0642  0.2198  0.8532
  164SOPE   C2718409   2.718   2.816   9.975 -0.6413 -0.1427  0.2974
  164SOPE   H7R18410   2.829   2.825   9.980 -0.4741 -1.7759  0.2492
  164SOPE   H7S18411   2.705   2.705   9.980  0.5772 -0.3383 -0.3981
  164SOPE   C2818412   2.659   2.867   9.840  0.4514 -0.4756  0.5288
  164SOPE   H8R18413   2.675   2.786   9.765 -3.6943 -1.6851  0.7230
  164SOPE   H8S18414   2.549   2.867   9.852  0.2781  2.3374 -0.3839
  164SOPE   C2918415   2.702   3.005   9.800  0.1232  0.0100  0.3150
  164SOPE   H9118416   2.762   3.065   9.869  0.3266 -1.2258  1.2492
  164SOPE  C21018417   2.687   3.065   9.676  0.0328  0.1389 -0.4918
  164SOPE  H10118418   2.725   3.168   9.665 -0.6561  0.4964  0.3387
  164SOPE  C21118419   2.620   3.013   9.555  0.4179 -0.2825  0.1880
  164SOPE  H11R18420   2.550   3.079   9.501 -0.0840 -0.4726  0.5930
  164SOPE  H11S18421   2.565   2.919   9.577 -1.2259  0.3699 -0.9220
  164SOPE  C21218422   2.725   2.972   9.443 -0.0366 -0.1538 -0.1001
  164SOPE  H12R18423   2.798   2.911   9.501 -1.0603  0.0185  1.4496
  164SOPE  H12S18424   2.756   3.071   9.404 -2.7691  0.3294 -1.2348
  164SOPE  C21318425   2.670   2.872   9.342  0.2979 -0.6267 -0.5137
  164SOPE  H13R18426   2.603   2.928   9.273  0.4731  0.2178 -0.0221
  164SOPE  H13S18427   2.616   2.790   9.393  1.8372 -1.3722 -0.0345
  164SOPE  C21418428   2.784   2.790   9.263  0.4006  0.4821 -0.4857
  164SOPE  H14R18429   2.856   2.743   9.334  1.1898  0.1001 -1.5241
  164SOPE  H14S18430   2.844   2.864   9.207  1.8390  1.4889  2.2228
  164SOPE  C21518431   2.733   2.681   9.166  0.2130 -0.3307  0.2730
  164SOPE  H15R18432   2.645   2.635   9.216 -1.5517  1.0021 -1.4150
  164SOPE  H15S18433   2.814   2.606   9.154 -0.3635 -0.9233  0.0218
  164SOPE  C21618434   2.684   2.725   9.028  0.0275 -0.4008  0.1310
  164SOPE  H16R18435   2.770   2.733   8.959  1.1102 -1.9552  1.2318
  164SOPE  H16S18436   2.619   2.815   9.026  0.1439 -0.1462  3.4799
  164SOPE  C21718437   2.590   2.614   8.971  0.0552  0.3675  1.3754
  164SOPE  H17R18438   2.499   2.595   9.031 -1.4280 -2.0265 -1.3878
  164SOPE  H17S18439   2.649   2.521   8.982  0.2533  0.2546 -0.3279
  164SOPE  C21818440   2.545   2.638   8.832 -0.2515 -0.1767 -0.4119
  164SOPE  H18R18441   2.532   2.544   8.773 -0.5671 -0.8648  0.7351
  164SOPE  H18S18442   2.626   2.688   8.775  0.0544 -1.4245 -1.1241
  164SOPE  H18T18443   2.457   2.704   8.834 -0.4315 -0.4043 -0.6898
  164SOPE   C3318444   2.409   3.170  10.149  0.1882  0.6910  0.3168
  164SOPE   H3X18445   2.423   3.065  10.182 -1.6280  0.4587  0.4602
  164SOPE   H3Y18446   2.457   3.205  10.055  0.5205  1.6964  0.8386
  164SOPE   C3418447   2.258   3.189  10.123  0.1639  0.2993  0.1508
  164SOPE   H4X18448   2.241   3.299  10.116 -0.2679  0.2962  0.9947
  164SOPE   H4Y18449   2.202   3.156  10.213 -1.6057  1.7353 -0.3613
  164SOPE   C3518450   2.199   3.105  10.008  0.3172 -1.1358 -0.3652
  164SOPE   H5X18451   2.103   3.157   9.985  0.7305 -0.6794 -1.0950
  164SOPE   H5Y18452   2.161   3.005  10.037  1.9106 -1.5263  0.4932
  164SOPE   C3618453   2.292   3.106   9.889 -0.6262 -0.4813  0.1121
  164SOPE   H6X18454   2.384   3.047   9.911  0.8282  1.7676  0.5026
  164SOPE   H6Y18455   2.328   3.211   9.881 -0.3925 -0.5458  0.2989
  164SOPE   C3718456   2.232   3.062   9.759  0.2292  0.6156 -0.8050
  164SOPE   H7X18457   2.277   3.120   9.676  2.9583 -0.2081 -0.0064
  164SOPE   H7Y18458   2.128   3.099   9.767  0.6561  1.5027  1.0742
  164SOPE   C3818459   2.242   2.912   9.726 -0.0950  0.6142 -0.0174
  164SOPE   H8X18460   2.206   2.857   9.816 -1.6815 -1.4074 -1.7599
  164SOPE   H8Y18461   2.347   2.880   9.711 -0.9187 -3.0779  1.0964
  164SOPE   C3918462   2.141   2.871   9.621 -0.4107 -0.2038 -0.2332
  164SOPE   H9X18463   2.046   2.910   9.664  0.8787 -0.8658  3.5634
  164SOPE   H9Y18464   2.132   2.760   9.624  2.6851 -0.5247  1.4450
  164SOPE  C31018465   2.158   2.943   9.484 -0.1084  1.2607 -0.2693
  164SOPE  H10X18466   2.173   3.051   9.505 -2.1131  1.1074  2.4610
  164SOPE  H10Y18467   2.069   2.930   9.419 -1.0100  0.7025  1.0489
  164SOPE  C31118468   2.277   2.884   9.408 -0.2451 -0.1207  0.0472
  164SOPE  H11X18469   2.264   2.774   9.416  0.0464 -0.2335 -0.8597
  164SOPE  H11Y18470   2.376   2.921   9.443 -1.0770  0.6094  1.7326
  164SOPE  C31218471   2.271   2.920   9.262  0.3104 -0.3114  0.2666
  164SOPE  H12X18472   2.168   2.899   9.226  0.6030 -1.0438 -0.1538
  164SOPE  H12Y18473   2.344   2.861   9.203 -0.5698  0.4508 -1.6612
  164SOPE  C31318474   2.304   3.066   9.229 -0.4829  0.0599 -0.5063
  164SOPE  H13X18475   2.406   3.101   9.259 -1.6419  1.5481  2.0137
  164SOPE  H13Y18476   2.229   3.134   9.274  0.7904 -0.5267  2.8310
  164SOPE  C31418477   2.293   3.097   9.079  0.1576 -0.3510 -0.0493
  164SOPE  H14X18478   2.305   3.206   9.061  0.3603 -0.3504  0.0862
  164SOPE  H14Y18479   2.190   3.071   9.046  0.9259 -0.1776 -2.7653
  164SOPE  C31518480   2.396   3.013   8.993  0.4656 -0.2296 -0.2039
  164SOPE  H15X18481   2.383   2.906   9.018 -0.3417 -0.6650 -2.3384
  164SOPE  H15Y18482   2.503   3.032   9.020 -0.3873  0.6469  2.9529
  164SOPE  C31618483   2.378   3.044   8.843 -0.5357  0.2315 -0.3997
  164SOPE  H16X18484   2.267   3.049   8.829 -0.6037  3.0908  0.5638
  164SOPE  H16Y18485   2.443   2.971   8.790 -0.4147 -0.2565  0.4121
  164SOPE  C31718486   2.412   3.187   8.809  0.2358 -0.2850 -0.0543
  164SOPE  H17X18487   2.515   3.188   8.851  0.3539 -2.8092 -0.1403
  164SOPE  H17Y18488   2.355   3.260   8.871  2.5792  1.1721  0.5204
  164SOPE  C31818489   2.410   3.220   8.667  0.5512  0.1814 -0.4413
  164SOPE  H18X18490   2.317   3.247   8.612  0.9649  1.1630 -0.6830
  164SOPE  H18Y18491   2.461   3.140   8.609  0.8034  0.4935 -0.6586
  164SOPE  H18Z18492   2.480   3.304   8.648  0.0162  1.0982  1.4270
  165SOPE     N18493   6.195   3.820  11.180 -0.4035 -0.5522 -0.1364
  165SOPE   HN118494   6.156   3.888  11.112 -0.7858 -1.4457 -0.8279
  165SOPE   HN218495   6.147   3.840  11.271 -1.6335  0.6932 -1.0194
  165SOPE   HN318496   6.292   3.844  11.207 -0.9314  1.2255  0.3200
  165SOPE   C1218497   6.191   3.679  11.125  0.0651  0.1084  0.8232
  165SOPE  H12A18498   6.086   3.646  11.109 -0.0584 -0.2251  2.2080
  165SOPE  H12B18499   6.237   3.605  11.194 -4.1840 -1.5447  2.2325
  165SOPE   C1118500   6.257   3.679  10.985 -0.3554 -0.1890 -0.0160
  165SOPE  H11A18501   6.194   3.747  10.923  0.8801 -2.2913 -3.9568
  165SOPE  H11B18502   6.262   3.580  10.935  0.5909  1.7744 -4.2913
  165SOPE     P18503   6.525   3.683  11.025  0.1918  0.1237  0.1312
  165SOPE   O1318504   6.507   3.600  11.145  0.0115 -0.5974 -0.4720
  165SOPE   O1418505   6.619   3.793  11.040 -0.3953  0.7630 -0.2159
  165SOPE   O1218506   6.384   3.744  10.984 -0.4256  0.1685 -0.9577
  165SOPE   O1118507   6.578   3.588  10.908 -0.1639 -0.1158 -0.0039
  165SOPE    C118508   6.518   3.579  10.783 -0.1261 -0.2100 -0.6669
  165SOPE    HA18509   6.425   3.638  10.769  0.3006  0.3121 -1.3790
  165SOPE    HB18510   6.508   3.470  10.763 -0.1930 -0.4143  0.4648
  165SOPE    C218511   6.601   3.643  10.664 -0.1474 -0.3025  0.3713
  165SOPE    HS18512   6.541   3.654  10.572  0.4887  2.6380  0.2031
  165SOPE   O2118513   6.710   3.551  10.644 -0.9542 -0.0707  0.8894
  165SOPE   C2118514   6.750   3.532  10.512  0.2320 -0.7448  0.4078
  165SOPE   O2218515   6.705   3.588  10.414 -0.2950  0.2575  0.3039
  165SOPE   C2218516   6.862   3.436  10.500  1.1031  0.0968  0.7512
  165SOPE   H2R18517   6.835   3.334  10.534  0.1188  0.4806  1.1613
  165SOPE   H2S18518   6.945   3.477  10.561  2.3583  0.8488 -1.3411
  165SOPE    C318519   6.656   3.784  10.706  0.2466 -0.5161  0.2051
  165SOPE    HX18520   6.737   3.751  10.774 -0.2108 -0.6151  0.7117
  165SOPE    HY18521   6.581   3.837  10.770  0.2194 -1.0059  0.5835
  165SOPE   O3118522   6.706   3.865  10.597  0.0505 -0.7890 -0.2820
  165SOPE   C3118523   6.613   3.944  10.539 -0.0454  0.5677 -0.4583
  165SOPE   O3218524   6.496   3.943  10.570  1.2327 -0.5076  0.3924
  165SOPE   C3218525   6.676   4.028  10.430 -0.3449 -0.3467 -0.3901
  165SOPE   H2X18526   6.785   4.011  10.446 -0.3809 -1.3296 -1.0966
  165SOPE   H2Y18527   6.649   4.134  10.447 -0.6256 -0.5285  0.3430
  165SOPE   C2318528   6.921   3.442  10.356  0.3842 -0.1223 -0.5554
  165SOPE   H3R18529   7.021   3.396  10.367  0.6012 -0.3369 -2.8433
  165SOPE   H3S18530   6.932   3.547  10.321 -0.2471 -0.3331 -1.4062
  165SOPE   C2418531   6.844   3.365  10.249  0.7088 -0.0972  0.9386
  165SOPE   H4R18532   6.788   3.281  10.295  0.4882 -0.2925  0.3334
  165SOPE   H4S18533   6.758   3.429  10.219 -1.0343 -2.1507  1.2797
  165SOPE   C2518534   6.915   3.324  10.120  0.1939  0.0187 -0.9541
  165SOPE   H5R18535   6.998   3.258  10.152  1.1878  2.0339  0.8898
  165SOPE   H5S18536   6.838   3.257  10.077  0.2704 -1.8156  1.5354
  165SOPE   C2618537   6.966   3.430  10.024 -0.6583 -0.3682  0.3898
  165SOPE   H6R18538   6.891   3.508   9.998  0.7751  0.9775  0.1584
  165SOPE   H6S18539   7.047   3.494  10.065 -0.5977  1.2182 -2.0436
  165SOPE   C2718540   7.012   3.372   9.894 -0.0605  0.7543  0.6150
  165SOPE   H7R18541   7.108   3.317   9.906  0.2443  1.1975  0.1949
  165SOPE   H7S18542   6.932   3.301   9.864  2.0826 -1.4440 -0.3152
  165SOPE   C2818543   7.030   3.465   9.780  0.1569 -0.4386 -0.0936
  165SOPE   H8R18544   6.928   3.506   9.766  1.4763  4.2712  1.9375
  165SOPE   H8S18545   7.088   3.550   9.823 -1.4006 -0.2729  1.8117
  165SOPE   C2918546   7.093   3.408   9.655  0.0024  0.1656 -0.5402
  165SOPE   H9118547   7.165   3.326   9.670 -0.7296 -0.7694 -2.0052
  165SOPE  C21018548   7.053   3.419   9.528 -0.4749 -0.3885 -0.0878
  165SOPE  H10118549   7.117   3.372   9.452 -0.0194  0.6839 -0.3805
  165SOPE  C21118550   6.943   3.505   9.478 -0.4925 -0.4074 -0.0250
  165SOPE  H11R18551   6.909   3.560   9.568  2.7331 -1.5368  2.0711
  165SOPE  H11S18552   6.855   3.444   9.450  1.1343 -3.1790  0.4404
  165SOPE  C21218553   6.982   3.615   9.375  0.0427  0.0028 -0.7031
  165SOPE  H12R18554   7.063   3.681   9.412  0.1555 -1.4152  1.7777
  165SOPE  H12S18555   6.892   3.680   9.361  0.7789  0.6667 -2.7811
  165SOPE  C21318556   7.014   3.558   9.236 -0.1339 -0.6788  0.4992
  165SOPE  H13R18557   6.929   3.487   9.221 -1.8484  1.0505  1.5229
  165SOPE  H13S18558   7.108   3.499   9.241  0.1040 -0.2166  1.9343
  165SOPE  C21418559   7.016   3.666   9.130 -0.6766  0.5340 -0.2033
  165SOPE  H14R18560   7.070   3.752   9.174 -0.4163  0.4182 -0.2985
  165SOPE  H14S18561   6.912   3.704   9.119 -0.9553 -0.1536 -0.0114
  165SOPE  C21518562   7.067   3.629   8.993  0.1988  0.1691 -0.0221
  165SOPE  H15R18563   7.017   3.536   8.959 -1.2943  0.9448 -0.0233
  165SOPE  H15S18564   7.175   3.606   9.005  0.8422  1.4988 -2.5155
  165SOPE  C21618565   7.050   3.739   8.887  0.4519 -0.8997  0.3534
  165SOPE  H16R18566   6.942   3.764   8.881  0.8901  0.7934 -2.6877
  165SOPE  H16S18567   7.071   3.721   8.780 -1.4333  2.8247 -0.8397
  165SOPE  C21718568   7.125   3.870   8.909  0.4970  0.8048  0.5236
  165SOPE  H17R18569   7.089   3.924   8.999 -2.2449 -1.2007  0.7661
  165SOPE  H17S18570   7.085   3.940   8.831 -2.3586 -1.5060 -0.2778
  165SOPE  C21818571   7.276   3.866   8.880 -0.6730  0.2804  0.6091
  165SOPE  H18R18572   7.339   3.803   8.946  2.0253 -0.3018 -2.2703
  165SOPE  H18S18573   7.314   3.966   8.909  1.4757 -0.3363  0.1044
  165SOPE  H18T18574   7.299   3.845   8.773  0.3156 -0.3775  0.9400
  165SOPE   C3318575   6.623   3.992  10.290 -0.4469 -0.3371  0.1412
  165SOPE   H3X18576   6.515   3.967  10.291 -0.1022 -2.0625 -0.8991
  165SOPE   H3Y18577   6.675   3.907  10.240  1.2380  1.8896 -2.0758
  165SOPE   C3418578   6.642   4.109  10.193  0.3044 -1.0046  0.5116
  165SOPE   H4X18579   6.745   4.147  10.210 -1.2317  2.7487  2.6831
  165SOPE   H4Y18580   6.571   4.190  10.221 -0.2649 -0.0927 -3.0170
  165SOPE   C3518581   6.616   4.070  10.045  0.1399  0.1723 -0.6061
  165SOPE   H5X18582   6.512   4.033  10.042 -0.7384  2.4907 -3.1855
  165SOPE   H5Y18583   6.700   4.005  10.011  1.8749  2.3697 -0.8090
  165SOPE   C3618584   6.621   4.199   9.972 -0.2144  0.3449  0.1926
  165SOPE   H6X18585   6.720   4.235   9.936 -0.1347  0.5441  0.6136
  165SOPE   H6Y18586   6.565   4.286  10.013 -0.1556  1.4801 -1.9615
  165SOPE   C3718587   6.547   4.172   9.837 -0.0562 -0.7904  0.0783
  165SOPE   H7X18588   6.439   4.148   9.845 -0.7361  2.2191  0.9607
  165SOPE   H7Y18589   6.591   4.082   9.788  2.5352 -0.2031  1.1648
  165SOPE   C3818590   6.561   4.292   9.742  0.0826  0.2197 -0.4077
  165SOPE   H8X18591   6.669   4.318   9.743  0.0543  0.4091  1.4417
  165SOPE   H8Y18592   6.502   4.372   9.790  0.4185 -0.4619  1.2106
  165SOPE   C3918593   6.507   4.254   9.598  0.4057 -0.6257 -0.2435
  165SOPE   H9X18594   6.398   4.235   9.610  0.4964 -1.1203 -0.1942
  165SOPE   H9Y18595   6.549   4.157   9.565 -1.2114 -1.3273 -0.3431
  165SOPE  C31018596   6.543   4.361   9.503 -0.3020  0.0109 -0.2489
  165SOPE  H10X18597   6.652   4.373   9.484  0.2063 -2.9101  0.4315
  165SOPE  H10Y18598   6.499   4.459   9.533 -1.0643 -0.4184  0.0508
  165SOPE  C31118599   6.494   4.340   9.358  0.4760  0.3831  0.0667
  165SOPE  H11X18600   6.384   4.333   9.368  0.4735 -1.2416 -0.8306
  165SOPE  H11Y18601   6.531   4.240   9.328  1.8600  0.9097 -0.0650
  165SOPE  C31218602   6.533   4.449   9.257  0.0186  0.0481  0.2708
  165SOPE  H12X18603   6.636   4.453   9.217 -1.2064  2.6605 -3.1556
  165SOPE  H12Y18604   6.534   4.545   9.311 -1.1787 -0.6007  1.5243
  165SOPE  C31318605   6.441   4.470   9.128  0.0104  0.5812 -0.4044
  165SOPE  H13X18606   6.342   4.482   9.176 -0.2191 -0.6897 -0.5218
  165SOPE  H13Y18607   6.440   4.375   9.070  1.5759  0.2169  0.0979
  165SOPE  C31418608   6.472   4.598   9.041  0.9007  0.4944  0.7485
  165SOPE  H14X18609   6.575   4.600   9.000  1.4604  1.7640  2.1420
  165SOPE  H14Y18610   6.458   4.688   9.104 -0.7935  1.3767 -0.8090
  165SOPE  C31518611   6.352   4.616   8.937 -0.0571  0.2452 -0.4188
  165SOPE  H15X18612   6.366   4.723   8.908  0.6303  1.0873  2.6335
  165SOPE  H15Y18613   6.259   4.597   8.994 -0.9691  1.4578 -1.4366
  165SOPE  C31618614   6.365   4.511   8.831 -0.3157 -0.9147 -0.5311
  165SOPE  H16X18615   6.335   4.413   8.872 -1.3140 -0.0256  0.9325
  165SOPE  H16Y18616   6.468   4.523   8.790  0.2855  0.7755  1.3149
  165SOPE  C31718617   6.272   4.534   8.716  0.8036  0.8084  0.3947
  165SOPE  H17X18618   6.288   4.453   8.642  2.5682 -0.3717  1.9874
  165SOPE  H17Y18619   6.289   4.625   8.654 -0.0122  0.3214 -0.5614
  165SOPE  C31818620   6.128   4.538   8.750 -0.0980  0.1386 -0.2318
  165SOPE  H18X18621   6.112   4.611   8.831 -0.0949 -1.4637  1.2777
  165SOPE  H18Y18622   6.097   4.435   8.779  1.5098 -0.1237  0.6944
  165SOPE  H18Z18623   6.061   4.565   8.665  1.4612  0.1156 -1.5215
  166SOPE     N18624   2.689   4.379  11.007  0.2045 -0.5408  0.4177
  166SOPE   HN118625   2.727   4.449  10.939 -0.4246 -0.6046 -0.0049
  166SOPE   HN218626   2.663   4.298  10.947 -0.1765  0.0198 -0.1882
  166SOPE   HN318627   2.610   4.435  11.044 -1.0543 -1.7591 -0.3588
  166SOPE   C1218628   2.800   4.356  11.110 -0.1590 -0.3534  0.3046
  166SOPE  H12A18629   2.864   4.290  11.047 -0.8812  0.2204 -1.0709
  166SOPE  H12B18630   2.746   4.308  11.195 -0.2106  2.1299  1.7791
  166SOPE   C1118631   2.860   4.493  11.142  0.2171 -0.7015  0.5948
  166SOPE  H11A18632   2.932   4.479  11.226  2.0047  1.0084 -0.5854
  166SOPE  H11B18633   2.787   4.574  11.161 -0.3022 -0.5229 -1.9117
  166SOPE     P18634   3.002   4.676  11.023  0.2705  0.0319  0.0517
  166SOPE   O1318635   3.146   4.684  11.065 -0.1002 -0.5810 -0.2497
  166SOPE   O1418636   2.910   4.774  11.090  0.1873  0.3263  0.6748
  166SOPE   O1218637   2.945   4.532  11.032 -0.6149  0.3185  0.1316
  166SOPE   O1118638   3.009   4.705  10.867  0.0541 -0.0089  0.0062
  166SOPE    C118639   2.997   4.834  10.823 -0.2606 -0.0147  0.9301
  166SOPE    HA18640   3.083   4.900  10.850  0.3032 -0.1317 -0.4548
  166SOPE    HB18641   2.897   4.868  10.855 -0.7106 -0.3427 -0.0781
  166SOPE    C218642   2.988   4.841  10.662 -0.1139 -0.2164  0.0660
  166SOPE    HS18643   2.982   4.951  10.648 -0.0306 -0.4256 -1.8362
  166SOPE   O2118644   2.865   4.772  10.608 -0.3094  0.4473  0.1629
  166SOPE   C2118645   2.757   4.853  10.602 -0.6164 -0.1312 -0.1897
  166SOPE   O2218646   2.761   4.976  10.628  0.7562 -0.0869  0.1705
  166SOPE   C2218647   2.637   4.781  10.535  0.3415 -0.0813  0.9360
  166SOPE   H2R18648   2.552   4.852  10.535  0.7720  0.5010 -1.0616
  166SOPE   H2S18649   2.611   4.698  10.604 -2.9020 -0.2513 -0.3485
  166SOPE    C318650   3.119   4.783  10.600  0.6481  0.2998  0.3999
  166SOPE    HX18651   3.144   4.687  10.649  3.6922 -1.2547 -3.6546
  166SOPE    HY18652   3.197   4.858  10.626  0.9489 -0.2350  1.0628
  166SOPE   O3118653   3.123   4.774  10.457  0.0483  0.0714  0.2381
  166SOPE   C3118654   3.131   4.886  10.396 -0.8039 -0.3030 -0.3803
  166SOPE   O3218655   3.167   4.997  10.429 -0.0898  0.2187  0.1470
  166SOPE   C3218656   3.095   4.863  10.248 -0.0775  0.2297 -0.9137
  166SOPE   H2X18657   2.998   4.912  10.226  0.4018  1.7006  0.1122
  166SOPE   H2Y18658   3.075   4.755  10.233 -1.1570  0.4599 -1.1966
  166SOPE   C2318659   2.679   4.731  10.398  0.9053  0.2762  0.4939
  166SOPE   H3R18660   2.612   4.655  10.353  0.9879  1.4702 -1.8113
  166SOPE   H3S18661   2.777   4.680  10.403  0.5339 -0.8952 -2.2336
  166SOPE   C2418662   2.695   4.841  10.287  0.7383 -0.1655 -1.1686
  166SOPE   H4R18663   2.592   4.880  10.274  0.6254 -0.0220  0.0765
  166SOPE   H4S18664   2.757   4.930  10.309 -0.3947  1.0527 -2.6689
  166SOPE   C2518665   2.738   4.771  10.156 -0.0290  0.7280 -0.1990
  166SOPE   H5R18666   2.848   4.753  10.155 -0.4544 -2.9316 -2.9240
  166SOPE   H5S18667   2.690   4.671  10.151  0.3020  0.5211  0.6452
  166SOPE   C2618668   2.697   4.846  10.032 -0.3787 -0.2835  0.0496
  166SOPE   H6R18669   2.589   4.871  10.043 -0.0405  1.3545 -0.1068
  166SOPE   H6S18670   2.750   4.941  10.010 -0.1294 -0.4720 -0.1605
  166SOPE   C2718671   2.717   4.765   9.899 -0.6680 -0.0673 -0.2536
  166SOPE   H7R18672   2.826   4.741   9.900 -0.3166  1.4511  0.5053
  166SOPE   H7S18673   2.659   4.671   9.907  0.7300 -0.8790  0.8231
  166SOPE   C2818674   2.677   4.848   9.772 -0.0684 -0.9085 -0.5390
  166SOPE   H8R18675   2.642   4.789   9.684 -1.1781 -0.3106 -0.5149
  166SOPE   H8S18676   2.592   4.913   9.802  1.0419  0.9449 -1.2481
  166SOPE   C2918677   2.777   4.951   9.731 -0.1894  0.0995 -0.1880
  166SOPE   H9118678   2.822   5.005   9.815 -1.4911  0.2955  0.4110
  166SOPE  C21018679   2.842   4.951   9.613 -0.0710  0.0549 -0.2119
  166SOPE  H10118680   2.902   5.042   9.599 -0.2528  0.2162  0.0497
  166SOPE  C21118681   2.825   4.875   9.484  0.4066  0.0963  0.0288
  166SOPE  H11R18682   2.790   4.771   9.505 -2.4536  1.0589  0.4849
  166SOPE  H11S18683   2.920   4.879   9.426  0.9835 -0.8606  0.8783
  166SOPE  C21218684   2.716   4.943   9.396 -0.7683 -0.2331  0.7319
  166SOPE  H12R18685   2.617   4.951   9.447 -1.0792 -0.6491  0.1959
  166SOPE  H12S18686   2.706   4.881   9.305  0.4395  2.2114 -1.1785
  166SOPE  C21318687   2.773   5.075   9.339  0.4059 -0.0669 -0.3967
  166SOPE  H13R18688   2.858   5.043   9.275 -0.0749  0.8976 -1.5790
  166SOPE  H13S18689   2.805   5.139   9.424  1.8252 -0.0778 -0.8878
  166SOPE  C21418690   2.666   5.151   9.264  0.0973 -0.1321 -0.2205
  166SOPE  H14R18691   2.596   5.199   9.336 -0.4283 -1.9463  0.5189
  166SOPE  H14S18692   2.618   5.071   9.204  0.2490 -1.4910  1.4176
  166SOPE  C21518693   2.729   5.256   9.175  0.5667  1.0694  0.6842
  166SOPE  H15R18694   2.817   5.224   9.117 -0.2273 -2.1363  1.0232
  166SOPE  H15S18695   2.752   5.347   9.235  1.9303  2.7616 -2.2078
  166SOPE  C21618696   2.627   5.288   9.059  0.6257  0.2399  0.0703
  166SOPE  H16R18697   2.532   5.338   9.088 -0.8992 -1.8501 -1.0748
  166SOPE  H16S18698   2.605   5.186   9.021  1.0680 -0.9294  2.7941
  166SOPE  C21718699   2.675   5.389   8.959 -0.1664 -0.2457 -0.3406
  166SOPE  H17R18700   2.770   5.356   8.912  0.7089 -0.2426  1.3539
  166SOPE  H17S18701   2.692   5.486   9.009 -4.6352  0.9915 -0.7931
  166SOPE  C21818702   2.569   5.401   8.844 -0.9342 -0.0284  0.4901
  166SOPE  H18R18703   2.599   5.481   8.773 -1.2665  1.2251  1.7095
  166SOPE  H18S18704   2.475   5.434   8.893 -1.4333 -3.7494  2.3826
  166SOPE  H18T18705   2.564   5.297   8.806  1.9457  0.3265 -1.1990
  166SOPE   C3318706   3.201   4.923  10.144 -0.1132 -0.2196  0.0848
  166SOPE   H3X18707   3.294   4.863  10.151 -0.0497 -0.1010  0.2669
  166SOPE   H3Y18708   3.236   5.027  10.163  0.6276 -0.2873 -0.8414
  166SOPE   C3418709   3.143   4.910   9.993 -0.2868  0.0933 -0.0680
  166SOPE   H4X18710   3.049   4.968  10.000 -1.4023 -1.6577  0.0922
  166SOPE   H4Y18711   3.112   4.806   9.968  0.1370  0.2374 -1.2441
  166SOPE   C3518712   3.246   4.955   9.891 -1.1025  0.4682 -1.5823
  166SOPE   H5X18713   3.324   4.877   9.879 -1.7773 -0.2590 -1.3036
  166SOPE   H5Y18714   3.292   5.052   9.921 -0.1390 -0.9738  2.1496
  166SOPE   C3618715   3.169   4.986   9.764 -0.6078 -0.1318 -0.1484
  166SOPE   H6X18716   3.088   5.059   9.786  0.1190  1.4470 -2.3965
  166SOPE   H6Y18717   3.113   4.897   9.727 -2.0355  0.4474  0.5354
  166SOPE   C3718718   3.253   5.049   9.650  0.3733 -0.1673  0.4135
  166SOPE   H7X18719   3.324   4.977   9.603  1.4707  1.8230 -1.1207
  166SOPE   H7Y18720   3.316   5.135   9.682  0.3878  0.2058 -0.5932
  166SOPE   C3818721   3.163   5.104   9.534  0.2045 -0.2824  0.4924
  166SOPE   H8X18722   3.092   5.186   9.559 -0.8790 -1.5667  1.8188
  166SOPE   H8Y18723   3.086   5.026   9.517 -0.7140  0.1958  2.2089
  166SOPE   C3918724   3.246   5.130   9.412  0.5760 -0.0198 -0.0959
  166SOPE   H9X18725   3.315   5.045   9.395  1.8769  0.9537  0.0999
  166SOPE   H9Y18726   3.320   5.209   9.437  0.0815 -0.0423  1.5889
  166SOPE  C31018727   3.159   5.165   9.288 -0.3984  0.2438 -1.0111
  166SOPE  H10X18728   3.105   5.260   9.312 -0.6992 -0.2583  0.4029
  166SOPE  H10Y18729   3.085   5.085   9.269  0.2932 -0.6594 -0.0581
  166SOPE  C31118730   3.248   5.189   9.166  0.1747  0.5822  0.6268
  166SOPE  H11X18731   3.312   5.103   9.136 -3.5749 -2.8832  1.6615
  166SOPE  H11Y18732   3.319   5.271   9.189 -0.8397  0.8302  3.2681
  166SOPE  C31218733   3.169   5.234   9.047 -0.4264 -0.6912  0.0255
  166SOPE  H12X18734   3.132   5.338   9.063  2.1563  0.2074  0.5285
  166SOPE  H12Y18735   3.095   5.153   9.028  0.6376 -1.5385 -0.6598
  166SOPE  C31318736   3.253   5.253   8.926  0.5834 -0.1308  0.1123
  166SOPE  H13X18737   3.299   5.155   8.900  0.0203 -0.0311 -1.3158
  166SOPE  H13Y18738   3.339   5.324   8.932  0.7381 -0.0254 -2.3237
  166SOPE  C31418739   3.168   5.289   8.803 -0.5889  0.5332 -0.5200
  166SOPE  H14X18740   3.072   5.335   8.836 -0.4575 -0.1770  0.9560
  166SOPE  H14Y18741   3.125   5.193   8.769  0.4961 -0.5448  1.0031
  166SOPE  C31518742   3.249   5.370   8.706  0.3404  0.1342  0.2061
  166SOPE  H15X18743   3.336   5.307   8.678  0.2149  0.6538 -1.5314
  166SOPE  H15Y18744   3.271   5.471   8.746 -2.5875  0.6938  0.5903
  166SOPE  C31618745   3.175   5.393   8.573 -0.4305 -0.0544 -0.3465
  166SOPE  H16X18746   3.142   5.292   8.541  1.3494 -0.5961 -0.5552
  166SOPE  H16Y18747   3.253   5.429   8.502 -0.2192 -0.0749 -0.1258
  166SOPE  C31718748   3.060   5.492   8.578  0.4283  1.2700  0.0273
  166SOPE  H17X18749   3.091   5.587   8.627  0.2653  1.0194  0.6343
  166SOPE  H17Y18750   2.981   5.453   8.646 -0.0296 -0.5244 -1.4732
  166SOPE  C31818751   2.991   5.512   8.445  0.3404 -0.4476 -0.0037
  166SOPE  H18X18752   2.904   5.581   8.457  0.3712 -0.6491  1.6602
  166SOPE  H18Y18753   2.950   5.424   8.390 -1.9700  0.5246  0.0361
  166SOPE  H18Z18754   3.067   5.559   8.379  1.1950 -2.8275 -0.8273
  167SOPE     N18755   5.087   2.453   6.227  0.7228  0.0050 -1.3799
  167SOPE   HN118756   5.145   2.368   6.215  2.3588  0.6182  1.2278
  167SOPE   HN218757   4.988   2.426   6.242  1.0958 -0.0967  1.7070
  167SOPE   HN318758   5.091   2.503   6.136  1.4020 -0.8805 -1.8553
  167SOPE   C1218759   5.141   2.540   6.341  0.1871 -0.1707  0.4087
  167SOPE  H12A18760   5.085   2.507   6.431 -4.0166  3.0213 -0.7148
  167SOPE  H12B18761   5.121   2.646   6.315  0.4206  0.0760  1.2038
  167SOPE   C1118762   5.293   2.515   6.354 -0.3461 -0.6749  0.3988
  167SOPE  H11A18763   5.324   2.414   6.389  3.9855 -0.0345 -0.9302
  167SOPE  H11B18764   5.328   2.574   6.441 -0.0108  0.6128 -0.5744
  167SOPE     P18765   5.435   2.669   6.192  0.1083  0.1742  0.0538
  167SOPE   O1318766   5.318   2.749   6.140  0.6219  0.8983 -0.7704
  167SOPE   O1418767   5.552   2.646   6.102  0.1623  0.4372  0.1444
  167SOPE   O1218768   5.379   2.531   6.240 -0.3471 -0.1697 -0.4992
  167SOPE   O1118769   5.496   2.736   6.319  0.1773 -0.2279  0.7051
  167SOPE    C118770   5.583   2.662   6.407 -0.2459  0.0416  0.0142
  167SOPE    HA18771   5.684   2.688   6.372 -0.6286 -0.2156 -1.3228
  167SOPE    HB18772   5.597   2.553   6.389  2.4094 -0.0171  1.8670
  167SOPE    C218773   5.582   2.692   6.557  0.3304 -0.0737  0.2998
  167SOPE    HS18774   5.684   2.667   6.593 -0.3354 -1.9248  1.0046
  167SOPE   O2118775   5.486   2.602   6.623 -0.7796 -0.2333 -0.5839
  167SOPE   C2118776   5.531   2.476   6.645 -0.1151 -0.0970 -0.4806
  167SOPE   O2218777   5.645   2.436   6.620 -0.1123  0.3466  0.3981
  167SOPE   C2218778   5.412   2.401   6.708 -1.0718  0.6088  0.3963
  167SOPE   H2R18779   5.354   2.364   6.622  1.2233 -2.9409  0.1662
  167SOPE   H2S18780   5.352   2.467   6.774 -0.0695  2.0149 -0.0541
  167SOPE    C318781   5.547   2.834   6.592  0.6263  0.2592  0.1080
  167SOPE    HX18782   5.441   2.854   6.564  1.1101 -0.4247 -2.5063
  167SOPE    HY18783   5.619   2.893   6.531  0.5465  1.5760  1.2441
  167SOPE   O3118784   5.566   2.870   6.735 -0.0607 -0.4459 -0.2072
  167SOPE   C3118785   5.482   2.837   6.824 -0.1987 -0.9846 -0.4892
  167SOPE   O3218786   5.359   2.830   6.814  0.1885  0.0275 -0.3259
  167SOPE   C3218787   5.551   2.834   6.953 -0.0151  0.0631 -0.5641
  167SOPE   H2X18788   5.511   2.916   7.016 -0.1344  1.0849 -1.9320
  167SOPE   H2Y18789   5.660   2.852   6.940 -0.3299  2.2088 -0.5563
  167SOPE   C2318790   5.465   2.272   6.786 -0.9085 -0.5428 -0.2315
  167SOPE   H3R18791   5.544   2.317   6.850 -1.1034 -0.6372  0.0797
  167SOPE   H3S18792   5.516   2.208   6.711  0.7214  2.0348 -1.4779
  167SOPE   C2418793   5.360   2.196   6.860 -0.3907 -0.0601  0.1328
  167SOPE   H4R18794   5.292   2.161   6.778  0.2886  0.5187 -0.6915
  167SOPE   H4S18795   5.400   2.098   6.896  0.5260  0.5746  0.8660
  167SOPE   C2518796   5.287   2.263   6.974  0.3262 -0.4286 -0.4805
  167SOPE   H5R18797   5.267   2.370   6.953  0.7726 -0.0637  0.8694
  167SOPE   H5S18798   5.188   2.215   6.962  0.3314 -0.6582  0.3315
  167SOPE   C2618799   5.361   2.260   7.103  0.7761 -0.4189 -0.0662
  167SOPE   H6R18800   5.394   2.154   7.110 -1.6857 -1.3065 -0.8782
  167SOPE   H6S18801   5.451   2.325   7.093  2.4270 -2.7206 -0.9412
  167SOPE   C2718802   5.276   2.305   7.223 -0.0359  0.2927 -0.1159
  167SOPE   H7R18803   5.205   2.388   7.201 -4.4448 -2.9774  0.2364
  167SOPE   H7S18804   5.201   2.226   7.247 -0.7123  0.4741 -1.4912
  167SOPE   C2818805   5.363   2.333   7.348 -0.2241 -0.2763  0.6636
  167SOPE   H8R18806   5.424   2.242   7.369  2.8638  1.6150  0.4465
  167SOPE   H8S18807   5.439   2.409   7.321 -1.7860  0.9852 -0.3342
  167SOPE   C2918808   5.297   2.396   7.467  0.3528  0.7293 -0.6139
  167SOPE   H9118809   5.276   2.503   7.453 -1.6597  0.5455  0.5678
  167SOPE  C21018810   5.254   2.321   7.577 -0.8893  0.1986 -0.0603
  167SOPE  H10118811   5.224   2.379   7.665 -2.4665  3.1877 -2.3762
  167SOPE  C21118812   5.286   2.170   7.599  0.4884 -0.8536  0.2341
  167SOPE  H11R18813   5.337   2.124   7.512 -0.9702  2.7079 -2.7998
  167SOPE  H11S18814   5.185   2.124   7.591  0.6881 -1.0126 -2.8117
  167SOPE  C21218815   5.344   2.137   7.737 -0.0123 -0.5722  0.6310
  167SOPE  H12R18816   5.436   2.193   7.760  0.1897 -1.2259  1.4626
  167SOPE  H12S18817   5.357   2.027   7.751 -1.7331 -0.8474  0.3023
  167SOPE  C21318818   5.237   2.170   7.843 -0.0958  0.3108 -0.7704
  167SOPE  H13R18819   5.145   2.122   7.802 -0.2459 -0.4189  0.3853
  167SOPE  H13S18820   5.225   2.280   7.854 -1.5992  0.2869 -1.8467
  167SOPE  C21418821   5.280   2.086   7.980  0.4331  0.3364  0.2033
  167SOPE  H14R18822   5.373   2.132   8.021  1.1050  0.2478 -1.1609
  167SOPE  H14S18823   5.297   1.983   7.941 -1.8790  0.3219 -0.9331
  167SOPE  C21518824   5.164   2.058   8.079 -0.0194 -0.4811  0.0549
  167SOPE  H15R18825   5.197   2.007   8.172 -1.2358  2.0354  1.9778
  167SOPE  H15S18826   5.096   1.990   8.023 -0.5819 -0.9248  1.2443
  167SOPE  C21618827   5.095   2.186   8.129 -0.3341  0.2282 -1.1097
  167SOPE  H16R18828   5.054   2.244   8.044  0.0869  1.8390 -0.2517
  167SOPE  H16S18829   5.177   2.247   8.173  1.6028 -2.1738 -1.1887
  167SOPE  C21718830   4.990   2.154   8.233 -0.0400  0.4756 -0.0923
  167SOPE  H17R18831   5.034   2.079   8.303 -0.3767  0.5261  0.1791
  167SOPE  H17S18832   4.899   2.106   8.191 -0.6457  2.2747 -0.8986
  167SOPE  C21818833   4.945   2.276   8.312  0.4109  0.1594 -0.1975
  167SOPE  H18R18834   5.012   2.311   8.394  0.0929  2.6386 -0.9078
  167SOPE  H18S18835   4.853   2.237   8.361  0.5178 -0.8368 -0.7641
  167SOPE  H18T18836   4.921   2.365   8.250  0.2518 -0.9495 -1.7898
  167SOPE   C3318837   5.531   2.700   7.031  0.4167  0.5923 -0.6092
  167SOPE   H3X18838   5.622   2.678   7.091  0.5153 -0.5979 -1.1583
  167SOPE   H3Y18839   5.542   2.623   6.951  0.4277 -0.8390  0.7179
  167SOPE   C3418840   5.406   2.682   7.113 -0.2182  0.7570 -0.7624
  167SOPE   H4X18841   5.378   2.575   7.115 -3.0609  1.4365  0.6742
  167SOPE   H4Y18842   5.325   2.743   7.068  2.3959  1.9340 -4.3697
  167SOPE   C3518843   5.431   2.715   7.264  0.0952 -0.3899 -0.1601
  167SOPE   H5X18844   5.494   2.633   7.306  1.3361 -0.7341 -2.5274
  167SOPE   H5Y18845   5.332   2.719   7.315  0.2101 -0.9716  0.1213
  167SOPE   C3618846   5.494   2.853   7.300 -0.1389  0.5220  0.8210
  167SOPE   H6X18847   5.426   2.932   7.262  0.5239 -0.4626 -2.8174
  167SOPE   H6Y18848   5.593   2.878   7.256  0.9860 -2.5319  1.3690
  167SOPE   C3718849   5.507   2.878   7.450  0.1165  0.4521  0.5476
  167SOPE   H7X18850   5.496   2.984   7.481  0.3633 -0.3929  4.0305
  167SOPE   H7Y18851   5.604   2.843   7.491 -0.9706 -3.1478  0.3990
  167SOPE   C3818852   5.403   2.804   7.544 -0.2123  0.0103 -0.2400
  167SOPE   H8X18853   5.410   2.696   7.519 -1.2787 -0.2455  0.4824
  167SOPE   H8Y18854   5.308   2.858   7.523  0.6305  1.0333 -1.6105
  167SOPE   C3918855   5.438   2.816   7.694 -0.1551  0.2637  0.9200
  167SOPE   H9X18856   5.414   2.919   7.727 -2.3036  0.2226 -0.2769
  167SOPE   H9Y18857   5.546   2.799   7.709 -0.2006 -0.6346  0.3639
  167SOPE  C31018858   5.350   2.718   7.778 -0.2522  0.1496 -0.0210
  167SOPE  H10X18859   5.376   2.615   7.746 -0.5492  0.3144 -0.8168
  167SOPE  H10Y18860   5.240   2.728   7.765 -0.5953  0.3346  2.5286
  167SOPE  C31118861   5.392   2.740   7.926 -0.2123 -0.2790  0.6377
  167SOPE  H11X18862   5.381   2.850   7.935 -1.0340 -0.2892 -0.0673
  167SOPE  H11Y18863   5.500   2.717   7.930 -0.0246  0.6351  4.4753
  167SOPE  C31218864   5.303   2.681   8.037 -0.3943 -0.7885  0.5097
  167SOPE  H12X18865   5.290   2.571   8.025 -1.1814 -0.5254 -1.2562
  167SOPE  H12Y18866   5.204   2.731   8.032 -0.1838 -0.4695 -0.7952
  167SOPE  C31318867   5.381   2.696   8.173 -0.6378 -0.2232 -0.5800
  167SOPE  H13X18868   5.390   2.804   8.193 -0.9060 -0.5217  1.3601
  167SOPE  H13Y18869   5.479   2.644   8.166 -1.6417 -2.1991 -0.7613
  167SOPE  C31418870   5.295   2.635   8.282  0.0950  1.0900 -0.1634
  167SOPE  H14X18871   5.288   2.527   8.256 -1.1579  1.3020 -0.7741
  167SOPE  H14Y18872   5.193   2.678   8.279 -1.0580 -1.5583 -1.3064
  167SOPE  C31518873   5.371   2.655   8.417 -0.3381 -0.3538 -0.6487
  167SOPE  H15X18874   5.350   2.761   8.443 -0.0015 -0.2177 -0.9407
  167SOPE  H15Y18875   5.478   2.630   8.401 -0.6448 -0.3803 -3.0063
  167SOPE  C31618876   5.324   2.565   8.525  0.5633  0.5323 -0.9413
  167SOPE  H16X18877   5.339   2.460   8.489 -0.9200 -0.2666  0.6209
  167SOPE  H16Y18878   5.221   2.579   8.564  1.0806 -0.3155  0.8094
  167SOPE  C31718879   5.427   2.564   8.651  0.4889 -0.4334 -0.1517
  167SOPE  H17X18880   5.422   2.659   8.708 -0.8368  0.6339 -1.9081
  167SOPE  H17Y18881   5.528   2.545   8.608 -0.6331  1.4819 -4.1968
  167SOPE  C31818882   5.389   2.447   8.749 -0.4051 -0.2958  0.4955
  167SOPE  H18X18883   5.388   2.358   8.682 -1.6932  0.7382 -0.9391
  167SOPE  H18Y18884   5.288   2.468   8.788 -0.7267 -1.0789  0.1129
  167SOPE  H18Z18885   5.466   2.439   8.829 -0.2172 -0.0217  0.3454
  168SOPE     N18886   4.102   6.652   6.809 -0.2877 -0.2916 -0.0396
  168SOPE   HN118887   4.121   6.579   6.880 -0.3130 -0.4134 -0.1574
  168SOPE   HN218888   4.066   6.739   6.854 -0.4065 -0.5129  0.2985
  168SOPE   HN318889   4.026   6.613   6.750 -0.5644 -0.3360  0.3422
  168SOPE   C1218890   4.223   6.670   6.726 -0.1158 -0.5110 -0.3364
  168SOPE  H12A18891   4.291   6.736   6.784 -0.3511  0.7057 -1.4107
  168SOPE  H12B18892   4.191   6.719   6.632 -0.6876  0.5922  0.4056
  168SOPE   C1118893   4.284   6.537   6.697 -0.2456 -0.5200 -0.1324
  168SOPE  H11A18894   4.322   6.491   6.791 -0.0529 -0.1414 -0.0218
  168SOPE  H11B18895   4.376   6.565   6.641  0.8918  0.5030  2.1054
  168SOPE     P18896   4.256   6.343   6.527 -0.3056 -0.0545 -0.0281
  168SOPE   O1318897   4.303   6.405   6.403  0.3140 -0.3311 -0.6374
  168SOPE   O1418898   4.167   6.225   6.517 -0.6536 -0.8438  0.1244
  168SOPE   O1218899   4.201   6.457   6.621 -0.0343  0.0976 -0.1093
  168SOPE   O1118900   4.379   6.300   6.599 -0.6901 -0.2499 -0.1459
  168SOPE    C118901   4.453   6.178   6.584 -0.0517 -0.5369 -0.0566
  168SOPE    HA18902   4.494   6.181   6.480 -2.0910  0.0537 -0.9012
  168SOPE    HB18903   4.384   6.091   6.593  0.7429 -1.1118  0.5762
  168SOPE    C218904   4.568   6.161   6.689  0.1396  0.3988 -0.0174
  168SOPE    HS18905   4.629   6.071   6.665  0.7921  1.2489 -1.6717
  168SOPE   O2118906   4.523   6.143   6.821 -0.3559 -0.0561 -0.1548
  168SOPE   C2118907   4.449   6.033   6.850 -0.7447  0.4316  0.9459
  168SOPE   O2218908   4.427   5.942   6.770 -0.4086 -0.5640  0.3488
  168SOPE   C2218909   4.420   6.026   7.005 -0.2514 -0.1058  0.4876
  168SOPE   H2R18910   4.315   5.987   7.007  0.2194 -1.4103  1.8090
  168SOPE   H2S18911   4.430   6.126   7.052  1.7343  0.5343 -1.1809
  168SOPE    C318912   4.662   6.282   6.689 -0.1405 -0.3349 -0.1312
  168SOPE    HX18913   4.595   6.364   6.724  1.6314  0.1553  2.3179
  168SOPE    HY18914   4.696   6.304   6.586 -0.4028  3.4233  0.4386
  168SOPE   O3118915   4.773   6.264   6.791  0.3024 -0.2524 -0.8174
  168SOPE   C3118916   4.862   6.359   6.771  0.2601 -0.2697  0.0929
  168SOPE   O3218917   4.851   6.437   6.682  0.0150 -0.5040  0.0707
  168SOPE   C3218918   4.982   6.361   6.871  0.2351  0.7208 -0.1647
  168SOPE   H2X18919   5.063   6.332   6.801  1.2631  2.6526  0.1665
  168SOPE   H2Y18920   4.954   6.301   6.960 -0.0803  0.2035 -0.5998
  168SOPE   C2318921   4.516   5.933   7.077 -0.1422  0.3909  1.0958
  168SOPE   H3R18922   4.609   5.992   7.091 -0.3589  1.7682 -2.3118
  168SOPE   H3S18923   4.523   5.835   7.025 -1.8097 -0.4170  2.2965
  168SOPE   C2418924   4.470   5.902   7.223 -0.2698  0.1037  0.5828
  168SOPE   H4R18925   4.453   5.997   7.280  4.4542  0.2988  2.0940
  168SOPE   H4S18926   4.375   5.845   7.212 -1.4954  1.5353  2.8087
  168SOPE   C2518927   4.574   5.813   7.301  0.7462  0.4761 -0.0508
  168SOPE   H5R18928   4.587   5.711   7.259 -0.3021  0.5935 -0.7240
  168SOPE   H5S18929   4.675   5.857   7.289  0.9838 -0.3343 -1.1757
  168SOPE   C2618930   4.534   5.809   7.451 -0.1055 -0.4518  0.9059
  168SOPE   H6R18931   4.528   5.910   7.496  0.7485  0.1994 -0.3740
  168SOPE   H6S18932   4.433   5.764   7.462  0.2342 -1.9208 -1.2725
  168SOPE   C2718933   4.631   5.727   7.532  0.2905 -0.0191 -0.7481
  168SOPE   H7R18934   4.591   5.679   7.624 -1.0889 -0.6213 -1.6300
  168SOPE   H7S18935   4.674   5.650   7.464 -0.7616 -0.2951 -1.1067
  168SOPE   C2818936   4.757   5.803   7.574  0.1663 -0.4701  0.8419
  168SOPE   H8R18937   4.804   5.860   7.491 -0.3147  2.1424  2.2619
  168SOPE   H8S18938   4.708   5.882   7.635  0.8904 -0.1429  1.0001
  168SOPE   C2918939   4.856   5.721   7.655  0.0055  0.3674 -0.8396
  168SOPE   H9118940   4.882   5.622   7.616 -1.2332 -0.7538  1.0381
  168SOPE  C21018941   4.903   5.762   7.777  0.1663 -0.1657 -0.2404
  168SOPE  H10118942   4.975   5.694   7.826 -1.4792 -0.8720  1.2950
  168SOPE  C21118943   4.872   5.884   7.851 -0.2710 -0.0704 -0.1573
  168SOPE  H11R18944   4.848   5.969   7.783  1.7365  0.0604 -0.7683
  168SOPE  H11S18945   4.971   5.910   7.895 -1.0015 -0.2797  1.7166
  168SOPE  C21218946   4.764   5.875   7.955 -0.2806 -0.5462  0.3187
  168SOPE  H12R18947   4.664   5.856   7.911 -0.1258 -2.1558  0.5946
  168SOPE  H12S18948   4.772   5.974   8.006  1.8998  0.4121 -1.7120
  168SOPE  C21318949   4.774   5.752   8.052 -0.1162 -0.0231  0.3614
  168SOPE  H13R18950   4.769   5.658   7.993 -0.0925 -0.0579  0.4154
  168SOPE  H13S18951   4.687   5.758   8.121 -0.1826  0.1332  0.2644
  168SOPE  C21418952   4.901   5.766   8.136 -0.6146 -0.6885  0.7283
  168SOPE  H14R18953   4.918   5.875   8.148  0.4198 -0.8405  0.7402
  168SOPE  H14S18954   4.981   5.723   8.073 -0.3154 -0.4620  0.9491
  168SOPE  C21518955   4.912   5.703   8.278 -0.5750  0.3836  0.1494
  168SOPE  H15R18956   4.861   5.605   8.267  1.0682 -0.5630  0.5506
  168SOPE  H15S18957   4.845   5.754   8.351 -0.4230 -1.9708  2.0585
  168SOPE  C21618958   5.058   5.698   8.331 -0.1141  0.1426 -0.5097
  168SOPE  H16R18959   5.119   5.790   8.344 -0.8756  0.8951 -1.9654
  168SOPE  H16S18960   5.117   5.631   8.265  0.4527 -1.7414  1.7879
  168SOPE  C21718961   5.067   5.629   8.475  0.2074  0.0121  0.1893
  168SOPE  H17R18962   5.002   5.696   8.535 -0.1491  0.1412 -0.3381
  168SOPE  H17S18963   5.173   5.640   8.510  1.5188 -1.8550 -2.8090
  168SOPE  C21818964   5.013   5.482   8.482 -0.1268 -0.1232  0.3566
  168SOPE  H18R18965   5.001   5.448   8.587 -0.9980 -2.9146 -0.5444
  168SOPE  H18S18966   5.079   5.409   8.430 -0.8922  0.5478 -1.6621
  168SOPE  H18T18967   4.923   5.471   8.418 -0.4866 -1.0686  0.9908
  168SOPE   C3318968   5.025   6.504   6.898  0.2051 -0.2658 -0.1697
  168SOPE   H3X18969   4.941   6.565   6.938 -0.6114 -1.6056  0.2387
  168SOPE   H3Y18970   5.054   6.566   6.810  2.3880 -0.1085  0.6093
  168SOPE   C3418971   5.147   6.515   6.990  0.1253  0.5381 -0.1637
  168SOPE   H4X18972   5.185   6.617   7.012  0.9478  0.2467 -0.2111
  168SOPE   H4Y18973   5.227   6.464   6.933  0.4248 -1.8442  2.2029
  168SOPE   C3518974   5.131   6.434   7.124 -0.1783 -0.2246 -0.6323
  168SOPE   H5X18975   5.086   6.335   7.105  0.1271 -0.0970 -2.1528
  168SOPE   H5Y18976   5.066   6.490   7.194  0.5961  1.6418 -1.3235
  168SOPE   C3618977   5.269   6.414   7.184 -0.0692  0.6721 -0.3487
  168SOPE   H6X18978   5.301   6.518   7.208  0.4929  0.7115 -1.2179
  168SOPE   H6Y18979   5.345   6.368   7.117  1.8534  3.3707 -0.1977
  168SOPE   C3718980   5.285   6.332   7.318  0.6251 -0.2718  0.3398
  168SOPE   H7X18981   5.260   6.224   7.305  1.4988 -0.4985  0.4539
  168SOPE   H7Y18982   5.214   6.380   7.388  1.8774  1.1931  0.6583
  168SOPE   C3818983   5.417   6.362   7.383 -0.3521  0.7456  0.5217
  168SOPE   H8X18984   5.437   6.470   7.397  3.3992  0.0100  2.2095
  168SOPE   H8Y18985   5.513   6.331   7.337 -0.0966  1.0553  0.8427
  168SOPE   C3918986   5.424   6.308   7.531 -0.0804  0.0994  0.0958
  168SOPE   H9X18987   5.443   6.199   7.525  0.1844  0.1697 -0.3845
  168SOPE   H9Y18988   5.329   6.329   7.586  0.7701  0.6821  1.3858
  168SOPE  C31018989   5.535   6.365   7.618  0.0827 -0.1087  0.8721
  168SOPE  H10X18990   5.525   6.475   7.633 -1.3321 -0.5749  3.8978
  168SOPE  H10Y18991   5.634   6.345   7.571  1.0608  2.7037  1.5211
  168SOPE  C31118992   5.531   6.302   7.756 -0.4402 -0.2544 -0.1068
  168SOPE  H11X18993   5.544   6.192   7.752 -1.7567 -0.4577  0.6561
  168SOPE  H11Y18994   5.428   6.309   7.797  0.0629  0.0973  1.1338
  168SOPE  C31218995   5.634   6.356   7.856  0.5061 -0.4430 -0.5103
  168SOPE  H12X18996   5.735   6.350   7.812  0.3894 -0.9553 -0.7163
  168SOPE  H12Y18997   5.630   6.285   7.942 -1.3406 -0.7638 -0.8203
  168SOPE  C31318998   5.603   6.503   7.902 -0.2007 -0.1353 -0.0606
  168SOPE  H13X18999   5.497   6.504   7.936  0.0200 -0.4161  0.6379
  168SOPE  H13Y19000   5.629   6.565   7.814  3.2686 -1.7321 -0.3226
  168SOPE  C31419001   5.695   6.534   8.018 -0.3625 -0.1907 -0.8989
  168SOPE  H14X19002   5.801   6.510   7.992 -0.9914 -0.0645 -3.9542
  168SOPE  H14Y19003   5.662   6.465   8.099  2.1017  0.3713  0.6919
  168SOPE  C31519004   5.673   6.681   8.077  0.1342 -0.5123  0.9178
  168SOPE  H15X19005   5.575   6.722   8.045  0.0241 -0.9764  0.6617
  168SOPE  H15Y19006   5.749   6.748   8.031 -1.7567 -0.1531 -1.9369
  168SOPE  C31619007   5.709   6.675   8.226  0.4208 -0.1625  0.4023
  168SOPE  H16X19008   5.776   6.591   8.252  0.4056  0.0309  1.0787
  168SOPE  H16Y19009   5.612   6.675   8.280  0.2755  1.7560  0.2218
  168SOPE  C31719010   5.784   6.799   8.281 -0.2007 -0.1125  0.8058
  168SOPE  H17X19011   5.706   6.878   8.276 -0.4835 -0.4391 -0.3578
  168SOPE  H17Y19012   5.870   6.830   8.217  0.7599 -1.9736  1.1278
  168SOPE  C31819013   5.830   6.777   8.421 -0.6598 -0.2833 -0.3717
  168SOPE  H18X19014   5.899   6.855   8.459  3.3653 -3.2646 -0.8264
  168SOPE  H18Y19015   5.896   6.688   8.422 -1.1833 -0.6750 -0.2682
  168SOPE  H18Z19016   5.738   6.763   8.482 -0.1435  0.3176  0.5751
  169SOPE     N19017   0.040   0.312   6.055 -0.3709  0.0662 -0.3070
  169SOPE   HN119018   0.036   0.305   5.951 -0.2665  1.5082 -0.4264
  169SOPE   HN219019   0.029   0.218   6.098 -2.3528  0.5118  0.2382
  169SOPE   HN319020  -0.039   0.372   6.087 -0.9326 -1.7526  2.0129
  169SOPE   C1219021   0.177   0.364   6.082  0.1703 -0.2816 -0.0959
  169SOPE  H12A19022   0.199   0.445   6.010 -1.3121 -1.5071 -2.0007
  169SOPE  H12B19023   0.242   0.283   6.043  0.7744  0.7422 -1.3011
  169SOPE   C1119024   0.200   0.403   6.229 -0.1689 -0.8562  0.1403
  169SOPE  H11A19025   0.234   0.508   6.237  1.5762 -1.4136  0.3985
  169SOPE  H11B19026   0.286   0.356   6.281 -0.2341 -1.1793 -0.0397
  169SOPE     P19027   0.012   0.474   6.406 -0.1326 -0.1578  0.2358
  169SOPE   O1319028  -0.132   0.472   6.383 -0.0277  0.0692  0.3177
  169SOPE   O1419029   0.083   0.608   6.407 -0.5566 -0.1229 -0.3703
  169SOPE   O1219030   0.082   0.369   6.309  0.3920  0.3623  0.1161
  169SOPE   O1119031   0.043   0.404   6.540 -0.1858 -0.6666  0.0134
  169SOPE    C119032  -0.037   0.316   6.615  0.1315 -0.3585 -0.1521
  169SOPE    HA19033   0.030   0.260   6.684  1.3341  1.3400  0.1162
  169SOPE    HB19034  -0.085   0.243   6.547 -1.6112  1.5314 -1.0525
  169SOPE    C219035  -0.143   0.385   6.703  0.8820  0.1394  0.1666
  169SOPE    HS19036  -0.218   0.431   6.635  2.4030  4.5122  1.0703
  169SOPE   O2119037  -0.074   0.498   6.773 -0.1407  0.1849  0.0362
  169SOPE   C2119038  -0.156   0.593   6.816  0.0976 -0.6825 -0.0469
  169SOPE   O2219039  -0.278   0.605   6.788  0.4869  0.9812 -0.1596
  169SOPE   C2219040  -0.079   0.702   6.881 -0.1500 -0.7194 -0.3944
  169SOPE   H2R19041  -0.147   0.789   6.894  2.3458  1.3275 -0.2292
  169SOPE   H2S19042  -0.003   0.740   6.809 -0.1813  2.0007  0.8774
  169SOPE    C319043  -0.212   0.287   6.798  0.1186 -0.1089 -0.1586
  169SOPE    HX19044  -0.271   0.216   6.736  2.4218 -0.3645 -2.2425
  169SOPE    HY19045  -0.283   0.347   6.858  0.1327  1.1765 -1.3583
  169SOPE   O3119046  -0.112   0.217   6.876 -0.1411 -0.0446  0.1457
  169SOPE   C3119047  -0.093   0.257   7.002 -0.3522  0.1758 -0.3960
  169SOPE   O3219048  -0.157   0.348   7.058 -0.4910  0.2382 -0.3353
  169SOPE   C3219049   0.026   0.185   7.062 -0.0855 -0.5433 -0.0382
  169SOPE   H2X19050   0.104   0.162   6.986  0.1918 -0.0664  0.0986
  169SOPE   H2Y19051  -0.010   0.085   7.094 -0.5365  0.2679  2.1945
  169SOPE   C2319052  -0.021   0.669   7.020  0.1944  0.3838  0.0503
  169SOPE   H3R19053   0.047   0.581   7.021 -0.9268 -0.5256  1.5519
  169SOPE   H3S19054  -0.095   0.620   7.087  1.4548 -0.7257  0.6724
  169SOPE   C2419055   0.032   0.789   7.093 -0.6870 -0.3783  0.2057
  169SOPE   H4R19056   0.116   0.834   7.036  1.1302 -2.7135  0.9108
  169SOPE   H4S19057  -0.044   0.870   7.084 -0.2713 -0.1466 -1.4702
  169SOPE   C2519058   0.074   0.761   7.234  0.3921 -0.3648  0.3436
  169SOPE   H5R19059  -0.018   0.737   7.292 -1.5558  1.7801 -1.6491
  169SOPE   H5S19060   0.153   0.683   7.238  2.6870  1.8775  1.8479
  169SOPE   C2619061   0.134   0.881   7.306  0.1833 -0.0261  0.8165
  169SOPE   H6R19062   0.233   0.909   7.265  0.1167 -0.6752  0.1898
  169SOPE   H6S19063   0.066   0.967   7.293  1.7720  1.2566  0.6630
  169SOPE   C2719064   0.156   0.864   7.455  0.1491 -0.4891 -0.3030
  169SOPE   H7R19065   0.065   0.814   7.494  0.3050 -2.6206 -2.5136
  169SOPE   H7S19066   0.244   0.797   7.463 -0.2100 -1.4390 -3.2341
  169SOPE   C2819067   0.183   1.006   7.515 -0.9525  0.1760  0.1935
  169SOPE   H8R19068   0.264   1.045   7.449 -1.6138 -1.8631 -1.9408
  169SOPE   H8S19069   0.091   1.067   7.507  0.4111  2.1954 -1.0284
  169SOPE   C2919070   0.223   0.975   7.653  0.2931  0.3470 -0.1294
  169SOPE   H9119071   0.185   0.887   7.707  1.1246  1.6368  2.7206
  169SOPE  C21019072   0.310   1.050   7.715 -0.1341 -0.3998  0.2439
  169SOPE  H10119073   0.332   1.020   7.819 -1.4679  0.3945  0.7724
  169SOPE  C21119074   0.373   1.178   7.670  0.0942 -0.3424 -0.7651
  169SOPE  H11R19075   0.311   1.226   7.590  0.4168 -1.7130 -1.8650
  169SOPE  H11S19076   0.468   1.153   7.618  0.5990  0.3713 -0.2080
  169SOPE  C21219077   0.405   1.286   7.778  0.2444 -0.1957 -0.9231
  169SOPE  H12R19078   0.311   1.333   7.814  0.7524  0.8220 -0.8901
  169SOPE  H12S19079   0.452   1.366   7.718 -1.9982  0.4893 -1.8507
  169SOPE  C21319080   0.508   1.240   7.882 -0.9033  0.3014 -0.3324
  169SOPE  H13R19081   0.597   1.197   7.831 -0.4384 -0.9336  1.4446
  169SOPE  H13S19082   0.476   1.161   7.954  1.1791 -0.9216 -0.6645
  169SOPE  C21419083   0.562   1.350   7.979  0.7371  0.5156 -0.2244
  169SOPE  H14R19084   0.467   1.397   8.013 -0.9358 -2.4907 -0.3723
  169SOPE  H14S19085   0.615   1.435   7.932  0.3148  1.2478  0.5952
  169SOPE  C21519086   0.632   1.301   8.102 -0.1671  0.1160 -0.3067
  169SOPE  H15R19087   0.731   1.253   8.087  1.8299  2.7140  3.0972
  169SOPE  H15S19088   0.563   1.223   8.139 -0.8297  1.1498  0.6883
  169SOPE  C21619089   0.656   1.418   8.197  0.9045  0.3201 -0.2493
  169SOPE  H16R19090   0.562   1.478   8.191 -0.6964 -2.1503 -1.4851
  169SOPE  H16S19091   0.747   1.476   8.172  1.7341  0.3701  2.5412
  169SOPE  C21719092   0.665   1.378   8.348 -0.1294  0.3871 -0.1704
  169SOPE  H17R19093   0.565   1.339   8.376 -0.2708 -0.8203 -2.1312
  169SOPE  H17S19094   0.682   1.476   8.398  0.8669  0.0342  0.2079
  169SOPE  C21819095   0.778   1.275   8.392  0.5922  0.3171  0.2845
  169SOPE  H18R19096   0.873   1.283   8.335  0.6503 -1.6780  0.0271
  169SOPE  H18S19097   0.736   1.172   8.389  2.9492 -0.7334  0.5391
  169SOPE  H18T19098   0.808   1.283   8.499 -0.0413 -0.3645  0.5209
  169SOPE   C3319099   0.094   0.273   7.175  0.1480 -0.2411  0.3652
  169SOPE   H3X19100   0.110   0.376   7.135  0.0335  0.0984  1.1828
  169SOPE   H3Y19101   0.197   0.234   7.188  0.6164  0.6856 -0.4533
  169SOPE   C3419102   0.002   0.289   7.299 -0.1259  0.8999  0.1788
  169SOPE   H4X19103  -0.020   0.189   7.342  1.0602  0.4974 -0.1234
  169SOPE   H4Y19104  -0.102   0.330   7.296 -0.5577 -0.0951  0.8910
  169SOPE   C3519105   0.062   0.378   7.407 -0.9280 -0.1397 -0.5304
  169SOPE   H5X19106   0.087   0.473   7.355 -2.4132  0.3966 -0.3306
  169SOPE   H5Y19107   0.152   0.330   7.451 -1.8041 -1.0368  0.3417
  169SOPE   C3619108  -0.039   0.418   7.513 -0.6766  0.7224  0.0136
  169SOPE   H6X19109  -0.068   0.320   7.557 -0.3664  0.2620 -0.7885
  169SOPE   H6Y19110  -0.136   0.451   7.470 -1.5706 -1.9438 -0.2055
  169SOPE   C3719111   0.025   0.502   7.623 -0.1070 -1.1386 -0.5222
  169SOPE   H7X19112   0.075   0.595   7.592  0.1111 -1.2990 -0.6519
  169SOPE   H7Y19113   0.097   0.443   7.684 -0.9077  0.7238  2.4543
  169SOPE   C3819114  -0.078   0.561   7.725  0.8191 -0.7483  0.3336
  169SOPE   H8X19115  -0.138   0.641   7.677  2.2865 -0.0377 -0.3847
  169SOPE   H8Y19116  -0.148   0.479   7.753  0.6653 -1.0047 -0.7728
  169SOPE   C3919117  -0.017   0.602   7.857  0.2377 -0.5413 -0.1135
  169SOPE   H9X19118   0.038   0.696   7.837  0.8006 -0.7798  0.2742
  169SOPE   H9Y19119   0.050   0.523   7.897  1.5303  0.7053  0.2477
  169SOPE  C31019120  -0.114   0.622   7.976 -0.4663 -0.7214 -0.0737
  169SOPE  H10X19121  -0.170   0.527   7.986 -0.7405 -0.4982  0.5418
  169SOPE  H10Y19122  -0.182   0.702   7.940  0.1924  0.0744  0.3967
  169SOPE  C31119123  -0.038   0.658   8.103 -0.5649  0.6782  0.3644
  169SOPE  H11X19124   0.015   0.754   8.087 -0.3677  0.7937  1.5965
  169SOPE  H11Y19125   0.042   0.587   8.132  0.7665  1.7484 -0.6018
  169SOPE  C31219126  -0.132   0.683   8.226  0.5020 -0.4436 -0.0679
  169SOPE  H12X19127  -0.169   0.592   8.278 -1.1979 -0.3719 -1.0633
  169SOPE  H12Y19128  -0.219   0.732   8.178  0.6467 -1.7586 -1.7944
  169SOPE  C31319129  -0.063   0.765   8.334 -0.2832 -0.0991 -0.4776
  169SOPE  H13X19130  -0.042   0.872   8.312 -1.3798  0.4397  0.9471
  169SOPE  H13Y19131   0.033   0.719   8.366 -0.2475  0.7716  0.7251
  169SOPE  C31419132  -0.150   0.777   8.459 -0.4126 -0.1138  0.6792
  169SOPE  H14X19133  -0.214   0.687   8.470  1.8617 -1.9590 -0.3228
  169SOPE  H14Y19134  -0.214   0.867   8.465 -1.3160 -0.6777 -0.1685
  169SOPE  C31519135  -0.066   0.764   8.591 -0.0254 -0.6178 -0.1683
  169SOPE  H15X19136   0.013   0.841   8.577 -0.5497 -0.0869 -0.2469
  169SOPE  H15Y19137  -0.009   0.669   8.587 -0.6325 -0.9553 -1.0490
  169SOPE  C31619138  -0.136   0.782   8.723  0.5888  0.3201 -1.1287
  169SOPE  H16X19139  -0.203   0.870   8.728  2.3798  1.7955 -2.0385
  169SOPE  H16Y19140  -0.050   0.799   8.792  0.3377  0.5170 -0.8614
  169SOPE  C31719141  -0.237   0.675   8.772 -0.4958  0.1987  1.5159
  169SOPE  H17X19142  -0.188   0.577   8.753 -0.0795  0.7509 -0.5211
  169SOPE  H17Y19143  -0.325   0.677   8.703 -0.8173  1.3117  1.9382
  169SOPE  C31819144  -0.291   0.682   8.916  0.6554  0.4793  0.3768
  169SOPE  H18X19145  -0.304   0.579   8.958 -1.7668  0.5104 -0.1246
  169SOPE  H18Y19146  -0.388   0.736   8.918  0.6185  0.4383 -0.1140
  169SOPE  H18Z19147  -0.218   0.743   8.973  0.5876  1.1799 -0.2733
  170SOPE     N19148   1.202   0.270   6.473  0.0674 -0.1837  0.2938
  170SOPE   HN119149   1.144   0.227   6.549 -2.2917  1.0340 -0.6954
  170SOPE   HN219150   1.160   0.343   6.412  4.9608  2.6410 -0.1452
  170SOPE   HN319151   1.238   0.190   6.417 -2.4302  0.1699 -2.0143
  170SOPE   C1219152   1.321   0.343   6.520  0.2774  0.1023  0.3996
  170SOPE  H12A19153   1.384   0.352   6.430 -0.7702 -1.7286 -0.5844
  170SOPE  H12B19154   1.388   0.281   6.583  0.3497 -1.2060 -0.9012
  170SOPE   C1119155   1.278   0.477   6.572 -0.2528 -0.0293 -0.0392
  170SOPE  H11A19156   1.232   0.546   6.498  1.6278  0.0189 -1.2456
  170SOPE  H11B19157   1.369   0.531   6.607 -0.2341  0.2456 -0.4994
  170SOPE     P19158   1.123   0.587   6.757 -0.4762  0.0891 -0.1823
  170SOPE   O1319159   1.030   0.544   6.866 -0.3959  0.0908 -0.4133
  170SOPE   O1419160   1.071   0.672   6.651  0.2324  1.0381  0.0469
  170SOPE   O1219161   1.197   0.457   6.689  0.3034 -0.2623 -0.2201
  170SOPE   O1119162   1.242   0.667   6.821 -0.2192  0.5387 -0.1519
  170SOPE    C119163   1.357   0.603   6.879 -1.0768 -0.0343  0.6987
  170SOPE    HA19164   1.454   0.648   6.848  0.3808 -2.5375  1.3869
  170SOPE    HB19165   1.377   0.496   6.858 -0.1381 -0.2328  2.4508
  170SOPE    C219166   1.348   0.623   7.033  0.1089  0.3122  0.1316
  170SOPE    HS19167   1.443   0.587   7.080  0.3308  2.1606  1.2025
  170SOPE   O2119168   1.232   0.551   7.081  0.7268  0.1822  0.2998
  170SOPE   C2119169   1.235   0.422   7.068 -0.2893 -0.2919  0.2056
  170SOPE   O2219170   1.335   0.358   7.041  0.0224 -0.1960  0.3469
  170SOPE   C2219171   1.103   0.364   7.117  0.3593  0.0814  0.0204
  170SOPE   H2R19172   1.070   0.287   7.043 -1.4536 -0.1984  1.0659
  170SOPE   H2S19173   1.025   0.444   7.113 -0.2331 -0.4496  0.7018
  170SOPE    C319174   1.344   0.769   7.072  0.1336  0.1893  0.0246
  170SOPE    HX19175   1.251   0.810   7.029  1.3392  1.9762 -1.0053
  170SOPE    HY19176   1.431   0.815   7.020  0.5070  0.9317  1.2624
  170SOPE   O3119177   1.365   0.780   7.220 -1.3531  0.1214  0.5324
  170SOPE   C3119178   1.252   0.798   7.290 -0.2528 -0.0894 -0.5224
  170SOPE   O3219179   1.141   0.791   7.236  0.3768  0.3898 -0.6936
  170SOPE   C3219180   1.291   0.831   7.431  0.0752  0.4319 -0.7884
  170SOPE   H2X19181   1.325   0.936   7.439 -0.9655  0.6344  2.2934
  170SOPE   H2Y19182   1.375   0.770   7.470  0.4704  1.4184 -0.0483
  170SOPE   C2319183   1.105   0.311   7.261 -0.4452 -0.2892 -0.1057
  170SOPE   H3R19184   1.203   0.258   7.268  0.7824  1.9893  1.2205
  170SOPE   H3S19185   1.019   0.247   7.290  1.1514 -2.3288  0.3930
  170SOPE   C2419186   1.120   0.426   7.354 -0.1045 -0.8302  0.2910
  170SOPE   H4R19187   1.225   0.460   7.362 -1.1440  3.7755 -2.0969
  170SOPE   H4S19188   1.069   0.521   7.327  0.6150 -0.3242  0.6614
  170SOPE   C2519189   1.095   0.390   7.505  0.3342 -0.2238  0.4083
  170SOPE   H5R19190   1.137   0.288   7.523  1.0126  0.1629  1.0726
  170SOPE   H5S19191   1.157   0.454   7.570 -1.3006  1.8318  0.0443
  170SOPE   C2619192   0.951   0.392   7.554  0.3369 -0.5486  0.6675
  170SOPE   H6R19193   0.902   0.491   7.543  1.4671 -0.0960 -0.4669
  170SOPE   H6S19194   0.888   0.328   7.489  0.8965  0.7552 -1.2329
  170SOPE   C2719195   0.937   0.348   7.700 -0.3884 -0.1636  0.1398
  170SOPE   H7R19196   0.830   0.319   7.710 -0.7461  0.3169 -1.8720
  170SOPE   H7S19197   0.986   0.254   7.732 -0.6427  0.0184  1.0832
  170SOPE   C2819198   0.968   0.454   7.795 -0.4734 -0.5081 -0.3835
  170SOPE   H8R19199   1.058   0.512   7.768 -0.6676 -0.2545 -0.4841
  170SOPE   H8S19200   0.880   0.521   7.786 -2.3393 -2.5363  1.4348
  170SOPE   C2919201   0.955   0.414   7.939 -0.2698 -0.4826 -1.0429
  170SOPE   H9119202   0.887   0.328   7.952  0.7284 -1.0345  0.9597
  170SOPE  C21019203   1.037   0.453   8.045  0.1361 -0.3084  0.2638
  170SOPE  H10119204   1.020   0.416   8.148  0.6712 -0.8634  0.1531
  170SOPE  C21119205   1.151   0.553   8.030 -0.0616  0.2872  0.0247
  170SOPE  H11R19206   1.171   0.615   8.120  0.1701  1.5647 -0.8876
  170SOPE  H11S19207   1.117   0.619   7.947 -1.5985  0.1333  0.5036
  170SOPE  C21219208   1.292   0.492   8.000  0.2319 -0.1329  0.1471
  170SOPE  H12R19209   1.353   0.582   7.978  0.5490 -0.6132 -1.0424
  170SOPE  H12S19210   1.281   0.427   7.910 -1.9321 -1.5417  1.3401
  170SOPE  C21319211   1.354   0.410   8.111 -0.2539 -0.4619 -0.2982
  170SOPE  H13R19212   1.311   0.310   8.088  0.5439 -0.7455 -0.5850
  170SOPE  H13S19213   1.310   0.455   8.202 -2.1240 -0.2127 -1.2671
  170SOPE  C21419214   1.512   0.401   8.101 -0.3647 -0.0756  0.0696
  170SOPE  H14R19215   1.566   0.488   8.144 -1.4409  0.6448  0.0306
  170SOPE  H14S19216   1.536   0.398   7.993 -1.2112  4.5975 -0.4821
  170SOPE  C21519217   1.562   0.267   8.159  0.2665 -0.3363 -0.3297
  170SOPE  H15R19218   1.539   0.185   8.088  3.1415 -0.4439 -1.2410
  170SOPE  H15S19219   1.498   0.256   8.250 -0.9800  0.5915 -1.0666
  170SOPE  C21619220   1.706   0.266   8.214  0.2658  0.0907  0.0628
  170SOPE  H16R19221   1.710   0.353   8.283 -0.4717  1.0673 -1.0778
  170SOPE  H16S19222   1.772   0.282   8.126 -1.1212  0.8538 -0.8889
  170SOPE  C21719223   1.728   0.138   8.294  0.1829 -0.0709 -0.2707
  170SOPE  H17R19224   1.713   0.061   8.215  0.3120  1.4806 -1.8859
  170SOPE  H17S19225   1.649   0.123   8.371  0.5542 -0.0468  0.1209
  170SOPE  C21819226   1.857   0.120   8.376 -0.5538 -0.3352  0.1150
  170SOPE  H18R19227   1.875   0.013   8.400 -1.3196 -0.6322 -0.5932
  170SOPE  H18S19228   1.836   0.184   8.464 -2.1259  0.3302 -0.7152
  170SOPE  H18T19229   1.944   0.163   8.322  0.0625 -1.0952  0.4761
  170SOPE   C3319230   1.163   0.823   7.525  0.3460 -0.0651 -0.8561
  170SOPE   H3X19231   1.123   0.720   7.536  1.3722 -0.3906  0.0460
  170SOPE   H3Y19232   1.082   0.890   7.489  0.4059 -0.6543 -2.1149
  170SOPE   C3419233   1.180   0.887   7.671 -0.0240 -0.2785  0.2395
  170SOPE   H4X19234   1.211   0.993   7.658  1.7311 -0.9144 -1.1312
  170SOPE   H4Y19235   1.263   0.829   7.717 -0.1199 -1.3799 -0.9241
  170SOPE   C3519236   1.053   0.895   7.756  0.7804 -0.1054 -0.5122
  170SOPE   H5X19237   1.010   0.797   7.789  1.7171 -0.1972  0.4973
  170SOPE   H5Y19238   0.972   0.950   7.704 -2.1867 -0.4725  3.2431
  170SOPE   C3619239   1.075   0.980   7.886  0.7140  0.6456 -0.2467
  170SOPE   H6X19240   1.065   1.089   7.863  0.8432  0.6793 -0.1439
  170SOPE   H6Y19241   1.176   0.965   7.929  0.3943 -0.7356  0.0555
  170SOPE   C3719242   0.977   0.939   7.992 -0.1100 -0.2614  0.3388
  170SOPE   H7X19243   0.972   0.830   8.008 -1.8203 -0.1214  0.9650
  170SOPE   H7Y19244   0.874   0.965   7.959  0.1523  1.2584  0.6440
  170SOPE   C3819245   1.010   1.012   8.123 -0.1356 -0.1680  0.0543
  170SOPE   H8X19246   1.012   1.122   8.106 -0.9032 -0.2099 -0.3789
  170SOPE   H8Y19247   1.114   0.979   8.146  0.0091 -1.8515 -2.5214
  170SOPE   C3919248   0.917   0.970   8.238 -0.0416 -0.3684 -0.0229
  170SOPE   H9X19249   0.886   0.863   8.234  0.6581 -0.5723 -0.1041
  170SOPE   H9Y19250   0.827   1.035   8.242  0.4775  0.3635 -0.0802
  170SOPE  C31019251   1.002   0.970   8.369  0.3653  0.3849  0.8207
  170SOPE  H10X19252   1.033   1.074   8.392 -0.0662  0.4281  1.2308
  170SOPE  H10Y19253   1.083   0.894   8.365  2.5103  2.5428  0.8457
  170SOPE  C31119254   0.904   0.920   8.477 -0.8674  0.4109 -0.7380
  170SOPE  H11X19255   0.851   0.825   8.453  3.0429 -1.7231 -1.8228
  170SOPE  H11Y19256   0.825   0.999   8.484 -0.8896  0.3610 -0.4092
  170SOPE  C31219257   0.977   0.914   8.618 -0.5092 -0.2337  0.8571
  170SOPE  H12X19258   1.018   1.015   8.638  0.3272 -0.0953 -1.3286
  170SOPE  H12Y19259   1.064   0.849   8.594  0.7797  2.0963 -1.2155
  170SOPE  C31319260   0.893   0.857   8.738  0.0642 -0.1697 -0.2546
  170SOPE  H13X19261   0.795   0.909   8.737  0.3048  0.3542 -2.7531
  170SOPE  H13Y19262   0.949   0.879   8.831 -1.2278 -0.5385  0.6315
  170SOPE  C31419263   0.860   0.703   8.720  0.2230  0.9651  0.0509
  170SOPE  H14X19264   0.955   0.648   8.702  0.7719  1.2768  1.7391
  170SOPE  H14Y19265   0.803   0.693   8.626  0.6640  0.1380 -0.1340
  170SOPE  C31519266   0.785   0.643   8.833  0.3729 -0.5284 -0.1982
  170SOPE  H15X19267   0.707   0.717   8.859  1.2045  0.5556 -0.7300
  170SOPE  H15Y19268   0.862   0.648   8.913 -0.1362  1.1273  0.2079
  170SOPE  C31619269   0.715   0.510   8.806 -0.0345 -0.1650  0.4628
  170SOPE  H16X19270   0.800   0.445   8.774  0.8463  0.8314  0.7226
  170SOPE  H16Y19271   0.640   0.528   8.726  0.3519 -0.5142  0.0101
  170SOPE  C31719272   0.643   0.459   8.934  0.1469 -0.4686 -0.1236
  170SOPE  H17X19273   0.602   0.363   8.898  2.2723 -2.4722  2.3422
  170SOPE  H17Y19274   0.556   0.527   8.951 -0.2995 -1.2663  0.9246
  170SOPE  C31819275   0.713   0.428   9.070 -0.3794  0.1415 -0.0087
  170SOPE  H18X19276   0.743   0.521   9.123 -0.6285  1.0807 -1.4680
  170SOPE  H18Y19277   0.804   0.366   9.056 -0.2067  0.5116 -0.5550
  170SOPE  H18Z19278   0.644   0.380   9.143 -0.3950  0.3053  0.0855
  171SOPE     N19279   2.035   4.284   6.475 -0.1439 -0.1169  0.4332
  171SOPE   HN119280   2.039   4.231   6.385 -2.5943  1.7903 -0.9162
  171SOPE   HN219281   2.098   4.363   6.451 -0.6636  0.3707  0.6529
  171SOPE   HN319282   2.083   4.228   6.548  0.0673 -1.2427 -0.5386
  171SOPE   C1219283   1.892   4.333   6.486 -0.1353  0.3756  0.0490
  171SOPE  H12A19284   1.862   4.377   6.389  0.2355 -1.7513 -1.0778
  171SOPE  H12B19285   1.891   4.408   6.569  3.6786 -0.2528  0.8555
  171SOPE   C1119286   1.794   4.203   6.514 -0.7566 -0.1735 -0.2651
  171SOPE  H11A19287   1.692   4.240   6.540  0.0331  0.7475  1.7288
  171SOPE  H11B19288   1.838   4.147   6.599 -0.0360 -0.1040 -0.5870
  171SOPE     P19289   1.747   3.973   6.405  0.0715 -0.0287 -0.2485
  171SOPE   O1319290   1.796   3.910   6.281 -0.2630 -0.0260  0.3128
  171SOPE   O1419291   1.602   3.965   6.436  0.0226  0.3368 -0.0719
  171SOPE   O1219292   1.790   4.126   6.403 -0.0405  0.5701  0.1474
  171SOPE   O1119293   1.836   3.928   6.528 -0.0326  0.0311 -0.0165
  171SOPE    C119294   1.974   3.917   6.531  0.0890  0.1340 -0.0023
  171SOPE    HA19295   2.017   4.016   6.505 -0.1190  0.4875  0.9726
  171SOPE    HB19296   1.995   3.835   6.459  1.3242  0.0264  0.4523
  171SOPE    C219297   2.027   3.875   6.672 -0.1198 -0.4894 -0.8179
  171SOPE    HS19298   1.961   3.799   6.719  0.7208  0.8892  2.9144
  171SOPE   O2119299   2.024   3.988   6.755 -0.5149  0.1173 -0.2888
  171SOPE   C2119300   1.917   4.014   6.824  0.4944  0.4917 -0.3549
  171SOPE   O2219301   1.822   3.939   6.826  0.0332  0.4319 -0.3420
  171SOPE   C2219302   1.916   4.152   6.897  0.3715 -0.5014  0.0895
  171SOPE   H2R19303   1.853   4.225   6.842  1.1646 -1.8003 -2.7855
  171SOPE   H2S19304   2.019   4.194   6.889  0.7202 -1.3526 -0.0430
  171SOPE    C319305   2.169   3.822   6.660 -1.1216 -0.1952  0.3248
  171SOPE    HX19306   2.237   3.889   6.604 -1.1921 -0.2387  0.1836
  171SOPE    HY19307   2.166   3.732   6.595  1.2241  0.6385 -1.0439
  171SOPE   O3119308   2.218   3.773   6.783 -0.4595 -0.5357 -0.3848
  171SOPE   C3119309   2.308   3.852   6.850 -0.2826  0.3478 -0.6599
  171SOPE   O3219310   2.344   3.963   6.822  0.5812  0.9512 -0.0500
  171SOPE   C3219311   2.358   3.782   6.974  0.4131 -0.0769 -0.2664
  171SOPE   H2X19312   2.463   3.759   6.947  0.0678  0.3350 -2.1001
  171SOPE   H2Y19313   2.320   3.680   6.997  1.2492 -0.3512 -0.0658
  171SOPE   C2319314   1.879   4.146   7.048 -0.0344 -0.0456  0.5660
  171SOPE   H3R19315   1.788   4.083   7.060 -0.2145  0.2706  0.8759
  171SOPE   H3S19316   1.857   4.250   7.079 -1.0986 -0.7438  2.2829
  171SOPE   C2419317   1.993   4.090   7.122  0.3550 -0.2379 -0.3849
  171SOPE   H4R19318   2.011   3.983   7.098 -1.3342 -0.2206 -2.0255
  171SOPE   H4S19319   2.076   4.159   7.096  0.2630 -1.0379 -3.1128
  171SOPE   C2519320   1.954   4.104   7.274 -0.3835  0.0027 -0.2191
  171SOPE   H5R19321   1.910   4.200   7.308 -2.7329 -0.7607 -0.9245
  171SOPE   H5S19322   1.869   4.036   7.294 -0.7393  0.7467  0.8620
  171SOPE   C2619323   2.069   4.058   7.377 -0.5102 -0.1123 -0.0033
  171SOPE   H6R19324   2.107   3.957   7.351 -0.5072 -0.3835  1.0161
  171SOPE   H6S19325   2.156   4.128   7.378 -0.2801 -0.2615 -2.7495
  171SOPE   C2719326   2.014   4.047   7.520  0.7164  0.3697  0.2796
  171SOPE   H7R19327   1.970   4.143   7.555 -1.3320 -0.6921  0.8010
  171SOPE   H7S19328   1.931   3.972   7.516  1.6516 -0.7409  0.9884
  171SOPE   C2819329   2.112   3.987   7.619  0.3277 -0.1881 -0.5067
  171SOPE   H8R19330   2.054   3.917   7.682 -0.9031  0.1292 -1.2495
  171SOPE   H8S19331   2.176   3.919   7.558 -0.4835  0.3387 -1.9914
  171SOPE   C2919332   2.183   4.098   7.693 -0.1918  0.1411  0.5115
  171SOPE   H9119333   2.232   4.176   7.632 -2.4278  1.3473  0.1623
  171SOPE  C21019334   2.205   4.105   7.827  0.8811 -0.8222  0.0300
  171SOPE  H10119335   2.238   4.205   7.859 -0.2695 -0.7878  1.2281
  171SOPE  C21119336   2.163   4.021   7.940  0.1358  0.4291  0.0147
  171SOPE  H11R19337   2.232   3.934   7.941  0.1887  0.4676 -0.1920
  171SOPE  H11S19338   2.060   3.984   7.925 -0.1958  0.8988  1.0652
  171SOPE  C21219339   2.154   4.102   8.068  0.1672  0.4591 -0.2720
  171SOPE  H12R19340   2.082   4.187   8.068  0.9777  1.2210  2.1092
  171SOPE  H12S19341   2.249   4.157   8.081 -0.5481  1.2157  2.4492
  171SOPE  C21319342   2.131   4.006   8.190  0.1945 -0.7480  0.1538
  171SOPE  H13R19343   2.157   3.904   8.153  2.9158  0.1192 -0.5140
  171SOPE  H13S19344   2.029   4.003   8.235 -0.2664  1.8047 -0.6040
  171SOPE  C21419345   2.233   4.014   8.306  0.6946  0.6679  0.3757
  171SOPE  H14R19346   2.336   4.007   8.264  0.0048 -0.3877 -1.2239
  171SOPE  H14S19347   2.218   3.922   8.367  1.7073  1.2863  1.5900
  171SOPE  C21519348   2.205   4.129   8.399  0.7484 -1.0052  0.4628
  171SOPE  H15R19349   2.101   4.122   8.438  0.3130 -1.3636 -0.7000
  171SOPE  H15S19350   2.216   4.230   8.352 -0.0118 -1.0874  0.0867
  171SOPE  C21619351   2.314   4.122   8.510 -0.4424 -0.3955 -0.9729
  171SOPE  H16R19352   2.414   4.127   8.462  0.3091 -0.6114  0.4975
  171SOPE  H16S19353   2.285   4.026   8.558 -0.9452  0.4436  0.4551
  171SOPE  C21719354   2.307   4.235   8.621 -0.0763 -0.1073  0.3753
  171SOPE  H17R19355   2.320   4.331   8.567 -1.1543  0.4312  1.0488
  171SOPE  H17S19356   2.391   4.227   8.693  0.2588 -3.3502 -0.2128
  171SOPE  C21819357   2.179   4.235   8.705  0.0498 -0.6288 -0.3627
  171SOPE  H18R19358   2.183   4.309   8.787  2.0173 -0.6579 -0.3827
  171SOPE  H18S19359   2.166   4.133   8.746 -1.7508 -0.9287 -1.5413
  171SOPE  H18T19360   2.091   4.260   8.642  0.3492  1.5042  0.0077
  171SOPE   C3319361   2.352   3.875   7.103  0.0747 -0.2409  0.4884
  171SOPE   H3X19362   2.245   3.896   7.123 -0.4886 -2.5107  0.0554
  171SOPE   H3Y19363   2.414   3.967   7.091  1.0405 -0.6309  2.0762
  171SOPE   C3419364   2.414   3.796   7.213 -0.2690 -0.1347 -0.0158
  171SOPE   H4X19365   2.515   3.762   7.181  0.3089  1.1686  0.3331
  171SOPE   H4Y19366   2.354   3.706   7.234  1.8457 -1.6205 -0.0610
  171SOPE   C3519367   2.432   3.886   7.331  0.6598  0.4506  0.1814
  171SOPE   H5X19368   2.330   3.913   7.365  0.0898  0.1684 -1.2542
  171SOPE   H5Y19369   2.494   3.977   7.313  1.3560  0.3101  1.6486
  171SOPE   C3619370   2.488   3.814   7.455  0.4612 -0.2855  0.1450
  171SOPE   H6X19371   2.586   3.765   7.434 -0.1227 -0.7909 -1.5762
  171SOPE   H6Y19372   2.414   3.737   7.485  1.3499 -1.0183  0.5029
  171SOPE   C3719373   2.505   3.911   7.571 -0.0750 -0.2164  0.1356
  171SOPE   H7X19374   2.411   3.962   7.598  0.1637 -0.9497  2.7180
  171SOPE   H7Y19375   2.576   3.992   7.546  0.6834 -1.0982 -0.6609
  171SOPE   C3819376   2.550   3.852   7.712 -0.5226 -1.1633  0.1227
  171SOPE   H8X19377   2.649   3.815   7.677 -0.7967  1.2366 -3.7855
  171SOPE   H8Y19378   2.481   3.773   7.748 -2.5558  1.3757  2.2127
  171SOPE   C3919379   2.560   3.965   7.806 -0.2164  0.0425 -0.1440
  171SOPE   H9X19380   2.459   4.005   7.830 -0.8505 -1.8730  0.6038
  171SOPE   H9Y19381   2.623   4.045   7.762  0.1438 -0.8060 -1.2133
  171SOPE  C31019382   2.614   3.915   7.940  0.0413 -0.0975  0.0370
  171SOPE  H10X19383   2.711   3.867   7.913 -0.2064 -0.0983 -0.9079
  171SOPE  H10Y19384   2.544   3.835   7.973  0.2121 -0.0183  0.6039
  171SOPE  C31119385   2.628   4.018   8.047  0.0455 -0.1444 -0.7073
  171SOPE  H11X19386   2.536   4.072   8.076  0.0534  0.8582 -2.4590
  171SOPE  H11Y19387   2.694   4.096   8.004  0.2881 -0.4023 -0.8159
  171SOPE  C31219388   2.696   3.951   8.168  0.2026  0.6901 -0.5068
  171SOPE  H12X19389   2.792   3.910   8.132 -0.3618 -0.3326 -0.8712
  171SOPE  H12Y19390   2.622   3.875   8.201 -0.2162  1.6338  0.8294
  171SOPE  C31319391   2.732   4.037   8.288 -0.1736  0.3530 -0.5799
  171SOPE  H13X19392   2.646   4.070   8.350  1.4217  2.8266  0.4684
  171SOPE  H13Y19393   2.796   4.122   8.259  0.1515  0.0270 -0.8311
  171SOPE  C31419394   2.814   3.958   8.388  0.4144 -0.8875  0.3141
  171SOPE  H14X19395   2.896   3.910   8.331  0.7534 -0.7658  0.6901
  171SOPE  H14Y19396   2.757   3.878   8.440 -1.9771 -0.3988 -1.3886
  171SOPE  C31519397   2.882   4.052   8.493  0.1895 -0.0193  0.2764
  171SOPE  H15X19398   2.925   4.143   8.446 -0.8066  0.3781  0.1129
  171SOPE  H15Y19399   2.973   4.000   8.531 -0.4988  0.0920  2.1873
  171SOPE  C31619400   2.791   4.080   8.611 -0.1924 -0.6273  0.0458
  171SOPE  H16X19401   2.761   3.990   8.669  2.1923 -0.7740  1.1654
  171SOPE  H16Y19402   2.689   4.115   8.584 -1.0271 -1.7118  1.6169
  171SOPE  C31719403   2.847   4.171   8.715  0.4450  0.2735 -0.4501
  171SOPE  H17X19404   2.881   4.271   8.681 -0.7371  0.8004 -0.1298
  171SOPE  H17Y19405   2.936   4.117   8.754  2.5063  3.6227 -0.0890
  171SOPE  C31819406   2.750   4.188   8.837  0.3057 -0.1675 -0.1376
  171SOPE  H18X19407   2.746   4.089   8.887 -1.2045  0.8621  1.9936
  171SOPE  H18Y19408   2.647   4.223   8.817 -0.5752 -2.1771  0.6026
  171SOPE  H18Z19409   2.788   4.265   8.908 -1.4069 -1.3857  2.2337
  172SOPE     N19410   1.480   6.088   6.330 -0.1778  0.2837  0.4400
  172SOPE   HN119411   1.559   6.141   6.372 -2.2540  2.9504  1.2670
  172SOPE   HN219412   1.484   6.100   6.227 -1.4871 -0.4809  0.2761
  172SOPE   HN319413   1.389   6.120   6.369 -2.1301 -0.9287 -2.6910
  172SOPE   C1219414   1.505   5.942   6.368  0.3837  0.4057 -0.4149
  172SOPE  H12A19415   1.427   5.876   6.324  1.1897 -0.0491 -1.1815
  172SOPE  H12B19416   1.494   5.927   6.478  1.9707 -1.1678 -0.4338
  172SOPE   C1119417   1.637   5.900   6.313 -0.1351 -0.3729 -0.0189
  172SOPE  H11A19418   1.630   5.903   6.202 -2.4582  0.4228  0.1092
  172SOPE  H11B19419   1.648   5.793   6.343 -0.4647 -0.8885 -1.6529
  172SOPE     P19420   1.894   5.922   6.357 -0.2756  0.0328 -0.1528
  172SOPE   O1319421   1.982   6.036   6.388 -0.0141 -0.3681 -0.1544
  172SOPE   O1419422   1.920   5.852   6.230  0.4579  0.0275 -0.3149
  172SOPE   O1219423   1.746   5.975   6.363 -0.2404 -0.0936 -0.6763
  172SOPE   O1119424   1.898   5.813   6.472 -0.2316 -0.0369  0.1453
  172SOPE    C119425   1.807   5.816   6.581 -0.1416  0.5523 -0.0798
  172SOPE    HA19426   1.767   5.713   6.587  1.0696  0.1537  2.1717
  172SOPE    HB19427   1.731   5.896   6.567  0.4760  1.2839  0.6180
  172SOPE    C219428   1.878   5.860   6.710 -0.4173 -0.1305 -0.0895
  172SOPE    HS19429   1.906   5.966   6.689 -0.1803  0.2555  2.0260
  172SOPE   O2119430   1.995   5.782   6.737 -0.2055  0.2419  0.4124
  172SOPE   C2119431   2.087   5.835   6.803 -0.5475 -0.8669 -0.0089
  172SOPE   O2219432   2.083   5.950   6.856 -0.0718 -0.4285  0.4738
  172SOPE   C2219433   2.205   5.743   6.833  0.2388  0.3177 -0.3928
  172SOPE   H2R19434   2.287   5.798   6.886  0.5617  0.1956 -0.7559
  172SOPE   H2S19435   2.241   5.709   6.733 -1.8281  0.2148 -1.1454
  172SOPE    C319436   1.778   5.873   6.826  0.3151  0.4834 -0.5194
  172SOPE    HX19437   1.689   5.924   6.782 -0.6363 -0.7368 -0.0561
  172SOPE    HY19438   1.821   5.947   6.897  1.2172  0.1563 -0.7125
  172SOPE   O3119439   1.733   5.743   6.872 -0.1522 -0.1313 -0.2913
  172SOPE   C3119440   1.801   5.698   6.976  0.0276  1.1068  0.0767
  172SOPE   O3219441   1.891   5.751   7.040 -0.4118  0.2444 -0.5745
  172SOPE   C3219442   1.736   5.564   7.016  0.1466 -0.1384  0.1253
  172SOPE   H2X19443   1.736   5.501   6.924 -1.5901 -0.0578  0.0376
  172SOPE   H2Y19444   1.631   5.575   7.050  0.3609 -1.1704  1.1977
  172SOPE   C2319445   2.168   5.627   6.925 -0.6322 -0.6722 -0.2927
  172SOPE   H3R19446   2.072   5.581   6.892 -0.1095 -1.1176 -1.2451
  172SOPE   H3S19447   2.154   5.663   7.029 -0.7467 -0.1107 -0.5012
  172SOPE   C2419448   2.288   5.527   6.930 -0.2737 -0.1896  0.5055
  172SOPE   H4R19449   2.324   5.509   6.827 -1.1528  0.2604  0.1031
  172SOPE   H4S19450   2.374   5.577   6.981 -0.4405 -1.7292  2.4191
  172SOPE   C2519451   2.261   5.389   6.995  0.1223  1.3835 -0.3071
  172SOPE   H5R19452   2.177   5.340   6.941  0.4988 -1.1214  1.2598
  172SOPE   H5S19453   2.358   5.337   6.983 -0.4987  0.5074 -1.9106
  172SOPE   C2619454   2.238   5.404   7.145 -0.1443 -0.7002  0.7452
  172SOPE   H6R19455   2.324   5.464   7.182 -0.4486  0.1503  0.0893
  172SOPE   H6S19456   2.144   5.462   7.152  0.2171 -0.1782  1.4572
  172SOPE   C2719457   2.239   5.271   7.219  0.5086 -0.4058  0.4892
  172SOPE   H7R19458   2.160   5.204   7.180  2.0921 -1.2071 -1.5467
  172SOPE   H7S19459   2.333   5.217   7.193 -0.2240 -0.0122 -3.7085
  172SOPE   C2819460   2.220   5.292   7.366 -0.4891  0.2915 -0.6424
  172SOPE   H8R19461   2.287   5.368   7.412  0.8424 -1.1269 -0.1639
  172SOPE   H8S19462   2.117   5.335   7.361 -0.9482 -0.8566 -1.6974
  172SOPE   C2919463   2.202   5.164   7.445  0.2221  0.1697  0.6323
  172SOPE   H9119464   2.137   5.101   7.382 -0.7812 -0.5123  2.2882
  172SOPE  C21019465   2.238   5.128   7.570 -0.4414  0.3567 -0.1627
  172SOPE  H10119466   2.221   5.023   7.599  1.0221 -0.3672 -1.7420
  172SOPE  C21119467   2.312   5.222   7.664  0.5623  0.1347 -0.1514
  172SOPE  H11R19468   2.305   5.328   7.630 -0.3545  0.4183  0.8833
  172SOPE  H11S19469   2.420   5.199   7.663  0.4979 -0.3013 -2.1311
  172SOPE  C21219470   2.251   5.234   7.798  0.0642 -0.0554 -0.6202
  172SOPE  H12R19471   2.147   5.275   7.799 -0.3836 -1.1528  0.0749
  172SOPE  H12S19472   2.311   5.310   7.852 -2.5175  0.9999  0.9484
  172SOPE  C21319473   2.241   5.100   7.877  0.2437 -1.0364 -0.7393
  172SOPE  H13R19474   2.327   5.033   7.856  0.8336  0.7163 -4.9132
  172SOPE  H13S19475   2.155   5.047   7.830 -0.1028  0.2736 -1.6694
  172SOPE  C21419476   2.210   5.128   8.026 -0.2817 -0.2378 -0.0895
  172SOPE  H14R19477   2.117   5.188   8.023  0.2920  0.6461 -0.9349
  172SOPE  H14S19478   2.289   5.199   8.058 -1.5581  0.7641  0.9496
  172SOPE  C21519479   2.201   5.002   8.119 -0.3141  0.3963  0.0608
  172SOPE  H15R19480   2.286   4.932   8.103  1.6299  1.5203  4.2240
  172SOPE  H15S19481   2.111   4.957   8.072  0.2753  1.8040 -2.6473
  172SOPE  C21619482   2.200   5.031   8.268 -0.0595 -0.2909  0.8730
  172SOPE  H16R19483   2.303   5.060   8.300  0.0738 -1.5200  1.6093
  172SOPE  H16S19484   2.176   4.942   8.329  3.6925  0.5008  3.9095
  172SOPE  C21719485   2.117   5.160   8.311 -0.1165 -0.4441 -0.1500
  172SOPE  H17R19486   2.011   5.155   8.279  0.0606 -0.4651 -0.7600
  172SOPE  H17S19487   2.167   5.240   8.252 -0.5457 -0.6381 -0.7950
  172SOPE  C21819488   2.126   5.191   8.459  0.2112 -0.5534  0.4375
  172SOPE  H18R19489   2.059   5.278   8.475 -0.4131 -0.9337 -0.0627
  172SOPE  H18S19490   2.228   5.222   8.491  0.2508  0.0240 -0.2134
  172SOPE  H18T19491   2.091   5.115   8.532  1.9237 -2.3166 -0.4895
  172SOPE   C3319492   1.813   5.489   7.125  0.4387 -0.1534  0.0099
  172SOPE   H3X19493   1.921   5.487   7.098  0.3612  0.8127 -0.4499
  172SOPE   H3Y19494   1.773   5.386   7.125 -0.9621  0.3625  0.5276
  172SOPE   C3419495   1.791   5.544   7.263  0.2984 -0.2376  0.2389
  172SOPE   H4X19496   1.689   5.517   7.297  0.1097  0.6673  0.4240
  172SOPE   H4Y19497   1.798   5.655   7.257  4.3106 -0.4023 -2.0158
  172SOPE   C3519498   1.893   5.495   7.369  0.1507  0.6270  0.6952
  172SOPE   H5X19499   1.996   5.523   7.337 -0.0027  0.1121 -0.2684
  172SOPE   H5Y19500   1.913   5.386   7.375 -0.2956  0.6120  2.3033
  172SOPE   C3619501   1.848   5.544   7.501 -0.5448  0.4988  0.6703
  172SOPE   H6X19502   1.742   5.520   7.524 -0.2538 -0.2962  1.1928
  172SOPE   H6Y19503   1.852   5.654   7.484  0.2464  0.4274  0.3280
  172SOPE   C3719504   1.941   5.512   7.617 -0.4332 -0.2792 -0.0080
  172SOPE   H7X19505   2.050   5.523   7.596 -0.4022 -0.9873 -0.2555
  172SOPE   H7Y19506   1.918   5.408   7.647 -1.1546 -0.1465 -0.1021
  172SOPE   C3819507   1.907   5.584   7.749 -0.4845 -0.2145 -0.1589
  172SOPE   H8X19508   1.798   5.589   7.768 -0.4272  3.9313 -0.0069
  172SOPE   H8Y19509   1.947   5.687   7.734  1.9819 -1.3498 -2.0602
  172SOPE   C3919510   1.985   5.521   7.871 -0.1644 -0.2293  0.7590
  172SOPE   H9X19511   2.089   5.509   7.835 -0.8428 -2.0460 -0.7500
  172SOPE   H9Y19512   1.929   5.425   7.871 -0.5152 -0.1586 -2.5814
  172SOPE  C31019513   1.989   5.607   8.000  0.1604 -0.7649 -1.1644
  172SOPE  H10X19514   1.887   5.636   8.032  0.1022  2.1998 -3.5787
  172SOPE  H10Y19515   2.053   5.693   7.973 -3.1264  1.7834 -1.4941
  172SOPE  C31119516   2.066   5.555   8.125  0.6865 -0.4931  0.4003
  172SOPE  H11X19517   2.160   5.506   8.090 -0.2490 -1.2153 -1.2314
  172SOPE  H11Y19518   1.998   5.474   8.156  0.3534  0.0486  1.0874
  172SOPE  C31219519   2.086   5.658   8.244  0.3022 -0.0597  0.2001
  172SOPE  H12X19520   1.987   5.703   8.267 -1.2613 -3.1376  0.0667
  172SOPE  H12Y19521   2.167   5.730   8.219 -0.3977  0.2231 -1.3387
  172SOPE  C31319522   2.138   5.586   8.373  0.7063 -0.3986 -0.6422
  172SOPE  H13X19523   2.223   5.519   8.349  1.2350  0.7157 -2.0077
  172SOPE  H13Y19524   2.053   5.530   8.418  0.0178  1.5196  0.5339
  172SOPE  C31419525   2.187   5.688   8.476  0.9153  0.3166  0.4041
  172SOPE  H14X19526   2.091   5.738   8.503 -0.6510 -1.3435 -1.7341
  172SOPE  H14Y19527   2.255   5.767   8.436 -0.3498  1.0177 -0.4332
  172SOPE  C31519528   2.240   5.617   8.599  0.2976 -1.0536 -0.1879
  172SOPE  H15X19529   2.290   5.689   8.668 -1.6995  0.3965 -0.1522
  172SOPE  H15Y19530   2.321   5.548   8.566  0.4158 -0.7661 -0.5041
  172SOPE  C31619531   2.139   5.554   8.691  0.7969 -0.0683 -0.5991
  172SOPE  H16X19532   2.092   5.474   8.630 -1.0231 -0.3673  1.1113
  172SOPE  H16Y19533   2.067   5.635   8.717  0.5948  0.0285 -1.4177
  172SOPE  C31719534   2.191   5.492   8.819 -0.8748 -0.0921  0.2080
  172SOPE  H17X19535   2.274   5.427   8.783 -0.2948  0.3239  0.7700
  172SOPE  H17Y19536   2.113   5.429   8.867  0.5744 -1.5287  0.7674
  172SOPE  C31819537   2.256   5.581   8.930  0.3234  0.3886  0.8337
  172SOPE  H18X19538   2.335   5.640   8.879 -1.7323 -0.9481 -4.5723
  172SOPE  H18Y19539   2.287   5.514   9.012  1.1365 -3.6800 -2.4690
  172SOPE  H18Z19540   2.191   5.665   8.964  1.6665  2.4464 -1.3514
  173SAPI   C1219541   2.806   2.366  10.839 -0.2292  0.0544  0.1576
  173SAPI    H219542   2.852   2.269  10.868 -0.9206 -0.4611 -0.4512
  173SAPI    O219543   2.818   2.371  10.696 -0.6318  0.4870 -0.2746
  173SAPI   HO219544   2.912   2.362  10.679 -0.8162 -0.7843 -0.7874
  173SAPI   C1319545   2.661   2.379  10.883 -0.0084 -0.6232 -0.2824
  173SAPI    H319546   2.643   2.361  10.991 -1.9179  0.8629 -0.2929
  173SAPI    O319547   2.584   2.272  10.820 -0.1854  0.4319 -0.7862
  173SAPI   HO319548   2.622   2.244  10.736 -0.0039  0.4627 -0.7138
  173SAPI   C1419549   2.607   2.516  10.856  0.4463 -0.5063 -0.0807
  173SAPI    H419550   2.604   2.537  10.747  0.8041 -1.3636 -0.2614
  173SAPI    O419551   2.475   2.526  10.908  0.1042  0.0111 -1.0681
  173SAPI   HO419552   2.452   2.617  10.892  2.3521  0.8307  0.0011
  173SAPI   C1519553   2.694   2.616  10.923  0.0971  0.0812  0.0974
  173SAPI    H519554   2.696   2.604  11.034  0.0278  0.0775  0.0980
  173SAPI    O519555   2.645   2.749  10.890 -0.1628  0.3110  0.4191
  173SAPI   HO519556   2.642   2.802  10.970  1.0497  0.0996  0.6237
  173SAPI   C1619557   2.830   2.603  10.866 -0.3483 -0.6752 -0.3965
  173SAPI    H619558   2.814   2.613  10.756  0.5642  2.0663 -0.3500
  173SAPI    O619559   2.921   2.700  10.916 -0.2073 -0.0645 -0.1273
  173SAPI   HO619560   2.990   2.705  10.850 -1.6528 -0.1506 -1.7059
  173SAPI   C1119561   2.891   2.472  10.897  0.5469  1.1022 -0.7205
  173SAPI    H119562   2.878   2.448  11.004  2.0685 -0.7763 -0.9151
  173SAPI     P19563   3.141   2.370  10.922  0.2355  0.1412  0.5601
  173SAPI   O1319564   3.112   2.342  11.063 -0.4877 -0.2188  0.9891
  173SAPI   O1419565   3.269   2.440  10.909 -0.2874  0.5267  0.6727
  173SAPI   O1219566   3.025   2.462  10.855 -1.1050 -0.4853  0.0848
  173SAPI   O1119567   3.145   2.242  10.830  0.5917 -0.0724  0.3464
  173SAPI    C119568   3.222   2.209  10.714 -0.3605  0.2008 -0.4743
  173SAPI    HA19569   3.287   2.292  10.681  1.1681 -0.8021 -0.1020
  173SAPI    HB19570   3.295   2.127  10.732 -1.3854 -0.2795  1.9925
  173SAPI    C219571   3.123   2.164  10.603  0.2432  0.1240  0.3932
  173SAPI    HS19572   3.173   2.096  10.531 -1.7742 -2.3962  1.1957
  173SAPI   O2119573   3.067   2.273  10.534 -0.1561 -0.3584  0.3046
  173SAPI   C2119574   3.131   2.313  10.428  0.2314  0.2837  0.5843
  173SAPI   O2219575   3.237   2.271  10.380  0.3923 -0.1512  0.0382
  173SAPI   C2219576   3.026   2.405  10.349 -0.4953 -0.9415  0.3778
  173SAPI   H2R19577   2.924   2.363  10.356 -1.9661  2.3438  0.5590
  173SAPI   H2S19578   3.008   2.500  10.403 -0.8891 -1.1456  0.6066
  173SAPI    C319579   3.011   2.068  10.656 -0.0650 -0.0788 -0.7272
  173SAPI    HX19580   2.951   2.132  10.724  0.1717  1.3138 -1.7794
  173SAPI    HY19581   3.064   1.990  10.715 -1.1119  0.1401  0.5323
  173SAPI   O3119582   2.934   2.008  10.550 -0.1142  0.3843 -0.3428
  173SAPI   C3119583   2.799   2.004  10.570  0.6842  0.0427  0.3656
  173SAPI   O3219584   2.735   2.072  10.645 -0.0268 -0.6957  0.1208
  173SAPI   C3219585   2.742   1.920  10.455 -0.2615 -0.2627 -0.3527
  173SAPI   H2X19586   2.813   1.835  10.445 -1.6592 -1.3693 -1.3866
  173SAPI   H2Y19587   2.756   1.990  10.370  1.0556 -0.7849 -0.5876
  173SAPI   C2319588   3.093   2.455  10.221 -0.6081  0.4081 -0.4901
  173SAPI   H3R19589   3.106   2.364  10.159  0.4550 -1.1078  1.8328
  173SAPI   H3S19590   3.194   2.491  10.248 -0.8252  1.1246 -0.6073
  173SAPI   C2419591   3.017   2.566  10.149  0.7252 -0.1004 -0.8961
  173SAPI   H4R19592   3.097   2.606  10.083  0.6631  0.1697 -0.8101
  173SAPI   H4S19593   2.972   2.644  10.214  0.8070 -0.1497 -0.7802
  173SAPI   C2519594   2.896   2.512  10.086  0.0022  0.2792  0.4657
  173SAPI   H5R19595   2.835   2.456  10.158  0.6617 -1.2952 -0.1536
  173SAPI   C2619596   2.880   2.510   9.952  0.7963  0.0740 -0.0858
  173SAPI   H6R19597   2.801   2.449   9.905  0.2531  1.1050 -0.5287
  173SAPI   C2719598   2.977   2.564   9.844  0.3189  0.2194  0.1693
  173SAPI   H7R19599   3.046   2.639   9.888  1.2171 -0.6124  0.2343
  173SAPI   H7S19600   2.916   2.617   9.768 -0.2598 -2.0734 -1.0723
  173SAPI   C2819601   3.064   2.455   9.787 -0.2512 -0.2414 -0.6674
  173SAPI   H8R19602   3.082   2.379   9.865 -1.5350  0.8676  0.7816
  173SAPI   C2919603   3.094   2.434   9.662  0.7143 -0.1005  0.7346
  173SAPI   H9R19604   3.147   2.342   9.633  1.1922  1.0667 -2.5713
  173SAPI  C21019605   3.047   2.523   9.543 -0.5400  0.4845 -0.5627
  173SAPI  H10R19606   2.954   2.579   9.565 -1.8526 -2.1888  1.1173
  173SAPI  H10S19607   3.021   2.459   9.456 -2.6384 -0.9851  1.0427
  173SAPI  C21119608   3.138   2.637   9.501 -0.4233  0.5147  0.0410
  173SAPI  H11R19609   3.123   2.736   9.545  1.4728  1.1385 -0.6282
  173SAPI  C21219610   3.235   2.629   9.406 -0.3498 -0.9863  0.2314
  173SAPI  H12R19611   3.289   2.724   9.394 -0.7529 -0.7112  0.5747
  173SAPI  C21319612   3.283   2.511   9.323 -0.2062 -0.9351 -0.4160
  173SAPI  H13R19613   3.211   2.488   9.241 -2.0230  1.9295  0.2376
  173SAPI  H13S19614   3.272   2.420   9.387 -1.1774 -0.1987  0.5036
  173SAPI  C21419615   3.423   2.535   9.272  0.3023 -0.0532 -0.0176
  173SAPI  H14R19616   3.499   2.479   9.328 -0.4038 -1.8450 -0.7735
  173SAPI  C21519617   3.448   2.608   9.158  0.0240  0.8771 -0.3799
  173SAPI  H15R19618   3.550   2.632   9.123  1.2326 -1.8693  0.9444
  173SAPI  C21619619   3.340   2.672   9.062 -0.2307  0.2332 -0.1360
  173SAPI  H16R19620   3.381   2.774   9.045  2.2433 -0.9828 -2.2021
  173SAPI  H16S19621   3.240   2.692   9.107  0.4674  1.5988  0.8828
  173SAPI  C21719622   3.322   2.599   8.936  0.1244 -0.9416 -0.7113
  173SAPI  H17R19623   3.242   2.649   8.878  0.7402  1.8075  0.6474
  173SAPI  H17S19624   3.284   2.496   8.954  0.2950 -0.6988  1.2485
  173SAPI  C21819625   3.446   2.596   8.858  0.3236  0.1794 -0.2973
  173SAPI  H18R19626   3.520   2.535   8.914 -1.6978 -1.0022  1.2424
  173SAPI  H18S19627   3.475   2.703   8.847  1.5954 -0.1323 -0.1026
  173SAPI  C21919628   3.430   2.536   8.721  0.6584 -0.6578  0.8065
  173SAPI  H19R19629   3.358   2.595   8.660  1.8598 -0.4204 -0.4280
  173SAPI  H19S19630   3.388   2.433   8.721 -0.3651 -0.2792 -0.9493
  173SAPI  C22019631   3.558   2.542   8.640  0.3641  0.8061  0.8277
  173SAPI  H20R19632   3.549   2.592   8.541 -2.1214 -0.4209  0.3560
  173SAPI  H20S19633   3.587   2.438   8.614 -3.4424 -0.1061 -0.3245
  173SAPI  H20T19634   3.647   2.582   8.694  0.0373 -0.7994  2.6626
  173SAPI   C3319635   2.596   1.873  10.459 -0.3256 -0.1662  0.7179
  173SAPI   H3X19636   2.527   1.957  10.435  0.4954  0.1188 -0.7839
  173SAPI   H3Y19637   2.564   1.833  10.558 -3.3681  0.7478  0.2029
  173SAPI   C3419638   2.583   1.753  10.360 -0.5055 -0.3538  0.3272
  173SAPI   H4X19639   2.487   1.700  10.378 -0.8975  0.0616 -0.4583
  173SAPI   H4Y19640   2.668   1.683  10.372  1.4474  1.9591  0.7768
  173SAPI   C3519641   2.589   1.798  10.208 -0.3454 -0.7103 -0.1958
  173SAPI   H5X19642   2.694   1.823  10.182  0.9323 -4.7656  0.2933
  173SAPI   H5Y19643   2.512   1.877  10.197 -1.2653 -1.5197  0.2267
  173SAPI   C3619644   2.555   1.675  10.113  0.2140  0.7723  0.1437
  173SAPI   H6X19645   2.448   1.647  10.122 -0.0253  1.8651  0.8646
  173SAPI   H6Y19646   2.626   1.593  10.140 -0.5687 -0.3490 -1.0958
  173SAPI   C3719647   2.594   1.702   9.966  0.3489 -0.4259  0.5421
  173SAPI   H7X19648   2.608   1.603   9.917  3.5387 -0.1909  0.8082
  173SAPI   H7Y19649   2.695   1.747   9.956  0.2483 -0.4856 -1.0250
  173SAPI   C3819650   2.504   1.793   9.879 -0.6649  0.6915 -0.0364
  173SAPI   H8X19651   2.532   1.900   9.892 -0.5825  0.7001 -0.2633
  173SAPI   H8Y19652   2.399   1.776   9.911  0.0796 -1.5026  1.4825
  173SAPI   C3919653   2.515   1.763   9.729 -0.3490 -0.3555 -0.3530
  173SAPI   H9X19654   2.468   1.667   9.700 -0.8356  0.4320 -2.2940
  173SAPI   H9Y19655   2.623   1.765   9.705  0.0039  0.5184  1.1209
  173SAPI  C31019656   2.466   1.877   9.638  0.0070 -0.3501  0.1123
  173SAPI  H10X19657   2.518   1.971   9.665  0.1390 -0.2057 -0.6377
  173SAPI  H10Y19658   2.356   1.887   9.653 -0.3906 -2.0126 -1.3220
  173SAPI  C31119659   2.492   1.847   9.487 -0.0712 -0.7921 -0.3820
  173SAPI  H11X19660   2.441   1.754   9.455 -1.8091  0.1490 -0.5178
  173SAPI  H11Y19661   2.602   1.833   9.490 -0.1500 -1.2750  0.5371
  173SAPI  C31219662   2.448   1.947   9.385  1.5749 -0.4196  0.5634
  173SAPI  H12X19663   2.469   2.054   9.408 -1.5691  0.8119 -1.5839
  173SAPI  H12Y19664   2.338   1.936   9.376  1.5763  0.6446 -1.3272
  173SAPI  C31319665   2.500   1.921   9.237 -0.0133  0.0749  0.8895
  173SAPI  H13X19666   2.477   1.816   9.211 -2.4340  1.1424 -1.9379
  173SAPI  H13Y19667   2.610   1.937   9.241  0.0132 -0.2005  1.3146
  173SAPI  C31419668   2.445   2.005   9.120  0.4914  0.5907 -0.3120
  173SAPI  H14X19669   2.434   2.112   9.149 -2.3740  1.4398 -3.7605
  173SAPI  H14Y19670   2.345   1.975   9.082 -0.0061  0.0533  1.3421
  173SAPI  C31519671   2.541   1.999   8.997  0.1289 -0.4442  0.2154
  173SAPI  H15X19672   2.513   1.906   8.944 -0.4851  0.0905 -0.4183
  173SAPI  H15Y19673   2.646   1.994   9.033  0.6269 -0.2951 -1.1651
  173SAPI  C31619674   2.521   2.116   8.902  0.4641 -0.5162 -0.0457
  173SAPI  H16X19675   2.559   2.203   8.959  0.3281 -0.8156  0.5180
  173SAPI  H16Y19676   2.411   2.125   8.883  0.5771 -1.2702 -1.1623
  173SAPI  C31719677   2.584   2.114   8.766  0.0630  0.4412  0.9310
  173SAPI  H17X19678   2.535   2.036   8.705 -3.4334  0.8008  3.0455
  173SAPI  H17Y19679   2.691   2.091   8.789  0.0364 -0.7428 -0.0016
  173SAPI  C31819680   2.588   2.246   8.685  1.0253  0.1197 -0.1075
  173SAPI  H18X19681   2.667   2.312   8.729  2.4524 -1.6240  0.0841
  173SAPI  H18Y19682   2.487   2.292   8.682  0.7814 -0.3828  0.2550
  173SAPI  H18Z19683   2.619   2.234   8.579  1.0091 -0.5758 -0.0421
  174SAPI   C1219684   0.992   3.479  11.193 -0.2781 -0.7319  0.0788
  174SAPI    H219685   1.022   3.506  11.089  2.3252  1.6974  1.3369
  174SAPI    O219686   1.099   3.512  11.276 -0.2356  0.3718  0.2469
  174SAPI   HO219687   1.166   3.558  11.226 -0.5830  1.7549  0.9962
  174SAPI   C1319688   0.873   3.566  11.219  0.5981 -0.0411 -0.7487
  174SAPI    H319689   0.790   3.552  11.146  1.0471  0.1611 -1.3059
  174SAPI    O319690   0.906   3.701  11.197  0.3056 -0.6407  0.0513
  174SAPI   HO319691   0.992   3.724  11.234 -0.1359  0.4956  0.4262
  174SAPI   C1419692   0.822   3.543  11.360 -0.3782  0.5101  0.1505
  174SAPI    H419693   0.910   3.571  11.423  0.2237  2.1291 -1.3034
  174SAPI    O419694   0.717   3.620  11.410  0.1558  0.4614  0.5991
  174SAPI   HO419695   0.644   3.612  11.348  0.9702  0.3120 -0.3740
  174SAPI   C1519696   0.791   3.398  11.383  0.4237  0.2914 -0.6134
  174SAPI    H519697   0.706   3.383  11.312  0.0349 -2.0573  0.2682
  174SAPI    O519698   0.720   3.359  11.506 -0.3662 -0.1803 -0.3045
  174SAPI   HO519699   0.783   3.376  11.576 -1.3575 -1.6762  1.0177
  174SAPI   C1619700   0.916   3.311  11.351  0.2195 -0.2737  0.2576
  174SAPI    H619701   1.003   3.336  11.416  1.6111  0.3312 -1.7448
  174SAPI    O619702   0.880   3.175  11.370  0.0191 -0.1690  0.9969
  174SAPI   HO619703   0.963   3.126  11.368  1.0079  1.4046 -1.3410
  174SAPI   C1119704   0.952   3.335  11.198  0.0107 -0.4325  0.8168
  174SAPI    H119705   0.860   3.316  11.138 -0.2802 -0.1165  1.1600
  174SAPI     P19706   1.082   3.180  11.010  0.0212 -0.1813 -0.1803
  174SAPI   O1319707   0.950   3.138  10.960  0.0355 -0.2524  0.0965
  174SAPI   O1419708   1.192   3.080  11.021  0.2385  0.1931  0.0970
  174SAPI   O1219709   1.063   3.248  11.154 -0.1048  0.4015  0.0278
  174SAPI   O1119710   1.139   3.301  10.920  0.1544 -0.6615  0.2567
  174SAPI    C119711   1.050   3.385  10.849 -0.5685 -0.2708 -0.6296
  174SAPI    HA19712   0.951   3.398  10.897  0.8389  0.1281  2.3979
  174SAPI    HB19713   1.106   3.481  10.838  0.5624 -0.7774  0.5426
  174SAPI    C219714   1.023   3.348  10.705 -0.4875 -0.0831  0.6915
  174SAPI    HS19715   0.982   3.245  10.693 -2.2579  0.4056  2.1336
  174SAPI   O2119716   1.146   3.368  10.620  0.4565 -0.1202  0.1301
  174SAPI   C2119717   1.177   3.281  10.524  0.0268  0.1676 -0.1916
  174SAPI   O2219718   1.102   3.194  10.485 -0.0668  0.1397  0.0611
  174SAPI   C2219719   1.315   3.308  10.463 -0.3293  0.0100  0.1183
  174SAPI   H2R19720   1.306   3.331  10.354  0.4520 -2.1013 -0.4284
  174SAPI   H2S19721   1.358   3.402  10.505 -1.8355  0.5629  0.5043
  174SAPI    C319722   0.908   3.442  10.653 -0.4077  0.2915  0.4809
  174SAPI    HX19723   0.948   3.546  10.656 -0.4509  0.2953  0.9643
  174SAPI    HY19724   0.823   3.432  10.724 -0.7873  1.4701  0.2101
  174SAPI   O3119725   0.869   3.408  10.513 -0.8333  0.1512 -0.7020
  174SAPI   C3119726   0.797   3.297  10.494 -0.4752  0.4931 -0.7061
  174SAPI   O3219727   0.726   3.235  10.576 -0.7600 -0.3438  0.9747
  174SAPI   C3219728   0.792   3.273  10.343 -0.1235 -0.1256  0.8479
  174SAPI   H2X19729   0.861   3.187  10.325  2.7402  1.7837  1.9196
  174SAPI   H2Y19730   0.824   3.367  10.294 -2.3482 -0.5795 -1.7067
  174SAPI   C2319731   1.408   3.191  10.462  0.5862  0.8131  0.0477
  174SAPI   H3R19732   1.369   3.122  10.384 -0.3646  2.6858 -1.1959
  174SAPI   H3S19733   1.429   3.142  10.560 -0.5455  1.2858  0.5417
  174SAPI   C2419734   1.537   3.237  10.404  0.5103 -0.0359 -0.1040
  174SAPI   H4R19735   1.586   3.308  10.474 -0.5096 -0.0543  0.6292
  174SAPI   H4S19736   1.514   3.295  10.311 -1.4802  0.7085  0.8091
  174SAPI   C2519737   1.644   3.127  10.377  0.4622 -0.3945 -0.4198
  174SAPI   H5R19738   1.688   3.087  10.469 -1.1645 -1.3624 -0.0316
  174SAPI   C2619739   1.689   3.092  10.251 -0.0547  0.5180 -0.3961
  174SAPI   H6R19740   1.752   3.002  10.246  0.4482  0.9272 -2.8737
  174SAPI   C2719741   1.642   3.147  10.115 -0.0357  0.1207  0.4027
  174SAPI   H7R19742   1.628   3.254  10.138  0.8886  0.4057 -0.3038
  174SAPI   H7S19743   1.543   3.108  10.081  0.6544 -0.7433 -0.7316
  174SAPI   C2819744   1.736   3.133  10.001  0.0971  0.4254 -0.0662
  174SAPI   H8R19745   1.842   3.127  10.031 -0.2478 -0.3516  1.0632
  174SAPI   C2919746   1.699   3.135   9.873  0.1528 -0.2113  0.6657
  174SAPI   H9R19747   1.774   3.109   9.796 -0.0428  1.6521 -0.1947
  174SAPI  C21019748   1.563   3.164   9.813  0.3866 -0.3877 -0.1592
  174SAPI  H10R19749   1.496   3.201   9.894  0.0442  0.0388 -0.6295
  174SAPI  H10S19750   1.535   3.060   9.785  0.5177 -1.1488  2.2849
  174SAPI  C21119751   1.557   3.259   9.695 -0.2132  0.0407  0.1149
  174SAPI  H11R19752   1.653   3.303   9.667  0.3999 -1.6246 -0.5634
  174SAPI  C21219753   1.455   3.263   9.620  0.3059  0.3531  0.1100
  174SAPI  H12R19754   1.453   3.336   9.538  0.1495  1.2803  0.9271
  174SAPI  C21319755   1.326   3.175   9.637 -0.1799 -0.1032  0.3815
  174SAPI  H13R19756   1.242   3.245   9.615  0.7542  0.7072 -0.7469
  174SAPI  H13S19757   1.312   3.146   9.743  0.8334  1.1100  0.8702
  174SAPI  C21419758   1.314   3.052   9.547  0.8289 -0.0779 -0.1289
  174SAPI  H14R19759   1.301   3.076   9.440 -0.4193  0.9386  0.2147
  174SAPI  C21519760   1.310   2.917   9.575 -0.0752 -0.1727 -0.5641
  174SAPI  H15R19761   1.292   2.842   9.496  0.3704 -0.1633 -0.6763
  174SAPI  C21619762   1.322   2.856   9.709  0.0022 -0.0287  0.3618
  174SAPI  H16R19763   1.387   2.926   9.765 -1.3526  1.3087  0.3446
  174SAPI  H16S19764   1.381   2.762   9.707  1.1526  0.6777  0.1676
  174SAPI  C21719765   1.180   2.851   9.774 -0.8322 -0.3820 -0.2588
  174SAPI  H17R19766   1.118   2.786   9.708 -1.0449 -0.2906 -0.1494
  174SAPI  H17S19767   1.135   2.952   9.770 -1.5850 -0.6906  0.1553
  174SAPI  C21819768   1.191   2.804   9.917  0.0264 -0.1407 -0.2068
  174SAPI  H18R19769   1.089   2.811   9.963 -0.0728  2.4128 -0.6827
  174SAPI  H18S19770   1.253   2.881   9.968 -0.7031 -1.2600  2.5935
  174SAPI  C21919771   1.251   2.669   9.941 -0.3276 -0.4198  0.9532
  174SAPI  H19R19772   1.354   2.674   9.899 -1.6403 -0.9760 -2.7864
  174SAPI  H19S19773   1.207   2.581   9.887 -2.2805  0.1768  1.4844
  174SAPI  C22019774   1.257   2.632  10.091  0.5268  0.3906  0.2744
  174SAPI  H20R19775   1.318   2.705  10.149  0.1496 -1.3630  3.1073
  174SAPI  H20S19776   1.314   2.536  10.096 -0.5878 -0.4624 -1.9152
  174SAPI  H20T19777   1.160   2.622  10.145  0.3382  3.2453  0.5964
  174SAPI   C3319778   0.646   3.227  10.299  0.4180 -0.0391  0.5589
  174SAPI   H3X19779   0.606   3.130  10.335  0.3969 -0.5925 -0.9103
  174SAPI   H3Y19780   0.651   3.215  10.189  0.3484 -0.0030  0.5524
  174SAPI   C3419781   0.540   3.337  10.326 -0.0942 -0.3199 -0.1523
  174SAPI   H4X19782   0.541   3.354  10.436  2.2299  1.2144 -0.3515
  174SAPI   H4Y19783   0.437   3.308  10.295 -0.6480  0.5017  0.8548
  174SAPI   C3519784   0.559   3.471  10.247 -0.2325 -0.2928 -0.5374
  174SAPI   H5X19785   0.647   3.521  10.293  0.8754 -2.9973  0.4514
  174SAPI   H5Y19786   0.473   3.540  10.255  1.1048  1.3481  0.5231
  174SAPI   C3619787   0.595   3.459  10.100 -0.0430  0.1544  1.3795
  174SAPI   H6X19788   0.500   3.434  10.048  0.1485 -0.1983  1.1967
  174SAPI   H6Y19789   0.666   3.375  10.088 -0.3626  0.0496  0.1317
  174SAPI   C3719790   0.643   3.593  10.033  0.1604  0.7105  0.0988
  174SAPI   H7X19791   0.674   3.572   9.928 -0.4262 -0.8989  0.2226
  174SAPI   H7Y19792   0.744   3.617  10.074  0.7610 -0.0373 -0.8882
  174SAPI   C3819793   0.542   3.705  10.041 -0.1130  0.0981 -0.3130
  174SAPI   H8X19794   0.527   3.737  10.147 -0.4462  0.1674 -0.3803
  174SAPI   H8Y19795   0.440   3.665  10.021 -0.1849  0.5662 -0.8825
  174SAPI   C3919796   0.563   3.830   9.952  0.2864 -0.7551  0.2843
  174SAPI   H9X19797   0.657   3.879   9.984  0.4672 -2.4152  2.5662
  174SAPI   H9Y19798   0.480   3.900   9.973  0.9282 -0.0974  0.6417
  174SAPI  C31019799   0.552   3.801   9.797 -0.3893  0.3161 -0.4340
  174SAPI  H10X19800   0.518   3.899   9.758  1.5104  1.4107  0.4730
  174SAPI  H10Y19801   0.488   3.712   9.779  1.0026 -1.0710  1.0843
  174SAPI  C31119802   0.695   3.774   9.746  0.5476  0.0400  0.7914
  174SAPI  H11X19803   0.740   3.679   9.784  1.9530 -0.2984 -1.5734
  174SAPI  H11Y19804   0.767   3.850   9.784  1.6688  0.2694 -1.6100
  174SAPI  C31219805   0.711   3.775   9.588 -0.0764 -0.1215 -0.2940
  174SAPI  H12X19806   0.820   3.753   9.583 -0.3818 -3.5648  3.4055
  174SAPI  H12Y19807   0.685   3.875   9.547 -1.5282  0.4485  1.8362
  174SAPI  C31319808   0.638   3.659   9.524  0.2325  0.2178 -0.0591
  174SAPI  H13X19809   0.539   3.651   9.574  0.1638  3.0513  0.4775
  174SAPI  H13Y19810   0.682   3.558   9.534  1.4912  0.8653  1.5149
  174SAPI  C31419811   0.615   3.685   9.381 -0.6826  0.0822  0.0982
  174SAPI  H14X19812   0.563   3.783   9.379  2.7964  2.1197  0.5494
  174SAPI  H14Y19813   0.567   3.600   9.329 -1.3951  0.5866 -0.0796
  174SAPI  C31519814   0.753   3.694   9.311  0.1937 -0.5841  0.0598
  174SAPI  H15X19815   0.808   3.598   9.320 -0.9702 -1.3171 -0.3014
  174SAPI  H15Y19816   0.812   3.779   9.352  1.5461 -1.7885  0.6828
  174SAPI  C31619817   0.714   3.731   9.171 -1.0551 -0.0719  0.9310
  174SAPI  H16X19818   0.643   3.817   9.161 -1.9226 -0.9586 -1.2313
  174SAPI  H16Y19819   0.665   3.638   9.135 -0.0402 -0.1512 -0.3419
  174SAPI  C31719820   0.826   3.762   9.064  0.5009 -0.2072 -0.1457
  174SAPI  H17X19821   0.872   3.863   9.066  1.1420 -0.4804  2.1573
  174SAPI  H17Y19822   0.770   3.769   8.968 -1.5697  0.2367  1.0320
  174SAPI  C31819823   0.936   3.655   9.041 -1.1396 -0.0691 -0.1824
  174SAPI  H18X19824   0.927   3.575   9.118  2.6684 -2.7105 -2.1400
  174SAPI  H18Y19825   1.035   3.704   9.056 -0.1114 -1.2543 -2.5899
  174SAPI  H18Z19826   0.920   3.604   8.943 -0.1609 -0.8790  0.0643
  175SAPI   C1219827   2.552   3.130   6.575 -0.1918  0.3092 -0.2892
  175SAPI    H219828   2.567   3.184   6.671  0.0460  0.3589 -0.3555
  175SAPI    O219829   2.642   3.022   6.576 -0.1476 -0.2987 -0.6234
  175SAPI   HO219830   2.728   3.063   6.579 -1.0966  1.8287 -0.2394
  175SAPI   C1319831   2.410   3.085   6.575  0.2033  0.3669 -1.1828
  175SAPI    H319832   2.346   3.175   6.566  1.4863  1.2445 -1.7806
  175SAPI    O319833   2.374   3.008   6.689 -0.4419 -0.0174 -0.1211
  175SAPI   HO319834   2.452   2.956   6.708  0.3576  0.8412 -0.9194
  175SAPI   C1419835   2.377   3.027   6.444 -0.5092 -0.8656 -0.2391
  175SAPI    H419836   2.436   2.934   6.428  1.4069  0.2842 -0.2484
  175SAPI    O419837   2.246   2.979   6.433 -0.1126  0.3559 -0.1931
  175SAPI   HO419838   2.183   3.052   6.429  0.5175  1.0220  1.2826
  175SAPI   C1519839   2.410   3.111   6.332 -0.3616 -0.1650  0.1681
  175SAPI    H519840   2.346   3.202   6.325  1.4259  1.0990 -0.7159
  175SAPI    O519841   2.379   3.050   6.203 -0.3221  0.5140 -0.9331
  175SAPI   HO519842   2.314   3.104   6.158 -1.3331  0.9253  0.9631
  175SAPI   C1619843   2.554   3.160   6.340 -0.2906  0.2239  0.7271
  175SAPI    H619844   2.618   3.070   6.324 -1.8811 -0.4796 -2.6721
  175SAPI    O619845   2.585   3.248   6.226 -0.7553 -0.0372  0.3688
  175SAPI   HO619846   2.639   3.318   6.264  0.0136 -0.4754  0.1258
  175SAPI   C1119847   2.582   3.232   6.467  0.3366  0.0162  0.2643
  175SAPI    H119848   2.508   3.314   6.479  0.0860 -0.3101  0.9547
  175SAPI     P19849   2.764   3.426   6.485 -0.1691  0.0648 -0.0435
  175SAPI   O1319850   2.682   3.504   6.389  0.8048 -0.1220  0.5317
  175SAPI   O1419851   2.910   3.450   6.473  0.1153  0.3653 -0.1551
  175SAPI   O1219852   2.721   3.271   6.471 -0.0164 -0.6959 -0.1607
  175SAPI   O1119853   2.712   3.452   6.633 -0.1208  0.1746 -0.5899
  175SAPI    C119854   2.790   3.394   6.736 -0.3721  0.0840 -0.2848
  175SAPI    HA19855   2.756   3.289   6.748 -0.9435  0.3408  0.4566
  175SAPI    HB19856   2.899   3.404   6.717 -0.7164  1.9634 -1.5196
  175SAPI    C219857   2.778   3.466   6.874  0.0349 -0.0386 -0.2643
  175SAPI    HS19858   2.669   3.486   6.882 -0.3177 -1.5092 -1.0618
  175SAPI   O2119859   2.853   3.591   6.876  0.2757  0.3234  1.0096
  175SAPI   C2119860   2.788   3.697   6.846 -0.0138  0.4353 -0.8144
  175SAPI   O2219861   2.679   3.719   6.803 -0.1300 -0.2775  0.3878
  175SAPI   C2219862   2.869   3.813   6.894  0.3046  0.8115  0.7703
  175SAPI   H2R19863   2.970   3.802   6.850  0.1117 -0.4613  0.6180
  175SAPI   H2S19864   2.817   3.901   6.850 -0.3645 -0.3366 -0.8618
  175SAPI    C319865   2.814   3.379   7.002 -0.6453  0.0673  0.2380
  175SAPI    HX19866   2.907   3.318   6.995 -1.1630 -0.7641  0.4204
  175SAPI    HY19867   2.731   3.308   7.018  0.4958 -0.9200  2.0860
  175SAPI   O3119868   2.797   3.460   7.122 -0.1816  0.2767 -0.3696
  175SAPI   C3119869   2.907   3.499   7.169 -0.8343 -0.1646 -0.0144
  175SAPI   O3219870   3.018   3.492   7.117 -0.5398  0.1099  0.2380
  175SAPI   C3219871   2.881   3.556   7.312  0.7744  0.7598 -0.0725
  175SAPI   H2X19872   2.883   3.460   7.369  3.4954  0.7253 -0.0941
  175SAPI   H2Y19873   2.784   3.609   7.317  0.3107 -0.1072  0.4771
  175SAPI   C2319874   2.895   3.831   7.046  0.5115  0.1861 -0.0350
  175SAPI   H3R19875   2.995   3.876   7.062  0.5790 -0.8188  3.2779
  175SAPI   H3S19876   2.893   3.729   7.090  1.1008 -0.1690 -0.8319
  175SAPI   C2419877   2.781   3.899   7.121  0.0487 -0.5080  0.0334
  175SAPI   H4R19878   2.780   3.885   7.231 -3.4864  4.7387  1.0388
  175SAPI   H4S19879   2.687   3.852   7.084 -0.1529  2.1002 -3.2671
  175SAPI   C2519880   2.762   4.045   7.090 -0.1233  0.3961 -0.3669
  175SAPI   H5R19881   2.754   4.063   6.981 -0.2255  1.2232 -0.2349
  175SAPI   C2619882   2.780   4.152   7.172  0.4084  0.6592  0.8952
  175SAPI   H6R19883   2.764   4.255   7.137 -1.3935  0.7044  1.7592
  175SAPI   C2719884   2.814   4.150   7.318  0.1376 -0.1021 -0.2320
  175SAPI   H7R19885   2.743   4.097   7.385  2.8960 -2.5637  1.0085
  175SAPI   H7S19886   2.819   4.258   7.343 -0.4969 -0.0061 -0.5279
  175SAPI   C2819887   2.948   4.077   7.346 -0.6602 -0.3042  0.1887
  175SAPI   H8R19888   3.004   4.016   7.274  0.0635  0.6080 -0.0546
  175SAPI   C2919889   3.013   4.094   7.459 -0.3878  0.6373  0.4058
  175SAPI   H9R19890   3.102   4.032   7.478 -0.8203  0.3354  1.5270
  175SAPI  C21019891   2.969   4.165   7.582  0.3419  0.0532 -0.1109
  175SAPI  H10R19892   2.904   4.253   7.559 -0.0713 -0.9619 -3.3298
  175SAPI  H10S19893   3.059   4.215   7.625  1.1961 -1.6523  0.1567
  175SAPI  C21119894   2.909   4.077   7.691  0.3776 -0.3203  0.2523
  175SAPI  H11R19895   2.806   4.043   7.673  0.5990  0.5561 -3.5933
  175SAPI  C21219896   2.973   4.023   7.794  0.2519  0.2322  0.1677
  175SAPI  H12R19897   2.927   3.957   7.870  0.8938 -0.4986 -0.0688
  175SAPI  C21319898   3.121   4.051   7.825 -1.2570  0.0713  0.5408
  175SAPI  H13R19899   3.151   4.156   7.805  1.8764 -1.3317 -3.2589
  175SAPI  H13S19900   3.183   3.987   7.759  0.7842  2.5476 -0.1047
  175SAPI  C21419901   3.168   4.024   7.965 -0.1246 -0.1195 -0.5075
  175SAPI  H14R19902   3.224   3.929   7.968  1.7926  0.9047 -2.0813
  175SAPI  C21519903   3.162   4.098   8.079 -0.0648  0.2379  0.8900
  175SAPI  H15R19904   3.208   4.056   8.170  1.0194 -3.1738 -1.0644
  175SAPI  C21619905   3.087   4.229   8.097 -0.4060 -0.7044  0.5442
  175SAPI  H16R19906   2.991   4.204   8.147 -0.0415 -3.4841 -0.0034
  175SAPI  H16S19907   3.071   4.277   7.998  1.9911  0.3668  0.6131
  175SAPI  C21719908   3.168   4.332   8.178 -0.3446  0.1857 -0.3770
  175SAPI  H17R19909   3.116   4.430   8.168  1.3618  1.3546  1.4720
  175SAPI  H17S19910   3.267   4.346   8.129 -0.5533 -1.1792 -1.2446
  175SAPI  C21819911   3.183   4.303   8.324 -0.5877  0.6528 -0.2026
  175SAPI  H18R19912   3.224   4.201   8.343 -0.6581  0.0220 -2.9102
  175SAPI  H18S19913   3.080   4.304   8.366  0.3656  0.5899  2.3063
  175SAPI  C21919914   3.269   4.395   8.412  0.0824 -0.1681 -0.0403
  175SAPI  H19R19915   3.261   4.353   8.514 -0.3427 -2.4867 -0.9592
  175SAPI  H19S19916   3.240   4.502   8.403  4.4360  1.0499 -2.2194
  175SAPI  C22019917   3.414   4.390   8.375 -0.1669  0.5212  0.2684
  175SAPI  H20R19918   3.437   4.421   8.271 -3.7832  0.5016 -0.6800
  175SAPI  H20S19919   3.456   4.288   8.386 -0.6885  0.3120  0.3185
  175SAPI  H20T19920   3.464   4.461   8.445 -2.0452  0.5379  1.6569
  175SAPI   C3319921   2.992   3.652   7.371  0.2601  0.1731  0.3874
  175SAPI   H3X19922   3.020   3.727   7.293 -2.3737 -1.1372 -1.9554
  175SAPI   H3Y19923   3.087   3.601   7.400  0.5436  0.5238  0.0924
  175SAPI   C3419924   2.931   3.732   7.483 -0.3899  0.8026  0.0741
  175SAPI   H4X19925   2.835   3.774   7.446 -2.0508 -0.6381  2.4440
  175SAPI   H4Y19926   3.000   3.818   7.500 -0.4636  0.8789 -0.0120
  175SAPI   C3519927   2.918   3.654   7.618 -0.1076  0.6782  0.7072
  175SAPI   H5X19928   2.839   3.577   7.604  2.4408 -2.2216  1.1371
  175SAPI   H5Y19929   2.880   3.731   7.688  0.5992  1.1368  0.5958
  175SAPI   C3619930   3.046   3.592   7.670  0.2805  0.1164 -0.3717
  175SAPI   H6X19931   3.115   3.677   7.688  0.3653  0.2047 -1.0839
  175SAPI   H6Y19932   3.076   3.521   7.589 -0.7366 -0.1916 -0.4862
  175SAPI   C3719933   3.034   3.512   7.805 -0.9426 -0.1087 -0.0740
  175SAPI   H7X19934   3.139   3.479   7.820 -1.5185 -2.7679 -1.3454
  175SAPI   H7Y19935   2.973   3.420   7.817 -1.4030  0.2880  0.6837
  175SAPI   C3819936   2.997   3.604   7.915  0.1086  0.0861 -0.5148
  175SAPI   H8X19937   2.895   3.644   7.899  1.1663  3.7193  0.8512
  175SAPI   H8Y19938   3.061   3.695   7.910  0.4567 -0.1592 -0.6040
  175SAPI   C3919939   2.991   3.540   8.058 -0.5915 -0.4120  0.1149
  175SAPI   H9X19940   3.097   3.512   8.078 -0.1506  1.4210  0.4958
  175SAPI   H9Y19941   2.916   3.460   8.040 -0.3131 -0.0926 -3.0417
  175SAPI  C31019942   2.951   3.630   8.171 -0.0832  0.1442 -1.0119
  175SAPI  H10X19943   2.841   3.646   8.166  0.0750  1.4113 -0.9652
  175SAPI  H10Y19944   3.004   3.728   8.172 -1.3999  0.8849 -0.9864
  175SAPI  C31119945   2.982   3.558   8.308  0.1397  0.7294  0.6231
  175SAPI  H11X19946   3.083   3.513   8.315 -1.0494 -2.1193  0.8414
  175SAPI  H11Y19947   2.922   3.466   8.327  2.0844 -0.4916  1.1008
  175SAPI  C31219948   2.951   3.638   8.430 -0.3110 -0.4725 -0.7950
  175SAPI  H12X19949   2.845   3.671   8.423 -0.7966 -0.7518  3.1710
  175SAPI  H12Y19950   3.007   3.732   8.448 -1.1040 -0.5300  2.7870
  175SAPI  C31319951   2.961   3.573   8.576  0.0766  0.1262  0.2144
  175SAPI  H13X19952   2.901   3.633   8.648 -2.1308 -1.6520 -0.0015
  175SAPI  H13Y19953   3.068   3.573   8.605 -0.3436 -0.3650  1.9036
  175SAPI  C31419954   2.897   3.436   8.570 -0.1672 -0.2627  0.1643
  175SAPI  H14X19955   2.953   3.374   8.497 -0.3203  1.5820 -1.5896
  175SAPI  H14Y19956   2.794   3.457   8.533 -0.1125 -0.4311 -0.0881
  175SAPI  C31519957   2.882   3.373   8.709  0.0700 -0.1278 -0.5572
  175SAPI  H15X19958   2.811   3.427   8.775  2.3515 -1.8703  3.6987
  175SAPI  H15Y19959   2.977   3.404   8.757 -1.2212  4.1931 -0.3687
  175SAPI  C31619960   2.860   3.220   8.727  0.0288 -0.2069  0.1090
  175SAPI  H16X19961   2.937   3.169   8.666 -0.5181  2.2730 -2.8894
  175SAPI  H16Y19962   2.767   3.190   8.674  0.9146  1.0164 -2.2649
  175SAPI  C31719963   2.859   3.165   8.869  0.4947  0.4028 -0.2327
  175SAPI  H17X19964   2.794   3.224   8.938  1.4406  1.6341 -0.3576
  175SAPI  H17Y19965   2.964   3.168   8.904 -0.1574  1.4600  1.8252
  175SAPI  C31819966   2.816   3.018   8.856 -0.2616  0.4457 -0.9390
  175SAPI  H18X19967   2.816   2.961   8.952 -0.5898  0.6767 -0.8003
  175SAPI  H18Y19968   2.895   2.971   8.794  1.4936  1.9872  0.0180
  175SAPI  H18Z19969   2.714   3.003   8.814 -1.2436  0.4260  1.3252
  176SAPI   C1219970   1.865   2.986   6.274  0.0031  0.5261 -0.2453
  176SAPI    H219971   1.882   3.061   6.354  0.4722 -2.2631  2.4487
  176SAPI    O219972   1.739   3.018   6.227  0.1855 -0.1782  1.4501
  176SAPI   HO219973   1.719   3.112   6.236 -0.9856 -0.1516 -0.8376
  176SAPI   C1319974   1.957   3.007   6.165  1.2228 -0.3396  0.3776
  176SAPI    H319975   2.055   2.989   6.215  0.5576  2.6314  3.0968
  176SAPI    O319976   1.954   3.139   6.114 -0.6063  0.0254  0.5961
  176SAPI   HO319977   1.870   3.155   6.071  0.6273  0.3197 -1.8190
  176SAPI   C1419978   1.942   2.910   6.052  1.1020 -0.5573  0.2157
  176SAPI    H419979   1.842   2.916   6.003  1.6472  0.3102 -0.8224
  176SAPI    O419980   2.034   2.939   5.947 -0.6612  0.3891  0.2400
  176SAPI   HO419981   2.010   3.029   5.921 -0.4506  0.6315  0.8604
  176SAPI   C1519982   1.948   2.767   6.101 -0.0079 -0.4237 -0.3264
  176SAPI    H519983   2.049   2.744   6.140  0.7358  3.4125  0.3507
  176SAPI    O519984   1.916   2.678   5.997  0.5050  0.5170  0.1052
  176SAPI   HO519985   1.999   2.662   5.951  1.5768  1.4089  1.6354
  176SAPI   C1619986   1.840   2.743   6.215 -0.0916  0.2245 -0.5879
  176SAPI    H619987   1.735   2.751   6.179 -0.8651 -1.8817  0.9852
  176SAPI    O619988   1.857   2.612   6.260 -0.3493 -0.6053 -0.2696
  176SAPI   HO619989   1.825   2.595   6.349  0.8087 -2.1898 -0.1000
  176SAPI   C1119990   1.866   2.841   6.332 -0.2464 -0.1754 -0.9285
  176SAPI    H119991   1.969   2.818   6.364 -0.7640 -3.1093 -1.1298
  176SAPI     P19992   1.776   2.734   6.572  0.2643  0.3955  0.1277
  176SAPI   O1319993   1.832   2.600   6.529  0.1782  0.0371  0.2091
  176SAPI   O1419994   1.638   2.727   6.622  0.2036  0.3847  0.1224
  176SAPI   O1219995   1.779   2.843   6.448  0.4077 -0.1014 -0.0837
  176SAPI   O1119996   1.868   2.799   6.684 -0.3231 -0.3740 -0.1306
  176SAPI    C119997   1.861   2.938   6.704  0.1548  0.5419 -0.1588
  176SAPI    HA19998   1.921   2.988   6.625  2.4370 -0.8189  0.6180
  176SAPI    HB19999   1.756   2.976   6.699  0.3259  1.1002  0.3041
  176SAPI    C220000   1.923   2.971   6.845 -0.4474 -0.6748  0.8328
  176SAPI    HS20001   1.905   3.081   6.857 -2.1595 -0.7712 -0.4880
  176SAPI   O2120002   2.049   2.916   6.846  0.3895 -0.0149  0.2447
  176SAPI   C2120003   2.120   2.975   6.942  0.3471  0.1824 -0.4439
  176SAPI   O2220004   2.108   3.087   6.986  0.1679  0.0806 -0.1279
  176SAPI   C2220005   2.233   2.878   6.986 -0.1431  0.3114  0.8352
  176SAPI   H2R20006   2.202   2.775   6.958  0.9997  0.7684 -2.5347
  176SAPI   H2S20007   2.312   2.904   6.913 -0.0362 -0.3894  0.6969
  176SAPI    C320008   1.834   2.899   6.952  1.2397 -0.5579  0.2096
  176SAPI    HX20009   1.827   2.789   6.936 -0.0757 -0.2145 -1.9247
  176SAPI    HY20010   1.728   2.928   6.933  0.4086 -2.0086  2.2189
  176SAPI   O3120011   1.868   2.931   7.086  0.0609 -0.5127  0.2480
  176SAPI   C3120012   1.830   3.053   7.130 -0.6039  0.3248  0.8556
  176SAPI   O3220013   1.762   3.139   7.073  0.2467  0.0129 -0.2807
  176SAPI   C3220014   1.894   3.070   7.267 -0.0256 -0.2490  0.0093
  176SAPI   H2X20015   1.954   2.978   7.284 -0.2814 -0.8613 -2.1559
  176SAPI   H2Y20016   1.812   3.058   7.341 -0.3950 -0.0089 -0.3534
  176SAPI   C2320017   2.275   2.896   7.132 -0.3328  0.5882 -0.6163
  176SAPI   H3R20018   2.199   2.916   7.210 -0.2937 -0.7401 -0.2061
  176SAPI   H3S20019   2.347   2.981   7.128  1.0219 -0.5258 -0.7245
  176SAPI   C2420020   2.360   2.782   7.206  0.8843  0.0831  0.2074
  176SAPI   H4R20021   2.409   2.822   7.297  0.0633  2.9466 -0.5008
  176SAPI   H4S20022   2.441   2.762   7.132 -0.3310  2.3998 -1.9035
  176SAPI   C2520023   2.283   2.655   7.214  0.5946 -0.5510 -0.5457
  176SAPI   H5R20024   2.200   2.643   7.142  1.6298  1.7401 -2.2769
  176SAPI   C2620025   2.323   2.553   7.292  0.3104 -0.1491 -0.4341
  176SAPI   H6R20026   2.273   2.455   7.289  2.9389 -1.6594  0.8834
  176SAPI   C2720027   2.448   2.549   7.385 -0.0591 -0.0541 -0.4117
  176SAPI   H7R20028   2.414   2.505   7.481 -0.8717  1.6103  0.1026
  176SAPI   H7S20029   2.485   2.648   7.420  1.1203 -0.4314 -0.5535
  176SAPI   C2820030   2.566   2.471   7.333 -0.0211  0.6678  0.1029
  176SAPI   H8R20031   2.613   2.510   7.242  0.4336 -0.1458 -0.0181
  176SAPI   C2920032   2.619   2.363   7.401  0.5302  0.5234 -0.7733
  176SAPI   H9R20033   2.707   2.317   7.354  0.1494  1.1823 -2.2013
  176SAPI  C21020034   2.581   2.302   7.531 -0.3049 -0.7418 -0.5502
  176SAPI  H10R20035   2.596   2.192   7.525  1.6469 -0.5286 -0.2692
  176SAPI  H10S20036   2.472   2.310   7.554 -0.2590 -3.7639  1.3659
  176SAPI  C21120037   2.650   2.366   7.648 -0.3740 -0.2238 -0.0107
  176SAPI  H11R20038   2.638   2.475   7.639 -3.8470 -0.5800 -1.3104
  176SAPI  C21220039   2.694   2.301   7.760 -0.1202  0.6539  0.4868
  176SAPI  H12R20040   2.745   2.357   7.839  0.8520  0.7366 -0.1809
  176SAPI  C21320041   2.666   2.156   7.782 -0.4059  0.7219 -0.5358
  176SAPI  H13R20042   2.760   2.109   7.818  0.2590  0.6646 -2.2464
  176SAPI  H13S20043   2.661   2.098   7.688 -1.0473  2.0645 -1.3605
  176SAPI  C21420044   2.541   2.133   7.864 -0.5701  0.4822 -1.0055
  176SAPI  H14R20045   2.454   2.185   7.821  0.1165  1.3737 -1.3657
  176SAPI  C21520046   2.532   2.062   7.977 -0.5693  0.1817 -0.3644
  176SAPI  H15R20047   2.439   2.061   8.037 -1.5262 -1.9895 -1.7366
  176SAPI  C21620048   2.645   1.976   8.041  0.4293 -0.2997  0.1121
  176SAPI  H16R20049   2.718   1.944   7.963 -0.3396 -4.4541  0.8970
  176SAPI  H16S20050   2.600   1.881   8.076  1.1823  0.0447  2.1966
  176SAPI  C21720051   2.722   2.058   8.149  0.2897 -0.1769 -0.5373
  176SAPI  H17R20052   2.652   2.130   8.196  0.8951 -0.0549  0.1878
  176SAPI  H17S20053   2.791   2.129   8.099 -1.1980  0.3739 -1.8912
  176SAPI  C21820054   2.787   1.975   8.260 -0.2703 -0.4406  0.4047
  176SAPI  H18R20055   2.892   1.945   8.239 -0.0685  0.3206  0.2900
  176SAPI  H18S20056   2.734   1.879   8.276  0.2252 -1.0056 -1.1428
  176SAPI  C21920057   2.789   2.058   8.391 -0.3525  0.0543 -0.3342
  176SAPI  H19R20058   2.684   2.080   8.419 -0.7965 -2.6675  0.4735
  176SAPI  H19S20059   2.829   2.159   8.371 -0.8159  0.4835  0.7921
  176SAPI  C22020060   2.852   1.987   8.513  0.5878 -0.2373  0.9547
  176SAPI  H20R20061   2.867   2.056   8.599  1.5313  0.2096  0.4429
  176SAPI  H20S20062   2.952   1.949   8.487  0.3790 -1.3022  1.6593
  176SAPI  H20T20063   2.791   1.897   8.536 -0.7778  0.8526  1.7461
  176SAPI   C3320064   1.970   3.204   7.289  0.1614  0.2732 -0.0014
  176SAPI   H3X20065   1.905   3.294   7.288  0.7214  0.7057  1.3998
  176SAPI   H3Y20066   2.048   3.207   7.210 -0.2561 -1.3847 -0.5272
  176SAPI   C3420067   2.050   3.204   7.418 -0.0143 -1.0350 -0.6602
  176SAPI   H4X20068   2.095   3.301   7.450  3.0980 -2.7579  0.5997
  176SAPI   H4Y20069   2.133   3.131   7.407  2.1497  0.9934  1.0291
  176SAPI   C3520070   1.950   3.178   7.533  0.0506  1.0848  1.2378
  176SAPI   H5X20071   1.912   3.074   7.525  1.9901  0.2789  1.8915
  176SAPI   H5Y20072   1.865   3.248   7.530  0.7241  1.9143  1.1165
  176SAPI   C3620073   2.015   3.185   7.668 -0.2072  0.4003 -0.0598
  176SAPI   H6X20074   2.070   3.281   7.658  1.5833 -0.3252  2.0349
  176SAPI   H6Y20075   2.104   3.119   7.679  0.2794  0.7341 -1.6530
  176SAPI   C3720076   1.926   3.202   7.790 -0.3265 -0.0443  0.8079
  176SAPI   H7X20077   1.891   3.098   7.804 -0.0336  0.0377  2.4099
  176SAPI   H7Y20078   1.836   3.264   7.769 -1.7426 -1.7161  1.6877
  176SAPI   C3820079   1.986   3.265   7.915  0.0875 -0.3573 -0.4281
  176SAPI   H8X20080   1.959   3.373   7.917  0.3572 -0.2701 -1.2731
  176SAPI   H8Y20081   2.096   3.268   7.933  0.0971 -1.4530 -0.2201
  176SAPI   C3920082   1.940   3.203   8.049 -0.6071 -0.4355  0.0016
  176SAPI   H9X20083   1.975   3.098   8.039  0.5636 -0.3656  2.6703
  176SAPI   H9Y20084   1.829   3.195   8.047 -0.6489 -1.1409  2.3548
  176SAPI  C31020085   1.988   3.279   8.178 -0.2392 -0.3832 -0.9142
  176SAPI  H10X20086   1.952   3.383   8.162 -1.3879 -0.5349  0.4910
  176SAPI  H10Y20087   2.099   3.287   8.177 -0.1906 -0.9877 -0.8115
  176SAPI  C31120088   1.949   3.218   8.312  0.0310 -0.1292  0.4662
  176SAPI  H11X20089   2.000   3.124   8.341  0.0026 -0.4720 -0.5687
  176SAPI  H11Y20090   1.839   3.211   8.314  0.1119 -1.6715  1.1116
  176SAPI  C31220091   1.991   3.318   8.425 -0.8677 -0.2124 -0.1978
  176SAPI  H12X20092   1.980   3.421   8.386  1.4793  0.2711  0.2133
  176SAPI  H12Y20093   2.097   3.309   8.458 -1.0788  3.4487  1.9562
  176SAPI  C31320094   1.912   3.294   8.556 -0.2300  0.4892 -0.6685
  176SAPI  H13X20095   1.803   3.307   8.542 -0.4829  1.3842  1.6250
  176SAPI  H13Y20096   1.938   3.379   8.623 -0.0208 -0.9067  1.0765
  176SAPI  C31420097   1.943   3.166   8.634 -0.3957 -0.3287  0.3145
  176SAPI  H14X20098   2.054   3.157   8.627 -0.2143  2.1726 -1.8778
  176SAPI  H14Y20099   1.915   3.083   8.566 -0.5385  0.9741 -1.2884
  176SAPI  C31520100   1.876   3.151   8.767 -0.3634 -0.5946 -0.7098
  176SAPI  H15X20101   1.767   3.171   8.762 -0.1986  0.9450  0.8504
  176SAPI  H15Y20102   1.919   3.229   8.833  1.3706 -0.9359 -1.3958
  176SAPI  C31620103   1.906   3.010   8.822  0.1096 -0.3675  0.4483
  176SAPI  H16X20104   2.017   3.005   8.819  0.3985  1.6947  3.5265
  176SAPI  H16Y20105   1.855   2.927   8.768 -1.3075 -0.1451  1.4025
  176SAPI  C31720106   1.861   2.997   8.969 -0.2208  0.0463 -0.9495
  176SAPI  H17X20107   1.759   3.040   8.984 -0.2423 -0.1720 -0.4693
  176SAPI  H17Y20108   1.920   3.054   9.045 -2.5925  0.9395  0.3415
  176SAPI  C31820109   1.862   2.851   9.012  0.4103 -0.0227 -0.3767
  176SAPI  H18X20110   1.797   2.800   8.938  1.5709  1.1172 -2.2463
  176SAPI  H18Y20111   1.833   2.851   9.119  2.3147  0.1550  0.1787
  176SAPI  H18Z20112   1.963   2.806   9.000  0.1646 -1.3858  1.9076
  177SLPC     N20113   2.175   4.961  11.192 -0.3511  0.9879  0.2151
  177SLPC   C1320114   2.236   5.084  11.241 -0.5226 -0.1132 -0.0540
  177SLPC  H13A20115   2.202   5.168  11.181  0.7672 -0.4502 -1.3171
  177SLPC  H13B20116   2.211   5.108  11.343 -0.4787  0.9526 -0.2819
  177SLPC  H13C20117   2.343   5.087  11.225 -0.6566 -2.5260 -1.9790
  177SLPC   C1420118   2.026   4.989  11.192  0.3941 -0.4615  0.0822
  177SLPC  H14A20119   1.988   5.009  11.291 -0.6434  0.9247 -0.5632
  177SLPC  H14B20120   2.000   5.077  11.134  2.3970 -1.2227 -2.1345
  177SLPC  H14C20121   1.972   4.908  11.145 -0.7510 -0.7590  1.8496
  177SLPC   C1520122   2.180   4.848  11.292 -0.3053 -0.3180  0.5340
  177SLPC  H15A20123   2.283   4.826  11.318  0.8888 -0.5936 -3.6706
  177SLPC  H15B20124   2.123   4.871  11.381 -1.7194 -3.6847  0.6381
  177SLPC  H15C20125   2.146   4.752  11.257  1.0557 -0.5804 -0.1421
  177SLPC   C1220126   2.222   4.918  11.060 -0.8960 -0.0621 -0.2909
  177SLPC  H12A20127   2.180   4.990  10.990 -0.3303  0.5165 -0.0471
  177SLPC  H12B20128   2.183   4.819  11.043  1.7380 -0.8591 -2.2760
  177SLPC   C1120129   2.371   4.895  11.031  0.6522 -0.2454  0.0391
  177SLPC  H11A20130   2.417   4.995  11.043 -3.4445  1.9369 -0.5988
  177SLPC  H11B20131   2.388   4.861  10.927  2.4206  1.4164 -0.2892
  177SLPC     P20132   2.409   4.652  11.122 -0.0260  0.1968  0.2256
  177SLPC   O1320133   2.527   4.584  11.073  0.3225 -0.0816 -0.2722
  177SLPC   O1420134   2.357   4.608  11.252 -1.0541 -0.0770  0.1689
  177SLPC   O1220135   2.428   4.807  11.123  0.5753  0.5709 -0.6955
  177SLPC   O1120136   2.298   4.643  11.014 -0.2363 -0.1424 -0.6549
  177SLPC    C120137   2.185   4.559  11.023 -0.3857  0.2035  0.4724
  177SLPC    HA20138   2.216   4.460  11.063  3.1391 -0.4553 -3.2065
  177SLPC    HB20139   2.100   4.605  11.078 -1.7271 -1.1069 -0.4275
  177SLPC    C220140   2.141   4.548  10.874  0.8015 -0.1170 -0.0569
  177SLPC    HS20141   2.221   4.501  10.812 -1.5440 -0.3083 -3.1585
  177SLPC   O2120142   2.111   4.682  10.817  0.2284  0.0369 -0.5911
  177SLPC   C2120143   2.198   4.726  10.733  1.0309 -0.3449 -0.3999
  177SLPC   O2220144   2.307   4.683  10.711  0.1067 -0.2220 -0.0515
  177SLPC   C2220145   2.154   4.863  10.676 -0.3002 -0.2224  0.2832
  177SLPC   H2R20146   2.043   4.866  10.679 -0.2840  0.5089  0.2975
  177SLPC   H2S20147   2.193   4.930  10.756 -1.0629  0.0038  0.4713
  177SLPC    C320148   2.026   4.448  10.844 -0.3747 -0.3131  0.0200
  177SLPC    HX20149   1.933   4.491  10.888 -1.8282 -0.6760 -2.5139
  177SLPC    HY20150   2.047   4.348  10.887 -0.5306 -0.6439 -0.6610
  177SLPC   O3120151   2.017   4.427  10.700 -0.2804 -0.4671 -0.0162
  177SLPC   C3120152   1.902   4.456  10.644  0.1209  0.1227 -0.1765
  177SLPC   O3220153   1.797   4.468  10.697 -0.1353  0.2060  0.2218
  177SLPC   C3220154   1.924   4.452  10.492 -0.0819 -0.4934 -0.0541
  177SLPC   H2X20155   1.958   4.351  10.462  1.5093  0.7830 -3.0384
  177SLPC   H2Y20156   1.998   4.530  10.466 -1.3702  1.0081  0.6010
  177SLPC   C2320157   2.226   4.892  10.542  0.2238  0.4325 -0.3863
  177SLPC   H3R20158   2.335   4.873  10.555  0.1087  0.6145  1.0001
  177SLPC   H3S20159   2.217   5.001  10.525 -0.4791  0.3883 -0.3230
  177SLPC   C2420160   2.164   4.811  10.423  0.1590  0.4584 -0.5262
  177SLPC   H4R20161   2.130   4.711  10.455  1.4611 -0.6564 -2.4160
  177SLPC   H4S20162   2.237   4.808  10.339  0.7627 -0.0461  0.0123
  177SLPC   C2520163   2.037   4.867  10.358 -0.3356  0.0185 -0.0548
  177SLPC   H5R20164   2.046   4.977  10.348 -1.6570  0.3903  2.1403
  177SLPC   H5S20165   1.958   4.852  10.434  0.0167 -2.0902 -0.0359
  177SLPC   C2620166   1.983   4.801  10.223 -0.0509 -0.9091 -0.6581
  177SLPC   H6R20167   1.982   4.691  10.238 -1.7873 -0.9003 -0.4861
  177SLPC   H6S20168   2.064   4.829  10.152 -0.1312  1.4162  0.0568
  177SLPC   C2720169   1.854   4.854  10.175 -0.1706  0.3555  0.4357
  177SLPC   H7R20170   1.847   4.965  10.174 -1.5136  0.2996 -0.8891
  177SLPC   H7S20171   1.767   4.832  10.241  0.2978  0.6916  1.1824
  177SLPC   C2820172   1.820   4.814  10.031  0.3321  0.3090  0.5839
  177SLPC   H8R20173   1.711   4.830  10.017  0.4410 -0.4948 -1.5917
  177SLPC   H8S20174   1.834   4.704  10.026 -1.0875  0.0136  2.2517
  177SLPC   C2920175   1.891   4.884   9.924 -0.8983 -0.5005  0.2219
  177SLPC   H9R20176   1.998   4.893   9.949 -0.6509 -0.4079 -0.8200
  177SLPC  C21020177   1.840   4.928   9.808 -0.0582 -0.0708 -0.8619
  177SLPC  H10R20178   1.916   4.983   9.749  1.3155  0.2343  1.0914
  177SLPC  C21120179   1.704   4.931   9.748  0.2295 -0.3753 -0.4111
  177SLPC  H11R20180   1.715   4.871   9.655  5.1902  2.8140 -2.3158
  177SLPC  H11S20181   1.635   4.878   9.817  1.2916  3.6572  4.3015
  177SLPC  C21220182   1.656   5.066   9.701 -0.3534  0.3563 -0.5684
  177SLPC  H12R20183   1.725   5.122   9.637 -0.3836 -0.4320 -1.3022
  177SLPC  C21320184   1.544   5.122   9.760 -0.4800 -0.2984 -0.2341
  177SLPC  H13R20185   1.523   5.225   9.728  1.3945  0.9888  2.2323
  177SLPC  C21420186   1.445   5.058   9.855 -0.1812 -0.3949  0.7153
  177SLPC  H14R20187   1.425   4.953   9.825 -2.8388  0.3562 -0.4506
  177SLPC  H14S20188   1.338   5.083   9.836 -0.5211 -1.1426  1.5605
  177SLPC  C21520189   1.494   5.080   9.991  0.1719 -0.5409  0.0175
  177SLPC  H15R20190   1.588   5.029  10.020  0.1789 -1.5942 -1.6966
  177SLPC  H15S20191   1.422   5.032  10.061 -0.9567  0.2971 -0.5374
  177SLPC  C21620192   1.503   5.233  10.026  0.4398  0.2292 -0.3246
  177SLPC  H16R20193   1.405   5.281  10.005 -1.3368 -3.0647 -0.1528
  177SLPC  H16S20194   1.584   5.282   9.968  1.0937  0.0284  0.3904
  177SLPC  C21720195   1.533   5.250  10.175  0.2168 -0.2006 -0.1136
  177SLPC  H17R20196   1.471   5.182  10.237  0.1726 -0.7213 -0.7209
  177SLPC  H17S20197   1.510   5.356  10.202 -0.9313 -0.6080  0.5681
  177SLPC  C21820198   1.674   5.225  10.217 -0.2869 -0.0632 -0.1592
  177SLPC  H18R20199   1.724   5.135  10.177 -1.4044 -0.7436 -0.0769
  177SLPC  H18S20200   1.689   5.241  10.326  0.9201  3.0576 -0.6996
  177SLPC  H18T20201   1.739   5.303  10.173 -2.0299  1.3767 -0.3407
  177SLPC   C3320202   1.797   4.478  10.417 -0.1494 -0.2876 -0.5987
  177SLPC   H3X20203   1.775   4.586  10.435  4.2649  0.9076 -1.3036
  177SLPC   H3Y20204   1.712   4.422  10.461  1.3885 -1.2187  1.3342
  177SLPC   C3420205   1.798   4.463  10.269  0.0867  0.8870  0.2636
  177SLPC   H4X20206   1.901   4.480  10.232 -0.1131 -0.8310 -1.2053
  177SLPC   H4Y20207   1.732   4.533  10.213 -1.2088  0.0391  0.6886
  177SLPC   C3520208   1.772   4.316  10.224 -0.1296 -0.3353  0.9220
  177SLPC   H5X20209   1.665   4.294  10.241 -0.8601  0.7685 -1.7933
  177SLPC   H5Y20210   1.837   4.252  10.288  0.0129  0.7114  1.8728
  177SLPC   C3620211   1.809   4.293  10.077 -0.7306 -0.3598  1.0066
  177SLPC   H6X20212   1.910   4.334  10.061 -1.2272 -0.2579 -2.8030
  177SLPC   H6Y20213   1.757   4.366  10.013  1.3311 -0.1589 -0.5407
  177SLPC   C3720214   1.789   4.154  10.019  0.5789 -0.6944 -0.5319
  177SLPC   H7X20215   1.691   4.141   9.970 -0.2941  1.0958  0.6275
  177SLPC   H7Y20216   1.779   4.078  10.100 -3.3988  0.2490  0.0592
  177SLPC   C3820217   1.903   4.110   9.918  0.5359 -0.0404  0.1131
  177SLPC   H8X20218   1.912   3.999   9.924  2.2350 -0.1470 -2.7089
  177SLPC   H8Y20219   1.995   4.168   9.941 -0.6053  1.2716  1.6911
  177SLPC   C3920220   1.871   4.130   9.767 -0.2235  0.5055  0.3711
  177SLPC   H9X20221   1.803   4.053   9.725 -0.8082  1.4723 -0.5267
  177SLPC   H9Y20222   1.959   4.129   9.701 -0.2908  0.2361  0.2868
  177SLPC  C31020223   1.801   4.265   9.729 -0.7222 -0.1297 -0.1199
  177SLPC  H10X20224   1.858   4.354   9.763 -2.4998  0.6764  0.8824
  177SLPC  H10Y20225   1.702   4.260   9.780  0.4061 -1.3161  2.0874
  177SLPC  C31120226   1.776   4.281   9.581  0.2679  0.2548  0.5967
  177SLPC  H11X20227   1.709   4.369   9.576 -0.3954 -0.3064 -0.9867
  177SLPC  H11Y20228   1.713   4.194   9.552  0.3472  0.2662  0.3919
  177SLPC  C31220229   1.897   4.283   9.488 -0.3298 -0.6672  0.0669
  177SLPC  H12X20230   1.874   4.277   9.379  2.4252  0.7558 -0.7059
  177SLPC  H12Y20231   1.958   4.191   9.503  0.9044 -0.2641 -1.9289
  177SLPC  C31320232   1.985   4.408   9.506 -0.3782 -0.0833 -0.5905
  177SLPC  H13X20233   2.007   4.420   9.614 -1.6022  1.7039 -0.5087
  177SLPC  H13Y20234   1.925   4.491   9.463 -1.8159 -1.2742 -0.9449
  177SLPC  C31420235   2.123   4.412   9.428 -0.2162 -0.2094 -0.8712
  177SLPC  H14X20236   2.166   4.310   9.437  0.6933  0.1498 -1.0517
  177SLPC  H14Y20237   2.195   4.467   9.492  0.8165 -0.8832 -1.4186
  177SLPC  C31520238   2.125   4.463   9.290 -0.3914  0.2521 -0.2846
  177SLPC  H15X20239   2.112   4.573   9.291 -0.5117  0.3125 -2.7839
  177SLPC  H15Y20240   2.042   4.420   9.231 -0.8428  1.1956 -0.3518
  177SLPC  C31620241   2.258   4.427   9.213  0.2287  0.8336 -0.2350
  177SLPC  H16X20242   2.274   4.318   9.224 -0.9692  0.8471  2.5008
  177SLPC  H16Y20243   2.341   4.474   9.269  1.0896 -0.1135 -0.6742
  177SLPC  C31720244   2.252   4.462   9.060 -0.5159 -0.1912 -0.1553
  177SLPC  H17X20245   2.221   4.569   9.057 -2.3769 -0.7235 -1.4327
  177SLPC  H17Y20246   2.170   4.403   9.014 -0.9523  0.8018 -0.6877
  177SLPC  C31820247   2.375   4.438   8.976  0.5452 -0.4939 -0.1504
  177SLPC  H18X20248   2.357   4.468   8.870 -2.2293  0.3364  0.4767
  177SLPC  H18Y20249   2.394   4.329   8.971 -1.3311 -0.8229 -0.9533
  177SLPC  H18Z20250   2.471   4.487   9.006  0.5780  0.0094 -1.0272
  178SLPC     N20251   4.279   6.484  10.927 -0.0981 -0.5035  0.1580
  178SLPC   C1320252   4.194   6.390  11.009  0.5967  0.4414 -0.1653
  178SLPC  H13A20253   4.093   6.382  10.972  1.1649 -0.3561 -1.6581
  178SLPC  H13B20254   4.237   6.292  11.019  0.6004  0.2445 -1.8845
  178SLPC  H13C20255   4.185   6.423  11.111  0.4455  1.5225 -0.5082
  178SLPC   C1420256   4.296   6.442  10.782 -0.3977 -0.0201  0.0283
  178SLPC  H14A20257   4.371   6.364  10.780  1.1246  1.3703  0.4833
  178SLPC  H14B20258   4.204   6.396  10.751 -0.2258 -0.8558  0.7103
  178SLPC  H14C20259   4.324   6.524  10.718  1.9609 -0.5464  0.2965
  178SLPC   C1520260   4.415   6.476  10.992 -0.1497 -0.0184  0.3600
  178SLPC  H15A20261   4.487   6.542  10.945 -1.0103  0.2989 -0.5535
  178SLPC  H15B20262   4.417   6.493  11.098  0.4601 -1.1404  0.5404
  178SLPC  H15C20263   4.441   6.371  10.990  1.2727  0.2619  2.1349
  178SLPC   C1220264   4.223   6.629  10.928 -0.4209  0.0650 -0.0405
  178SLPC  H12A20265   4.289   6.686  10.864 -0.2672 -0.2734 -0.1902
  178SLPC  H12B20266   4.229   6.669  11.028 -1.7966 -0.0515  0.1030
  178SLPC   C1120267   4.079   6.646  10.875  0.0237 -0.3308 -0.3469
  178SLPC  H11A20268   4.058   6.583  10.786 -3.1616 -0.3727  0.3003
  178SLPC  H11B20269   4.079   6.750  10.837  1.0317  0.2383  1.1081
  178SLPC     P20270   3.929   6.713  11.083  0.1236  0.1377  0.0852
  178SLPC   O1320271   3.809   6.651  11.144 -0.3813  0.3120 -0.5803
  178SLPC   O1420272   4.043   6.735  11.174  0.3206 -0.7128  0.3620
  178SLPC   O1220273   3.980   6.618  10.975  0.2336  0.0680  0.2015
  178SLPC   O1120274   3.897   6.850  11.015 -0.6860 -0.2150  0.2447
  178SLPC    C120275   3.769   6.886  10.979 -0.5719  0.5550 -0.4716
  178SLPC    HA20276   3.701   6.891  11.067 -1.2578  2.3097 -1.0670
  178SLPC    HB20277   3.777   6.991  10.945 -0.8609  1.0294  0.8694
  178SLPC    C220278   3.712   6.807  10.858 -0.7588 -0.2551  0.0315
  178SLPC    HS20279   3.718   6.700  10.884 -0.8700 -0.3418 -0.3056
  178SLPC   O2120280   3.789   6.847  10.746  0.1141  0.5233 -0.3979
  178SLPC   C2120281   3.791   6.760  10.643 -0.5248 -0.3423 -0.1220
  178SLPC   O2220282   3.761   6.641  10.653 -0.2265  0.5931  0.2757
  178SLPC   C2220283   3.860   6.821  10.518 -0.1733 -0.6096 -0.8074
  178SLPC   H2R20284   3.950   6.872  10.560 -1.3661  0.1797  0.9185
  178SLPC   H2S20285   3.896   6.752  10.440  0.9408 -0.5954 -0.3191
  178SLPC    C320286   3.566   6.843  10.851  0.1999 -0.2712 -0.6670
  178SLPC    HX20287   3.574   6.953  10.835  0.0112  0.3082  2.4813
  178SLPC    HY20288   3.509   6.830  10.945  4.1665 -0.4650  1.9680
  178SLPC   O3120289   3.511   6.783  10.732 -0.2813 -0.2121 -0.3856
  178SLPC   C3120290   3.469   6.664  10.745 -0.1835  0.7032  0.3899
  178SLPC   O3220291   3.479   6.592  10.839 -0.0232  0.2488  0.1917
  178SLPC   C3220292   3.407   6.625  10.610  0.1989  0.0763 -0.5705
  178SLPC   H2X20293   3.297   6.640  10.623  0.0027  0.2451 -2.2733
  178SLPC   H2Y20294   3.427   6.517  10.594  1.5750  0.5710 -2.5236
  178SLPC   C2320295   3.776   6.932  10.446  0.1427  0.2452 -0.8178
  178SLPC   H3R20296   3.737   6.998  10.526  0.6204  1.2561 -1.3901
  178SLPC   H3S20297   3.688   6.888  10.395  0.0754 -1.7013  0.8613
  178SLPC   C2420298   3.860   7.009  10.343 -0.4578 -0.1499  0.9066
  178SLPC   H4R20299   3.893   6.931  10.272  0.4616 -0.1114  1.2743
  178SLPC   H4S20300   3.945   7.064  10.389  0.2288 -1.8705  1.7538
  178SLPC   C2520301   3.777   7.119  10.269  0.4921  0.4786  0.1359
  178SLPC   H5R20302   3.737   7.198  10.335 -2.3222  0.1730 -1.0878
  178SLPC   H5S20303   3.693   7.073  10.213  4.2204 -1.7511 -4.3903
  178SLPC   C2620304   3.853   7.185  10.155 -0.0883 -0.2165 -0.5376
  178SLPC   H6R20305   3.939   7.236  10.203 -0.7151 -0.3071  0.7126
  178SLPC   H6S20306   3.787   7.265  10.116  1.2488  2.0348  1.5714
  178SLPC   C2720307   3.909   7.095  10.040  0.5609  0.3749  0.1091
  178SLPC   H7R20308   3.979   7.023  10.087 -1.0983 -0.9650  0.6599
  178SLPC   H7S20309   3.964   7.161   9.970 -0.4962 -0.3570 -1.4740
  178SLPC   C2820310   3.790   7.013   9.985  0.3214  0.1413  0.7302
  178SLPC   H8R20311   3.713   7.081   9.944 -1.5784 -2.0673  0.4824
  178SLPC   H8S20312   3.742   6.945  10.058 -2.7140 -0.1081 -1.3434
  178SLPC   C2920313   3.870   6.938   9.875 -0.4313  0.3517  0.3276
  178SLPC   H9R20314   3.935   6.859   9.914 -0.4564  0.4810  0.6365
  178SLPC  C21020315   3.866   6.938   9.740 -0.2085  0.8304  0.1819
  178SLPC  H10R20316   3.925   6.877   9.670 -0.4436 -0.0874  0.7566
  178SLPC  C21120317   3.775   7.030   9.666 -0.1662  0.0739  0.0892
  178SLPC  H11R20318   3.735   7.105   9.738  1.2775  0.3155  0.6694
  178SLPC  H11S20319   3.690   6.969   9.627 -0.9731 -0.1637  2.0910
  178SLPC  C21220320   3.838   7.114   9.564 -0.5058 -0.0030 -1.2151
  178SLPC  H12R20321   3.894   7.194   9.614  0.0453 -0.5422 -0.9426
  178SLPC  C21320322   3.847   7.093   9.432  0.2054 -0.3158 -0.0303
  178SLPC  H13R20323   3.892   7.173   9.370 -1.1831 -0.2526 -0.9932
  178SLPC  C21420324   3.788   6.978   9.356  0.7283  0.1727  0.7261
  178SLPC  H14R20325   3.689   7.018   9.328  0.4053  1.7533  3.7642
  178SLPC  H14S20326   3.769   6.889   9.421  2.6236 -0.5760  0.3292
  178SLPC  C21520327   3.869   6.938   9.242  0.4057 -0.4963  1.0336
  178SLPC  H15R20328   3.857   6.832   9.211  2.2992 -0.7673  1.0838
  178SLPC  H15S20329   3.975   6.941   9.276  0.4676 -2.2156  1.0954
  178SLPC  C21620330   3.845   7.022   9.121 -0.9741 -0.1838 -0.3641
  178SLPC  H16R20331   3.942   7.023   9.066  0.4998  1.3841  2.1123
  178SLPC  H16S20332   3.818   7.126   9.149  0.1678  0.0795 -0.1815
  178SLPC  C21720333   3.735   6.981   9.025  0.1200  0.3520 -0.3492
  178SLPC  H17R20334   3.656   6.967   9.102  1.2739 -0.1106  0.7970
  178SLPC  H17S20335   3.759   6.886   8.973  1.3199  1.3198 -1.6230
  178SLPC  C21820336   3.683   7.094   8.934 -0.3019 -0.1883 -0.5919
  178SLPC  H18R20337   3.674   7.189   8.989  1.0471  0.0808 -0.8005
  178SLPC  H18S20338   3.580   7.070   8.900 -1.0948 -0.5934  1.9265
  178SLPC  H18T20339   3.759   7.099   8.853 -0.5780  1.0459 -0.7989
  178SLPC   C3320340   3.462   6.706  10.490 -0.8926  0.2022 -1.0644
  178SLPC   H3X20341   3.572   6.693  10.502 -1.1726 -1.8045 -0.2777
  178SLPC   H3Y20342   3.437   6.812  10.513  2.0308  0.5220  1.2355
  178SLPC   C3420343   3.419   6.652  10.357  0.3284  0.2184  0.6076
  178SLPC   H4X20344   3.310   6.669  10.340  0.5209 -0.1755 -1.3082
  178SLPC   H4Y20345   3.435   6.542  10.365 -2.8864 -0.5689 -1.5408
  178SLPC   C3520346   3.487   6.716  10.224  0.1172  0.2746  0.1764
  178SLPC   H5X20347   3.598   6.711  10.224  0.1846 -0.4993 -3.1806
  178SLPC   H5Y20348   3.453   6.822  10.215  2.2956  1.2631  2.3438
  178SLPC   C3620349   3.456   6.651  10.085  0.0523  0.5056 -0.1271
  178SLPC   H6X20350   3.346   6.637  10.072  0.4666 -1.6559 -1.8958
  178SLPC   H6Y20351   3.499   6.549  10.080 -0.0425  0.3950  0.9643
  178SLPC   C3720352   3.497   6.747   9.973 -0.2522  0.5192  0.9061
  178SLPC   H7X20353   3.604   6.777   9.979 -0.8507  2.6297  1.7937
  178SLPC   H7Y20354   3.437   6.840   9.983 -0.7017  0.2930  0.3457
  178SLPC   C3820355   3.469   6.685   9.840 -0.2355 -0.0890  0.1252
  178SLPC   H8X20356   3.365   6.647   9.834  0.2948 -2.1689  2.4615
  178SLPC   H8Y20357   3.519   6.586   9.834 -0.1619 -0.0126 -0.5927
  178SLPC   C3920358   3.515   6.769   9.717  0.0819 -0.0799 -0.0010
  178SLPC   H9X20359   3.622   6.795   9.723 -0.4148  1.9501  4.4029
  178SLPC   H9Y20360   3.451   6.860   9.722 -0.7643 -0.6276 -0.5611
  178SLPC  C31020361   3.485   6.702   9.583 -0.4503 -0.5891  0.4846
  178SLPC  H10X20362   3.379   6.671   9.590 -0.9401  1.2167  2.1620
  178SLPC  H10Y20363   3.547   6.612   9.565 -0.3869 -0.5996  0.7601
  178SLPC  C31120364   3.482   6.789   9.455 -0.1306  0.3565 -0.1990
  178SLPC  H11X20365   3.586   6.776   9.419 -0.7389 -2.1806 -1.2620
  178SLPC  H11Y20366   3.466   6.896   9.480 -0.2627 -0.0929  1.8295
  178SLPC  C31220367   3.383   6.744   9.343 -0.2697 -0.2765  0.2757
  178SLPC  H12X20368   3.279   6.765   9.376  0.1196  1.0482  0.7060
  178SLPC  H12Y20369   3.407   6.636   9.339  2.9831  0.4028 -0.7261
  178SLPC  C31320370   3.410   6.818   9.222 -0.2965 -0.3677 -0.9182
  178SLPC  H13X20371   3.491   6.775   9.160  0.1271  0.5772 -1.0390
  178SLPC  H13Y20372   3.448   6.916   9.258  2.0453 -1.3490 -0.5413
  178SLPC  C31420373   3.286   6.823   9.130  0.7610 -0.3050 -0.4316
  178SLPC  H14X20374   3.203   6.860   9.195 -1.1877 -1.5928 -2.0396
  178SLPC  H14Y20375   3.261   6.719   9.100  2.2939 -0.4266 -1.3656
  178SLPC  C31520376   3.298   6.909   9.001 -0.6387  0.5133  0.4115
  178SLPC  H15X20377   3.308   7.014   9.034  3.2402  0.5537 -0.3871
  178SLPC  H15Y20378   3.391   6.876   8.949 -0.9111 -0.0824  0.2901
  178SLPC  C31620379   3.190   6.880   8.898 -0.5067  0.0410  0.1167
  178SLPC  H16X20380   3.185   6.974   8.838  2.7098 -0.0581 -0.4982
  178SLPC  H16Y20381   3.089   6.881   8.946 -1.0748  0.6460 -1.0506
  178SLPC  C31720382   3.221   6.771   8.795  0.1307 -0.0082 -0.5650
  178SLPC  H17X20383   3.228   6.666   8.830 -0.6172 -0.0365 -0.4653
  178SLPC  H17Y20384   3.320   6.796   8.752  1.4318 -2.2323  0.9108
  178SLPC  C31820385   3.126   6.774   8.675 -0.4157 -0.0507  0.0889
  178SLPC  H18X20386   3.123   6.877   8.634  3.0225  0.1403  0.0750
  178SLPC  H18Y20387   3.026   6.743   8.714 -1.3040  2.8482  0.3067
  178SLPC  H18Z20388   3.159   6.705   8.595 -3.3517  0.9234 -2.1456
  179SLPC     N20389   4.843   3.667  10.612 -0.3238 -0.3098  0.5297
  179SLPC   C1320390   4.765   3.779  10.557  0.0420 -0.6160 -0.2797
  179SLPC  H13A20391   4.744   3.855  10.631  0.8752 -0.2528 -0.4052
  179SLPC  H13B20392   4.810   3.842  10.481 -0.0918 -1.9669 -1.5380
  179SLPC  H13C20393   4.673   3.743  10.514  0.3268 -1.2377 -0.3913
  179SLPC   C1420394   4.756   3.603  10.726  0.5597 -0.2532  0.0061
  179SLPC  H14A20395   4.806   3.516  10.767 -2.4031 -1.4225  1.3638
  179SLPC  H14B20396   4.745   3.665  10.814  0.0337 -0.0538 -0.1990
  179SLPC  H14C20397   4.660   3.579  10.685  0.6492  1.5601 -1.3797
  179SLPC   C1520398   4.968   3.714  10.678  0.0740 -0.5966  0.0870
  179SLPC  H15A20399   5.015   3.623  10.712 -0.3310  0.2152  3.1861
  179SLPC  H15B20400   5.033   3.769  10.613 -0.1663 -1.4619 -0.9032
  179SLPC  H15C20401   4.943   3.766  10.770 -1.5740  0.8703 -1.1160
  179SLPC   C1220402   4.860   3.561  10.502 -0.8619  0.2969  0.9876
  179SLPC  H12A20403   4.900   3.618  10.419 -2.3851 -1.2395 -0.8996
  179SLPC  H12B20404   4.762   3.530  10.470 -1.4375  5.1625 -3.1723
  179SLPC   C1120405   4.935   3.434  10.540 -0.0902  0.1343  0.8923
  179SLPC  H11A20406   4.915   3.360  10.460 -1.1828  0.0021  1.2724
  179SLPC  H11B20407   4.891   3.383  10.629 -0.2235  2.2160  2.1022
  179SLPC     P20408   5.157   3.486  10.432 -0.0225 -0.0650 -0.4636
  179SLPC   O1320409   5.142   3.634  10.408  0.0292 -0.2430  0.0729
  179SLPC   O1420410   5.294   3.429  10.457  0.2000  0.0225  0.4120
  179SLPC   O1220411   5.074   3.449  10.564  0.0429  0.7534 -0.1144
  179SLPC   O1120412   5.090   3.404  10.314 -0.3561  0.0663  0.0621
  179SLPC    C120413   5.123   3.264  10.307 -0.7766  0.2725  0.3741
  179SLPC    HA20414   5.232   3.254  10.287 -0.9491  2.1440 -2.0014
  179SLPC    HB20415   5.098   3.206  10.399 -2.0525  1.6073  0.9114
  179SLPC    C220416   5.050   3.196  10.188 -0.0915 -0.0891 -0.8653
  179SLPC    HS20417   5.100   3.100  10.161 -0.2584 -0.8432  1.3092
  179SLPC   O2120418   5.035   3.285  10.078 -0.3241  0.4275 -0.5789
  179SLPC   C2120419   5.154   3.312  10.009  1.0122 -0.6051 -0.3261
  179SLPC   O2220420   5.255   3.259  10.029  0.2884 -0.3182  0.3440
  179SLPC   C2220421   5.130   3.421   9.910 -0.2869  0.7394  0.2574
  179SLPC   H2R20422   5.090   3.371   9.819  0.6694  0.0825  0.1806
  179SLPC   H2S20423   5.053   3.499   9.929 -1.2948  0.4361 -2.1507
  179SLPC    C320424   4.901   3.155  10.226 -0.0738 -0.4400  0.4325
  179SLPC    HX20425   4.859   3.250  10.263  1.5030  0.4538  0.0290
  179SLPC    HY20426   4.900   3.075  10.304 -0.5256  0.9102  1.8590
  179SLPC   O3120427   4.838   3.135  10.102  0.3549  0.2935  0.1817
  179SLPC   C3120428   4.868   3.023  10.047 -0.5619 -0.1112 -0.2082
  179SLPC   O3220429   4.925   2.930  10.101 -0.1149 -0.1564  0.8503
  179SLPC   C3220430   4.832   3.040   9.901  0.5173  0.2870  0.4120
  179SLPC   H2X20431   4.930   3.064   9.855 -0.2493 -0.2374 -1.5790
  179SLPC   H2Y20432   4.766   3.123   9.869 -1.2299 -0.9680  0.6226
  179SLPC   C2320433   5.255   3.493   9.865 -0.5873  0.8225  0.4991
  179SLPC   H3R20434   5.312   3.529   9.953  1.5588 -3.0456  0.9383
  179SLPC   H3S20435   5.231   3.591   9.818 -1.1509  0.7685  0.6778
  179SLPC   C2420436   5.333   3.409   9.766 -0.3939  0.4420 -0.4202
  179SLPC   H4R20437   5.259   3.363   9.696 -1.2766  1.4207 -0.1499
  179SLPC   H4S20438   5.370   3.315   9.812 -2.0240  0.6318  1.4357
  179SLPC   C2520439   5.458   3.481   9.714 -0.1132  0.2364  0.3931
  179SLPC   H5R20440   5.537   3.405   9.695 -0.5734 -0.1128 -0.1979
  179SLPC   H5S20441   5.488   3.553   9.792 -0.1900 -0.9016  1.5180
  179SLPC   C2620442   5.426   3.554   9.581  0.3384  0.5053  0.3531
  179SLPC   H6R20443   5.507   3.626   9.558  1.4284 -0.6326  0.4842
  179SLPC   H6S20444   5.335   3.615   9.597 -0.3919 -0.5320  0.2703
  179SLPC   C2720445   5.409   3.465   9.455  0.3164  0.0560  0.2637
  179SLPC   H7R20446   5.313   3.411   9.465 -1.0762  2.4187  0.2436
  179SLPC   H7S20447   5.493   3.392   9.447  1.6636  1.4945  0.7710
  179SLPC   C2820448   5.391   3.550   9.323 -1.0698 -0.4041  0.1640
  179SLPC   H8R20449   5.480   3.617   9.313 -0.0843 -1.3157  2.3644
  179SLPC   H8S20450   5.306   3.622   9.316 -2.8072 -2.3364  0.6924
  179SLPC   C2920451   5.375   3.467   9.198 -0.1376 -0.7199 -0.4484
  179SLPC   H9R20452   5.280   3.413   9.198 -0.6000 -0.0097  2.0005
  179SLPC  C21020453   5.467   3.454   9.094 -0.4083 -0.4249  0.4480
  179SLPC  H10R20454   5.451   3.396   9.002 -1.1608  2.4605 -1.3486
  179SLPC  C21120455   5.602   3.525   9.076 -0.1542 -0.7254 -0.0328
  179SLPC  H11R20456   5.667   3.463   9.011  1.1967  0.1276  0.4782
  179SLPC  H11S20457   5.641   3.527   9.180 -0.3515  0.2786  0.0317
  179SLPC  C21220458   5.588   3.667   9.023 -0.3534  0.6558  0.6235
  179SLPC  H12R20459   5.493   3.716   9.052 -0.3695 -0.4988  2.6852
  179SLPC  C21320460   5.673   3.737   8.949  0.3120 -0.5058  0.6996
  179SLPC  H13R20461   5.641   3.838   8.919 -0.0550 -1.2745 -1.6982
  179SLPC  C21420462   5.810   3.690   8.914 -0.7549 -0.3036  0.6814
  179SLPC  H14R20463   5.825   3.598   8.975  1.6030 -1.0281 -0.8377
  179SLPC  H14S20464   5.897   3.756   8.935 -0.2221  0.0123 -2.1128
  179SLPC  C21520465   5.816   3.638   8.775 -0.7788 -0.2630  0.3953
  179SLPC  H15R20466   5.722   3.587   8.745  1.1104 -2.1129 -2.9672
  179SLPC  H15S20467   5.889   3.554   8.781 -1.1961 -1.0970 -3.4563
  179SLPC  C21620468   5.860   3.732   8.668  0.0169 -0.0141 -0.1637
  179SLPC  H16R20469   5.962   3.765   8.697 -0.0899  2.0929 -1.9223
  179SLPC  H16S20470   5.792   3.818   8.652 -0.9151 -0.3727  1.6303
  179SLPC  C21720471   5.893   3.662   8.537  0.1342  0.2371  0.1608
  179SLPC  H17R20472   5.800   3.631   8.486  0.4859 -0.4771 -0.0664
  179SLPC  H17S20473   5.968   3.580   8.547 -0.7709 -0.8045 -1.1577
  179SLPC  C21820474   5.956   3.758   8.441 -0.8440 -0.3401  0.7009
  179SLPC  H18R20475   5.978   3.712   8.342 -1.0569  1.1337 -0.0617
  179SLPC  H18S20476   6.056   3.796   8.470  0.8492 -2.8698 -1.3189
  179SLPC  H18T20477   5.895   3.849   8.424 -1.0097 -0.8663 -2.1095
  179SLPC   C3320478   4.774   2.913   9.845  0.0114 -0.2676 -0.1636
  179SLPC   H3X20479   4.678   2.887   9.894  0.6396 -0.7924  0.8132
  179SLPC   H3Y20480   4.850   2.833   9.858  2.0510  1.8041  1.2968
  179SLPC   C3420481   4.758   2.913   9.691 -0.2339 -0.6178  0.0151
  179SLPC   H4X20482   4.836   2.978   9.645  3.0854 -2.2550  2.8246
  179SLPC   H4Y20483   4.661   2.964   9.673 -0.0104  1.0192  2.8308
  179SLPC   C3520484   4.760   2.781   9.615 -0.4816  0.3832 -0.2383
  179SLPC   H5X20485   4.687   2.707   9.654 -1.4939  1.4012 -0.1451
  179SLPC   H5Y20486   4.858   2.732   9.634 -0.9209 -0.5040 -0.2227
  179SLPC   C3620487   4.735   2.799   9.462 -0.3051 -0.4079 -0.0141
  179SLPC   H6X20488   4.719   2.909   9.455  0.2332 -0.2551  0.9433
  179SLPC   H6Y20489   4.632   2.764   9.440 -0.2671  0.3190 -1.4856
  179SLPC   C3720490   4.840   2.755   9.364  0.5422  0.4837 -0.1490
  179SLPC   H7X20491   4.843   2.644   9.376 -0.0154  0.5904  1.0871
  179SLPC   H7Y20492   4.942   2.786   9.395  0.7322 -1.2012  1.0737
  179SLPC   C3820493   4.805   2.805   9.220  0.2780  0.3081  0.6315
  179SLPC   H8X20494   4.897   2.792   9.159 -0.4617 -3.7242  0.0704
  179SLPC   H8Y20495   4.772   2.911   9.211  1.2859  0.7104  1.4931
  179SLPC   C3920496   4.707   2.703   9.155 -0.0343  0.0942  0.5367
  179SLPC   H9X20497   4.623   2.688   9.226 -0.9038 -2.0471 -0.8342
  179SLPC   H9Y20498   4.768   2.611   9.144 -0.3067 -0.1617  1.1248
  179SLPC  C31020499   4.659   2.748   9.013 -0.5340 -0.4212 -0.6328
  179SLPC  H10X20500   4.744   2.800   8.963 -1.7616  1.7343 -0.6209
  179SLPC  H10Y20501   4.584   2.827   9.039  0.1489 -0.4359  1.6662
  179SLPC  C31120502   4.607   2.630   8.942 -0.2386 -0.1030  0.7078
  179SLPC  H11X20503   4.523   2.590   9.001 -1.8334  0.1468 -1.2874
  179SLPC  H11Y20504   4.683   2.550   8.925  0.2305 -0.0717  2.4879
  179SLPC  C31220505   4.541   2.655   8.801 -0.9498  1.0550 -0.2810
  179SLPC  H12X20506   4.631   2.698   8.751  0.0682  0.2430  0.7896
  179SLPC  H12Y20507   4.456   2.725   8.814 -1.3829  0.3632  0.6797
  179SLPC  C31320508   4.494   2.522   8.746 -0.0212 -0.3612  0.3857
  179SLPC  H13X20509   4.392   2.494   8.781 -0.6581 -1.1512 -1.8603
  179SLPC  H13Y20510   4.569   2.444   8.772  2.3431  1.1133 -1.6075
  179SLPC  C31420511   4.496   2.522   8.592 -0.4081 -0.0961 -0.3031
  179SLPC  H14X20512   4.586   2.579   8.563  0.4327  0.0071  2.2775
  179SLPC  H14Y20513   4.412   2.583   8.553 -0.6345 -0.5536 -0.5374
  179SLPC  C31520514   4.488   2.382   8.533  0.2647 -0.6884 -0.5082
  179SLPC  H15X20515   4.382   2.352   8.517  0.2958 -0.8656 -0.3905
  179SLPC  H15Y20516   4.536   2.299   8.590 -0.7675 -0.4692  0.7391
  179SLPC  C31620517   4.536   2.371   8.387  0.2889  0.2336  0.3903
  179SLPC  H16X20518   4.637   2.415   8.378  1.0179 -1.7111 -2.1327
  179SLPC  H16Y20519   4.468   2.422   8.315  0.9088  0.0599 -0.3317
  179SLPC  C31720520   4.557   2.233   8.349 -0.1615 -0.3099  0.8310
  179SLPC  H17X20521   4.463   2.179   8.373 -0.0650 -1.8914 -1.8210
  179SLPC  H17Y20522   4.639   2.177   8.399  0.5247 -1.3265 -1.2792
  179SLPC  C31820523   4.595   2.214   8.197 -0.5480  0.0809  0.1359
  179SLPC  H18X20524   4.702   2.233   8.176 -0.9882  2.7880  0.0420
  179SLPC  H18Y20525   4.534   2.278   8.130  3.0115  3.0520 -0.5522
  179SLPC  H18Z20526   4.577   2.108   8.169 -0.4978  0.5929 -2.0240
  180SLPC     N20527   5.777   0.105  10.971  0.3366  0.4600 -0.0569
  180SLPC   C1320528   5.879   0.045  11.056  0.4021  0.5226  0.5587
  180SLPC  H13A20529   5.978   0.061  11.015  0.7638 -2.2572  0.1398
  180SLPC  H13B20530   5.886   0.082  11.158 -0.4455  1.9023  0.1438
  180SLPC  H13C20531   5.877  -0.063  11.054 -0.9885  0.5533 -0.8613
  180SLPC   C1420532   5.643   0.043  11.019 -0.7977 -0.0865 -0.0501
  180SLPC  H14A20533   5.628   0.071  11.122  0.6141  1.7373 -0.2897
  180SLPC  H14B20534   5.562   0.089  10.964 -2.0050 -1.2913  0.6483
  180SLPC  H14C20535   5.646  -0.064  11.005 -1.5594 -0.0350 -0.6521
  180SLPC   C1520536   5.811   0.060  10.834  0.3370 -0.3347  0.2968
  180SLPC  H15A20537   5.738   0.103  10.767  1.8439 -0.7547 -1.7271
  180SLPC  H15B20538   5.912   0.090  10.812 -0.3076  1.4627 -0.3977
  180SLPC  H15C20539   5.786  -0.045  10.828 -3.8977  0.5399 -1.2336
  180SLPC   C1220540   5.756   0.247  10.985 -0.1398 -0.6733 -0.4660
  180SLPC  H12A20541   5.856   0.286  10.988 -0.7534  1.0106 -0.9828
  180SLPC  H12B20542   5.718   0.272  11.083  2.8084  0.2582  0.5516
  180SLPC   C1120543   5.669   0.306  10.881  0.3416 -0.4922  0.4205
  180SLPC  H11A20544   5.714   0.292  10.780 -1.3533 -3.3585 -0.0508
  180SLPC  H11B20545   5.675   0.417  10.888  1.9755 -0.4692 -0.7608
  180SLPC     P20546   5.433   0.299  10.764  0.2229  0.0301 -0.1901
  180SLPC   O1320547   5.356   0.174  10.743  0.7140 -0.2669 -0.4800
  180SLPC   O1420548   5.360   0.420  10.806  0.3095  0.3361  0.1412
  180SLPC   O1220549   5.534   0.256  10.881  0.0797 -0.2908 -0.6909
  180SLPC   O1120550   5.533   0.322  10.638 -0.1914 -0.1785 -0.1667
  180SLPC    C120551   5.524   0.448  10.574  0.1087 -0.4569  0.1491
  180SLPC    HA20552   5.426   0.500  10.571  1.1543  1.5957 -0.4807
  180SLPC    HB20553   5.598   0.518  10.618  0.7326 -1.1477  0.2080
  180SLPC    C220554   5.561   0.441  10.424 -0.4578  0.1830  0.2213
  180SLPC    HS20555   5.470   0.397  10.377 -0.2206 -1.3451  1.1304
  180SLPC   O2120556   5.664   0.347  10.399 -0.7590  0.1436 -0.1064
  180SLPC   C2120557   5.781   0.353  10.473  0.3849 -0.3308  0.3961
  180SLPC   O2220558   5.811   0.445  10.548  0.2300 -0.5110 -0.0486
  180SLPC   C2220559   5.869   0.233  10.437  0.4298 -0.7566  0.1358
  180SLPC   H2R20560   5.909   0.197  10.534  2.9705 -0.8410 -0.8873
  180SLPC   H2S20561   5.799   0.156  10.397  0.2318  1.0049 -3.1900
  180SLPC    C320562   5.599   0.572  10.359  0.0247 -0.3280 -0.0728
  180SLPC    HX20563   5.694   0.608  10.404  0.2175  0.6092 -1.1703
  180SLPC    HY20564   5.526   0.653  10.377  1.2092  0.2419  2.6534
  180SLPC   O3120565   5.610   0.557  10.214 -0.0292 -0.0422 -0.3135
  180SLPC   C3120566   5.618   0.665  10.145  0.2747 -0.3648 -0.0959
  180SLPC   O3220567   5.603   0.780  10.188  0.2145 -0.1664  0.2611
  180SLPC   C3220568   5.612   0.612  10.005  1.2327  0.0083 -0.9695
  180SLPC   H2X20569   5.518   0.555   9.990  0.0311  1.4835  0.5941
  180SLPC   H2Y20570   5.694   0.539   9.986 -0.5276 -2.2322 -0.3735
  180SLPC   C2320571   5.981   0.268  10.337  0.6307  0.2557 -0.0194
  180SLPC   H3R20572   6.053   0.186  10.316  1.3910  0.5966  1.1692
  180SLPC   H3S20573   6.043   0.351  10.378  1.2586  0.0651 -0.5523
  180SLPC   C2420574   5.915   0.312  10.204  0.1237  0.2812 -0.2018
  180SLPC   H4R20575   6.009   0.325  10.147  1.5358 -0.1782  1.9101
  180SLPC   H4S20576   5.866   0.411  10.216  1.1780  0.7160  0.7232
  180SLPC   C2520577   5.823   0.210  10.133  0.3217  0.4329  1.3088
  180SLPC   H5R20578   5.730   0.207  10.194 -1.7423 -0.8337 -1.6779
  180SLPC   H5S20579   5.869   0.109  10.130 -1.5216 -0.4521 -1.3193
  180SLPC   C2620580   5.793   0.256   9.997  0.4785  0.2865 -0.0307
  180SLPC   H6R20581   5.770   0.365  10.006 -1.6673 -0.2284  1.1342
  180SLPC   H6S20582   5.699   0.208   9.965  0.5184  0.9005 -1.1297
  180SLPC   C2720583   5.906   0.226   9.896  0.4692 -0.9016  0.3074
  180SLPC   H7R20584   5.939   0.125   9.929  3.8406  0.2907  1.0019
  180SLPC   H7S20585   5.992   0.294   9.915 -0.2475  0.3599 -0.8374
  180SLPC   C2820586   5.867   0.230   9.749  0.4635 -0.3824  0.0970
  180SLPC   H8R20587   5.795   0.150   9.721 -0.6637  0.8082 -0.4937
  180SLPC   H8S20588   5.964   0.216   9.697  0.7017  2.2723 -0.3068
  180SLPC   C2920589   5.818   0.361   9.706  0.4808  0.3396  0.1327
  180SLPC   H9R20590   5.765   0.424   9.778  0.7263  0.3200  0.3341
  180SLPC  C21020591   5.826   0.403   9.581  0.4600  0.0161 -0.7819
  180SLPC  H10R20592   5.770   0.493   9.551 -1.1274  0.1878  2.2696
  180SLPC  C21120593   5.892   0.341   9.461  0.1398  0.4159  0.2070
  180SLPC  H11R20594   5.817   0.303   9.388  0.7743 -1.6595  0.5659
  180SLPC  H11S20595   5.956   0.253   9.482  0.1201  0.2942 -0.2271
  180SLPC  C21220596   5.984   0.437   9.398  0.2654 -0.9252  0.0919
  180SLPC  H12R20597   6.078   0.444   9.455 -0.6124 -2.9789  1.9412
  180SLPC  C21320598   5.954   0.527   9.303  0.7539 -0.0816  0.5710
  180SLPC  H13R20599   6.027   0.593   9.254  2.1801 -2.5274 -0.8279
  180SLPC  C21420600   5.816   0.547   9.246 -0.8016 -0.8669  0.2175
  180SLPC  H14R20601   5.805   0.658   9.244 -1.0501 -0.8700 -2.5829
  180SLPC  H14S20602   5.737   0.502   9.310  0.1397  0.5644  2.5166
  180SLPC  C21520603   5.802   0.499   9.102 -0.4114  0.3470 -0.5625
  180SLPC  H15R20604   5.877   0.560   9.047 -1.5171  1.9271 -0.4105
  180SLPC  H15S20605   5.698   0.533   9.081 -0.0589  0.4778 -2.2081
  180SLPC  C21620606   5.797   0.341   9.089 -0.6753  0.1649  0.4237
  180SLPC  H16R20607   5.726   0.299   9.163 -0.3222  0.1697  0.7650
  180SLPC  H16S20608   5.897   0.306   9.120 -0.5115  1.5020  1.4758
  180SLPC  C21720609   5.749   0.294   8.952  0.1794 -0.3977 -0.4042
  180SLPC  H17R20610   5.641   0.317   8.940  0.0915  0.8912  2.1867
  180SLPC  H17S20611   5.746   0.183   8.963  1.8078 -0.4524 -0.2195
  180SLPC  C21820612   5.836   0.328   8.832 -0.4565 -0.0342  0.8764
  180SLPC  H18R20613   5.870   0.433   8.845  0.0046 -0.3285  2.2796
  180SLPC  H18S20614   5.772   0.325   8.742  2.2865  1.8177 -1.3164
  180SLPC  H18T20615   5.917   0.252   8.832 -0.9543 -0.6661 -1.8147
  180SLPC   C3320616   5.611   0.731   9.901  0.4407  0.5082  0.2859
  180SLPC   H3X20617   5.717   0.765   9.896  1.0563 -1.2381 -4.6993
  180SLPC   H3Y20618   5.535   0.811   9.916  1.5618  1.7064 -0.1556
  180SLPC   C3420619   5.584   0.680   9.758  0.2355 -0.7939 -0.0871
  180SLPC   H4X20620   5.487   0.628   9.739  1.2574 -3.9448  2.3099
  180SLPC   H4Y20621   5.664   0.611   9.724  1.4901  1.1130 -1.1981
  180SLPC   C3520622   5.586   0.801   9.661 -0.0466  0.0219 -0.0646
  180SLPC   H5X20623   5.686   0.847   9.671 -0.9829  2.0668  0.3813
  180SLPC   H5Y20624   5.531   0.891   9.697  0.6584  0.4947 -0.1669
  180SLPC   C3620625   5.558   0.764   9.514  0.0168 -0.3372 -0.4898
  180SLPC   H6X20626   5.456   0.720   9.501  0.3757 -1.4849  0.4225
  180SLPC   H6Y20627   5.624   0.680   9.483 -0.9038 -0.9886 -0.7330
  180SLPC   C3720628   5.598   0.870   9.405  0.4809 -0.4478  0.5497
  180SLPC   H7X20629   5.542   0.963   9.426  2.3256  0.3727  2.1389
  180SLPC   H7Y20630   5.562   0.848   9.301  1.1919  1.1289 -0.0546
  180SLPC   C3820631   5.748   0.909   9.405  0.0759  0.7256 -0.4538
  180SLPC   H8X20632   5.813   0.819   9.398 -1.8176 -0.5503 -2.6565
  180SLPC   H8Y20633   5.783   0.971   9.491  2.3421  0.0509 -0.8148
  180SLPC   C3920634   5.793   0.993   9.285  0.2327  0.8189  0.2354
  180SLPC   H9X20635   5.779   0.934   9.191  2.5776  0.3903  0.1079
  180SLPC   H9Y20636   5.902   1.008   9.298  0.6885 -1.4019 -0.5281
  180SLPC  C31020637   5.742   1.136   9.295 -0.2972 -0.8069 -0.1164
  180SLPC  H10X20638   5.778   1.177   9.391  0.2181 -1.2436 -0.1199
  180SLPC  H10Y20639   5.632   1.132   9.311 -0.3025 -0.3599 -0.0277
  180SLPC  C31120640   5.769   1.232   9.182 -0.1932 -0.7310  0.3427
  180SLPC  H11X20641   5.879   1.250   9.180 -0.0923 -0.0632  4.0566
  180SLPC  H11Y20642   5.720   1.331   9.194 -0.1001 -0.5813 -0.4919
  180SLPC  C31220643   5.731   1.182   9.041  0.1484 -0.2112  0.3878
  180SLPC  H12X20644   5.622   1.159   9.036  0.2832 -0.6215 -1.7384
  180SLPC  H12Y20645   5.796   1.093   9.024 -0.7689 -0.7834 -0.2380
  180SLPC  C31320646   5.759   1.296   8.937 -0.3373  0.3485  0.2529
  180SLPC  H13X20647   5.869   1.283   8.931 -0.4888 -0.7706 -0.4943
  180SLPC  H13Y20648   5.744   1.396   8.982 -1.2125 -0.9797  3.1452
  180SLPC  C31420649   5.698   1.273   8.802  0.0700 -0.5064 -0.5656
  180SLPC  H14X20650   5.712   1.166   8.774  1.5080  0.7280 -5.5621
  180SLPC  H14Y20651   5.763   1.331   8.733 -0.8298  1.4531  0.1695
  180SLPC  C31520652   5.552   1.330   8.788 -0.2675  0.6400  0.1141
  180SLPC  H15X20653   5.556   1.434   8.825  1.8733  0.3638  0.8325
  180SLPC  H15Y20654   5.484   1.278   8.859  0.8262 -0.8217  0.1471
  180SLPC  C31620655   5.487   1.304   8.648  0.1780 -0.0977 -0.2709
  180SLPC  H16X20656   5.381   1.275   8.661  0.2051  0.5551  1.5844
  180SLPC  H16Y20657   5.543   1.215   8.612  3.1049  1.9121 -1.0836
  180SLPC  C31720658   5.517   1.415   8.542  0.1777  0.0001 -0.7720
  180SLPC  H17X20659   5.500   1.362   8.446 -4.6175 -1.8579  0.7949
  180SLPC  H17Y20660   5.620   1.457   8.545  0.2564 -0.2224 -0.0948
  180SLPC  C31820661   5.416   1.524   8.541  0.0769 -0.7561 -0.1921
  180SLPC  H18X20662   5.426   1.593   8.628 -1.9935 -1.8205  0.9754
  180SLPC  H18Y20663   5.308   1.500   8.540 -0.4072  1.1443  0.8127
  180SLPC  H18Z20664   5.450   1.596   8.464  0.5173 -0.7065  0.0451
  181SLPC     N20665   2.062   5.512  11.472  0.2006 -0.8353 -0.1625
  181SLPC   C1320666   1.962   5.613  11.417 -0.1821 -0.0565 -0.2980
  181SLPC  H13A20667   1.928   5.562  11.329  2.5224 -1.3864 -0.6904
  181SLPC  H13B20668   1.876   5.642  11.475 -0.4902  1.1968 -1.3463
  181SLPC  H13C20669   2.004   5.698  11.365 -0.1444  1.0863  1.4869
  181SLPC   C1420670   2.132   5.561  11.598 -0.0201 -0.4188 -0.6357
  181SLPC  H14A20671   2.206   5.491  11.635 -0.0870  0.2167  0.7746
  181SLPC  H14B20672   2.187   5.651  11.574  1.8160 -1.8602 -2.1261
  181SLPC  H14C20673   2.059   5.587  11.674 -0.5950  0.0447 -1.3271
  181SLPC   C1520674   2.178   5.508  11.372  0.3172 -0.0968 -0.3916
  181SLPC  H15A20675   2.141   5.493  11.272 -0.3871  1.9914 -0.5033
  181SLPC  H15B20676   2.220   5.608  11.373  1.2744 -0.4890 -0.0882
  181SLPC  H15C20677   2.255   5.438  11.402 -0.9063 -0.5479  1.8898
  181SLPC   C1220678   1.995   5.371  11.490 -0.1303 -0.5549 -0.2861
  181SLPC  H12A20679   1.922   5.378  11.570 -0.6061  1.4610 -0.8378
  181SLPC  H12B20680   2.066   5.302  11.533 -0.1613  0.7596  2.0444
  181SLPC   C1120681   1.927   5.300  11.370 -0.0476  0.0124  0.4514
  181SLPC  H11A20682   1.850   5.234  11.415 -0.5216 -0.0358 -0.4132
  181SLPC  H11B20683   1.998   5.231  11.319 -1.3021  0.0085 -1.3800
  181SLPC     P20684   1.882   5.378  11.119 -0.1291 -0.2491 -0.1201
  181SLPC   O1320685   1.988   5.477  11.099 -0.6631 -0.5721 -0.0457
  181SLPC   O1420686   1.909   5.246  11.066  0.2965 -0.0039 -0.3303
  181SLPC   O1220687   1.856   5.375  11.276  0.6079 -0.0108  0.2401
  181SLPC   O1120688   1.743   5.440  11.067  0.0761  0.1973 -0.1283
  181SLPC    C120689   1.704   5.573  11.108 -0.1845  0.7270 -0.4253
  181SLPC    HA20690   1.611   5.550  11.163 -0.6720 -0.4838 -1.7107
  181SLPC    HB20691   1.777   5.626  11.173 -0.4053  0.3908  0.0925
  181SLPC    C220692   1.677   5.663  10.988  0.3947 -0.2227 -0.0718
  181SLPC    HS20693   1.590   5.623  10.932 -0.1955  1.0994 -0.1371
  181SLPC   O2120694   1.790   5.670  10.899 -0.4023 -0.1865  0.4164
  181SLPC   C2120695   1.797   5.580  10.802 -0.0277 -0.0488  0.2728
  181SLPC   O2220696   1.715   5.491  10.777 -0.1708  0.4825  0.6727
  181SLPC   C2220697   1.936   5.596  10.727  0.3343 -0.5865  0.2436
  181SLPC   H2R20698   1.985   5.677  10.786 -0.3360 -1.3107  1.8793
  181SLPC   H2S20699   1.981   5.496  10.743 -1.2309 -1.1600  1.2141
  181SLPC    C320700   1.634   5.811  11.021  0.2842 -0.9794 -0.1262
  181SLPC    HX20701   1.716   5.869  11.068 -1.2036  1.1952 -0.0595
  181SLPC    HY20702   1.546   5.812  11.088 -0.0618  4.6631 -0.2121
  181SLPC   O3120703   1.602   5.877  10.898  0.0062 -0.1369  0.2231
  181SLPC   C3120704   1.479   5.866  10.854  1.0447 -0.8536  0.1902
  181SLPC   O3220705   1.391   5.803  10.915 -0.1871 -0.0870  0.4548
  181SLPC   C3220706   1.462   5.946  10.729  0.7764  0.3300  0.4968
  181SLPC   H2X20707   1.468   6.054  10.752 -1.8972  0.4180  1.1368
  181SLPC   H2Y20708   1.354   5.940  10.700  0.9503 -0.1310 -0.0878
  181SLPC   C2320709   1.917   5.618  10.572  0.4469 -0.1301 -0.1371
  181SLPC   H3R20710   1.851   5.706  10.558 -0.0539 -0.5121 -0.1909
  181SLPC   H3S20711   1.865   5.530  10.528 -0.6386  0.4236 -0.0027
  181SLPC   C2420712   2.052   5.654  10.504  0.0463  0.0601  0.3386
  181SLPC   H4R20713   2.133   5.580  10.521  1.4002  1.6183  0.8536
  181SLPC   H4S20714   2.091   5.749  10.547 -1.3675  0.1744  1.4488
  181SLPC   C2520715   2.032   5.678  10.351 -0.0743 -0.2962 -0.1874
  181SLPC   H5R20716   1.958   5.761  10.343  0.5018  0.1393 -1.2658
  181SLPC   H5S20717   1.990   5.584  10.310  0.6276 -0.6453 -0.1321
  181SLPC   C2620718   2.151   5.732  10.273  0.0307  0.3167  0.3469
  181SLPC   H6R20719   2.242   5.679  10.310  1.0750  2.0333  0.3638
  181SLPC   H6S20720   2.176   5.833  10.311  0.4155  0.5662 -0.5491
  181SLPC   C2720721   2.128   5.731  10.119 -0.0977 -0.4449  0.0409
  181SLPC   H7R20722   2.041   5.795  10.091 -1.8106 -2.3156  0.8245
  181SLPC   H7S20723   2.095   5.630  10.087 -0.8890 -0.0978 -0.2756
  181SLPC   C2820724   2.259   5.775  10.034  0.0018  0.5536 -0.3363
  181SLPC   H8R20725   2.269   5.884  10.053 -1.1532  0.3835  1.6441
  181SLPC   H8S20726   2.234   5.766   9.927 -0.3283 -0.5578 -0.1784
  181SLPC   C2920727   2.392   5.700  10.064  0.2549 -0.0611 -0.9419
  181SLPC   H9R20728   2.402   5.655  10.164  1.9402  0.3049 -0.9067
  181SLPC  C21020729   2.488   5.675   9.973 -0.5692 -0.4213 -0.2223
  181SLPC  H10R20730   2.577   5.622  10.009 -1.2590 -0.9794  0.7039
  181SLPC  C21120731   2.493   5.714   9.824  0.4844 -0.4214  0.4852
  181SLPC  H11R20732   2.597   5.708   9.785 -0.5858  0.7590 -2.9136
  181SLPC  H11S20733   2.466   5.822   9.822  1.3057 -0.1710  1.7614
  181SLPC  C21220734   2.396   5.640   9.731  0.3783 -0.5111  0.2962
  181SLPC  H12R20735   2.328   5.564   9.773 -0.3258  0.4469  0.9197
  181SLPC  C21320736   2.416   5.641   9.592 -0.4059 -0.0670 -0.4425
  181SLPC  H13R20737   2.350   5.585   9.525 -0.3505 -1.1666  0.3893
  181SLPC  C21420738   2.523   5.724   9.527  0.3595 -0.0619 -0.0521
  181SLPC  H14R20739   2.621   5.677   9.549  0.8583  0.9956  0.0902
  181SLPC  H14S20740   2.538   5.814   9.592 -0.2507 -1.5214  2.2456
  181SLPC  C21520741   2.500   5.765   9.378 -0.2138 -0.0317  0.2116
  181SLPC  H15R20742   2.532   5.687   9.306 -0.7578 -1.1508  1.1584
  181SLPC  H15S20743   2.566   5.850   9.350 -0.1380 -0.5726 -1.3119
  181SLPC  C21620744   2.368   5.828   9.342  1.1247 -0.3811 -0.3106
  181SLPC  H16R20745   2.370   5.920   9.406  0.7444 -1.6282  1.5863
  181SLPC  H16S20746   2.281   5.766   9.371 -0.3763  2.5732  2.1194
  181SLPC  C21720747   2.347   5.869   9.195  0.0707  0.4374 -0.4806
  181SLPC  H17R20748   2.326   5.777   9.136 -1.0253  1.7862 -2.3236
  181SLPC  H17S20749   2.437   5.921   9.156  0.4265  0.9017  0.9103
  181SLPC  C21820750   2.230   5.964   9.167  0.6937  0.3847 -0.9758
  181SLPC  H18R20751   2.232   6.041   9.247 -2.3006 -1.8858  1.5241
  181SLPC  H18S20752   2.137   5.911   9.197  1.0187  1.7956  3.1343
  181SLPC  H18T20753   2.218   6.006   9.064 -1.5093 -1.2869 -1.4913
  181SLPC   C3320754   1.559   5.906  10.616  0.4096 -0.0310 -0.5051
  181SLPC   H3X20755   1.665   5.900  10.650  0.8551  1.0725 -1.6262
  181SLPC   H3Y20756   1.550   5.994  10.549 -4.7479 -0.0844 -0.2929
  181SLPC   C3420757   1.534   5.779  10.536 -0.2971 -0.6296  0.5871
  181SLPC   H4X20758   1.429   5.769  10.502  0.3430 -2.5106 -0.9905
  181SLPC   H4Y20759   1.570   5.688  10.589 -0.0054 -0.8872 -0.0418
  181SLPC   C3520760   1.626   5.785  10.408  0.2780 -0.3010 -0.3987
  181SLPC   H5X20761   1.730   5.797  10.444  0.3008 -1.8386  0.1074
  181SLPC   H5Y20762   1.587   5.873  10.352 -0.5364  0.1901  0.9032
  181SLPC   C3620763   1.609   5.664  10.320  0.1559  0.4089  0.0111
  181SLPC   H6X20764   1.506   5.627  10.303  0.4313  0.5130 -2.1667
  181SLPC   H6Y20765   1.652   5.577  10.374 -1.1520 -0.1364  0.2017
  181SLPC   C3720766   1.689   5.693  10.192 -0.2851  0.2405  0.3680
  181SLPC   H7X20767   1.796   5.708  10.220  0.4412 -2.1178 -0.8375
  181SLPC   H7Y20768   1.657   5.782  10.135  3.2851 -0.3090 -2.9073
  181SLPC   C3820769   1.700   5.571  10.097  0.8867 -0.8464  0.0123
  181SLPC   H8X20770   1.590   5.556  10.092  0.5380  1.6723 -1.7181
  181SLPC   H8Y20771   1.765   5.491  10.139 -0.0531 -0.9167  1.4402
  181SLPC   C3920772   1.760   5.615   9.965  0.1377  0.1033 -0.3663
  181SLPC   H9X20773   1.870   5.626   9.980  0.1813  0.6066 -0.9826
  181SLPC   H9Y20774   1.710   5.706   9.926 -0.8987 -0.4087 -0.2581
  181SLPC  C31020775   1.757   5.513   9.856  0.1383 -0.2089  0.1773
  181SLPC  H10X20776   1.659   5.524   9.805  0.2513  0.7584  0.1537
  181SLPC  H10Y20777   1.776   5.413   9.902  1.2810 -0.6434 -1.1766
  181SLPC  C31120778   1.859   5.541   9.746  0.3713  0.0723  0.3151
  181SLPC  H11X20779   1.964   5.522   9.776  1.4171  3.3076 -0.8829
  181SLPC  H11Y20780   1.860   5.644   9.703  2.2613 -0.7451 -1.7926
  181SLPC  C31220781   1.844   5.443   9.626 -0.3977  0.0095  0.3014
  181SLPC  H12X20782   1.853   5.341   9.669 -1.7805 -0.5234 -0.6181
  181SLPC  H12Y20783   1.929   5.452   9.555  1.3026 -0.6538  2.1667
  181SLPC  C31320784   1.710   5.454   9.551 -0.6711  0.4912  0.7622
  181SLPC  H13X20785   1.671   5.558   9.551  1.4455  1.4081 -1.7140
  181SLPC  H13Y20786   1.636   5.381   9.588  0.8356 -0.5706  1.8029
  181SLPC  C31420787   1.733   5.401   9.406 -0.4535  0.4642  0.0081
  181SLPC  H14X20788   1.772   5.297   9.415 -0.5906  0.4189  0.0935
  181SLPC  H14Y20789   1.821   5.460   9.371  1.7632 -0.1852  3.8985
  181SLPC  C31520790   1.609   5.416   9.317  0.2966 -0.2525  0.3052
  181SLPC  H15X20791   1.572   5.521   9.319  1.9383  0.3700 -0.3719
  181SLPC  H15Y20792   1.528   5.359   9.367 -1.0050  1.3145  0.0415
  181SLPC  C31620793   1.624   5.372   9.171 -0.1625 -0.4416  0.8326
  181SLPC  H16X20794   1.697   5.289   9.164 -0.1794 -0.3882 -0.0986
  181SLPC  H16Y20795   1.678   5.452   9.115 -1.0349  1.0610  2.0487
  181SLPC  C31720796   1.486   5.342   9.102  0.1296  0.0866  0.0670
  181SLPC  H17X20797   1.434   5.440   9.104  1.2181  0.7169 -1.1921
  181SLPC  H17Y20798   1.441   5.253   9.152  2.0548 -0.4229  0.9853
  181SLPC  C31820799   1.500   5.308   8.959  0.2839 -0.3641  0.0253
  181SLPC  H18X20800   1.508   5.403   8.901 -2.5318 -0.2264 -0.2491
  181SLPC  H18Y20801   1.409   5.263   8.915  0.4571  1.6975 -2.6650
  181SLPC  H18Z20802   1.591   5.252   8.930 -0.1848  0.4186 -3.3998
  182SLPC     N20803   0.051   0.033  10.899  0.2554 -0.0610 -0.3024
  182SLPC   C1320804   0.013   0.174  10.892  0.0012  0.3303  0.2470
  182SLPC  H13A20805   0.083   0.247  10.930  0.3852 -0.6480  1.4974
  182SLPC  H13B20806   0.000   0.195  10.786  0.6837 -0.3146  0.0245
  182SLPC  H13C20807  -0.084   0.194  10.935  0.0641 -0.7425  0.9229
  182SLPC   C1420808   0.066  -0.022  11.040 -0.5024  0.1246  0.2690
  182SLPC  H14A20809  -0.005   0.006  11.117 -0.1200  0.3320  0.5494
  182SLPC  H14B20810   0.078  -0.127  11.023  0.2725  0.5111 -1.8586
  182SLPC  H14C20811   0.160   0.013  11.081 -0.0584  1.1411 -1.4817
  182SLPC   C1520812   0.179   0.007  10.829 -0.1076 -0.7723 -0.0295
  182SLPC  H15A20813   0.208  -0.095  10.846  2.3573  0.0824  1.4301
  182SLPC  H15B20814   0.171   0.037  10.726  2.7598  1.8483  0.3656
  182SLPC  H15C20815   0.256   0.070  10.871  0.3287 -1.1228 -0.2947
  182SLPC   C1220816  -0.051  -0.054  10.830 -0.3752  0.4317  0.1817
  182SLPC  H12A20817  -0.087  -0.004  10.740 -0.6960 -0.4650 -0.2027
  182SLPC  H12B20818  -0.141  -0.070  10.887 -1.1463  0.9861 -0.8253
  182SLPC   C1120819  -0.010  -0.189  10.780 -0.1777 -0.1995  0.0567
  182SLPC  H11A20820   0.078  -0.196  10.713 -0.7361  0.7045 -0.8000
  182SLPC  H11B20821  -0.094  -0.233  10.721  1.4189 -1.5567 -1.2923
  182SLPC     P20822  -0.097  -0.352  10.960 -0.0846  0.1251  0.4422
  182SLPC   O1320823  -0.058  -0.415  11.087 -0.4382  0.0131  0.4416
  182SLPC   O1420824  -0.215  -0.260  10.977 -0.4774 -0.5866  0.4738
  182SLPC   O1220825   0.026  -0.276  10.894 -0.0392  0.6963 -0.4221
  182SLPC   O1120826  -0.126  -0.480  10.865  0.3858 -0.3501  0.7187
  182SLPC    C120827  -0.034  -0.580  10.842  0.0674 -0.2353  0.0261
  182SLPC    HA20828   0.063  -0.553  10.890 -1.5196  3.9996  1.3274
  182SLPC    HB20829  -0.071  -0.680  10.874 -1.0734 -0.4390 -1.8184
  182SLPC    C220830  -0.011  -0.590  10.689 -0.3414  0.2403 -0.2532
  182SLPC    HS20831   0.001  -0.484  10.656  1.4364 -0.7102 -3.0629
  182SLPC   O2120832  -0.121  -0.655  10.626  0.5579  0.5567 -0.1578
  182SLPC   C2120833  -0.146  -0.614  10.500  0.1088 -0.3444 -0.6650
  182SLPC   O2220834  -0.081  -0.530  10.442  0.0119  0.0465 -0.1841
  182SLPC   C2220835  -0.270  -0.686  10.455 -0.1376  0.7272  0.3969
  182SLPC   H2R20836  -0.321  -0.746  10.533 -0.2550  0.2366 -0.0482
  182SLPC   H2S20837  -0.347  -0.617  10.414  0.3870  0.6005 -0.8361
  182SLPC    C320838   0.126  -0.661  10.652 -0.0659 -0.0693  0.0527
  182SLPC    HX20839   0.128  -0.761  10.700  0.2162 -1.3240 -2.4221
  182SLPC    HY20840   0.216  -0.602  10.681 -1.0661  1.4013  0.2674
  182SLPC   O3120841   0.134  -0.690  10.513 -0.6753 -0.4137 -0.4509
  182SLPC   C3120842   0.231  -0.639  10.437  0.5290  0.1100  0.0341
  182SLPC   O3220843   0.315  -0.561  10.474 -1.1133  0.4285  0.8543
  182SLPC   C3220844   0.213  -0.698  10.297 -1.0327  0.3835  0.3323
  182SLPC   H2X20845   0.117  -0.665  10.252  1.2961  2.9062 -3.2923
  182SLPC   H2Y20846   0.205  -0.808  10.305 -2.3204  0.5953  3.5198
  182SLPC   C2320847  -0.224  -0.789  10.344 -0.7401  0.0247  0.3091
  182SLPC   H3R20848  -0.305  -0.866  10.348  0.6451 -1.6488 -1.7366
  182SLPC   H3S20849  -0.129  -0.836  10.376 -0.4278  0.5806  0.2097
  182SLPC   C2420850  -0.199  -0.724  10.205 -0.3168  0.1445  0.0012
  182SLPC   H4R20851  -0.111  -0.657  10.208 -0.4629  0.3037  2.3391
  182SLPC   H4S20852  -0.289  -0.665  10.174 -0.3792 -0.0878 -0.2628
  182SLPC   C2520853  -0.188  -0.843  10.103 -0.0770 -0.1443  0.1253
  182SLPC   H5R20854  -0.270  -0.917  10.116 -0.6297  0.0008 -2.1480
  182SLPC   H5S20855  -0.094  -0.895  10.130 -0.3760  0.4077  2.4248
  182SLPC   C2620856  -0.190  -0.796   9.959  0.3544 -0.4743 -0.2699
  182SLPC   H6R20857  -0.274  -0.727   9.937  2.1013  1.6437 -0.7285
  182SLPC   H6S20858  -0.219  -0.871   9.882 -2.9564  2.0389 -1.7462
  182SLPC   C2720859  -0.059  -0.724   9.913 -0.1061  0.1552  0.1954
  182SLPC   H7R20860   0.029  -0.782   9.947 -0.7180 -0.9705 -0.0965
  182SLPC   H7S20861  -0.047  -0.628   9.968 -0.1502 -0.0425  0.5535
  182SLPC   C2820862  -0.049  -0.687   9.766  0.0616  0.4719 -0.0808
  182SLPC   H8R20863   0.039  -0.619   9.759  2.3706 -2.4133 -1.8382
  182SLPC   H8S20864  -0.142  -0.646   9.722  1.0445  1.0261 -1.7621
  182SLPC   C2920865  -0.002  -0.806   9.685 -0.2063  0.0752 -0.5152
  182SLPC   H9R20866   0.030  -0.898   9.736  0.4929  0.8872  0.5561
  182SLPC  C21020867  -0.024  -0.821   9.554  0.3205  0.5139 -0.0861
  182SLPC  H10R20868  -0.006  -0.918   9.505 -3.6232  0.0427 -0.9385
  182SLPC  C21120869  -0.098  -0.728   9.461  0.3508 -0.4670 -0.0598
  182SLPC  H11R20870  -0.202  -0.705   9.493  0.0528 -0.3192 -1.0746
  182SLPC  H11S20871  -0.125  -0.796   9.377 -0.3958  0.6304 -0.7518
  182SLPC  C21220872  -0.042  -0.603   9.405 -0.6281  0.0287 -0.2540
  182SLPC  H12R20873  -0.068  -0.515   9.465 -0.0640  0.3918 -0.5366
  182SLPC  C21320874   0.040  -0.588   9.296  0.1356  0.2379  0.3293
  182SLPC  H13R20875   0.075  -0.487   9.271  0.8351  0.1453  0.8845
  182SLPC  C21420876   0.096  -0.704   9.208 -0.0801  0.3120  0.1155
  182SLPC  H14R20877   0.093  -0.800   9.262 -1.8323  0.7112  0.8120
  182SLPC  H14S20878   0.203  -0.693   9.180  0.1691  0.2797  1.0288
  182SLPC  C21520879   0.014  -0.702   9.083  0.6744 -0.2862  0.6416
  182SLPC  H15R20880   0.035  -0.608   9.027  0.6264  0.7154  2.2368
  182SLPC  H15S20881  -0.094  -0.705   9.107  0.7568  1.4388  1.3761
  182SLPC  C21620882   0.042  -0.821   8.986 -0.3543 -0.2302 -0.0937
  182SLPC  H16R20883  -0.031  -0.820   8.902 -0.5361  3.5725 -0.0802
  182SLPC  H16S20884   0.035  -0.912   9.048  0.9139 -0.5099 -0.3444
  182SLPC  C21720885   0.183  -0.808   8.928  1.2915 -0.1359  0.3120
  182SLPC  H17R20886   0.259  -0.798   9.008  1.5528 -1.3822  0.2469
  182SLPC  H17S20887   0.183  -0.716   8.866 -1.6597  0.2844  0.7664
  182SLPC  C21820888   0.210  -0.927   8.835 -0.2401  0.4546  0.3160
  182SLPC  H18R20889   0.316  -0.927   8.800 -1.0500  0.5069 -2.3434
  182SLPC  H18S20890   0.149  -0.926   8.742  1.6516 -1.1960 -1.0247
  182SLPC  H18T20891   0.178  -1.021   8.884  0.0057 -0.1792 -0.7154
  182SLPC   C3320892   0.314  -0.644  10.205  0.6795  0.6081  0.1269
  182SLPC   H3X20893   0.412  -0.688  10.237  1.0150  0.8131 -0.6065
  182SLPC   H3Y20894   0.324  -0.533  10.212 -2.0915  0.9616 -0.3833
  182SLPC   C3420895   0.286  -0.671  10.056 -0.4152 -0.0849  0.6143
  182SLPC   H4X20896   0.342  -0.597   9.995 -2.4762 -0.3506 -1.7751
  182SLPC   H4Y20897   0.182  -0.636  10.036  0.3357  1.0782 -1.6326
  182SLPC   C3520898   0.321  -0.813  10.001 -0.0079  0.5571 -0.2479
  182SLPC   H5X20899   0.234  -0.877  10.024 -2.0325  1.7840 -3.7019
  182SLPC   H5Y20900   0.414  -0.843  10.053  1.9096  1.7686 -2.7693
  182SLPC   C3620901   0.359  -0.804   9.855 -0.3103 -0.0574  0.7737
  182SLPC   H6X20902   0.458  -0.756   9.844 -1.3048  2.2210  1.1020
  182SLPC   H6Y20903   0.282  -0.752   9.794  1.3141  0.4555 -0.9336
  182SLPC   C3720904   0.381  -0.928   9.771 -0.6270 -0.6851  0.1904
  182SLPC   H7X20905   0.284  -0.982   9.764 -2.2942  1.8979  1.5590
  182SLPC   H7Y20906   0.463  -0.993   9.808 -0.8025 -0.3704  1.1675
  182SLPC   C3820907   0.419  -0.885   9.623  0.1659  0.6727  0.7135
  182SLPC   H8X20908   0.518  -0.836   9.636 -0.4876  1.7194  2.0338
  182SLPC   H8Y20909   0.349  -0.805   9.593 -1.2596 -0.9783 -0.6158
  182SLPC   C3920910   0.424  -1.002   9.517 -0.5757  0.1294 -0.2514
  182SLPC   H9X20911   0.462  -1.089   9.574 -0.7919  0.1294 -0.1024
  182SLPC   H9Y20912   0.498  -0.970   9.440  0.0781 -1.1496 -0.1704
  182SLPC  C31020913   0.292  -1.037   9.448 -0.3409  0.0590 -0.6634
  182SLPC  H10X20914   0.270  -0.951   9.381  1.5775  0.7330 -0.5056
  182SLPC  H10Y20915   0.216  -1.057   9.527  1.8020 -0.1365  1.4894
  182SLPC  C31120916   0.301  -1.166   9.365 -0.0917  1.2517 -0.3565
  182SLPC  H11X20917   0.215  -1.189   9.299  1.5721 -2.1093 -1.5623
  182SLPC  H11Y20918   0.297  -1.255   9.431 -2.7005 -0.2299 -2.3265
  182SLPC  C31220919   0.423  -1.176   9.266 -0.1668  0.2607 -0.0424
  182SLPC  H12X20920   0.510  -1.198   9.331 -0.9439 -0.3687  0.8044
  182SLPC  H12Y20921   0.442  -1.083   9.209  1.9686  0.5192  0.9827
  182SLPC  C31320922   0.409  -1.284   9.155  0.0541  0.0528 -0.0257
  182SLPC  H13X20923   0.315  -1.271   9.096  0.4895 -0.6713 -0.9010
  182SLPC  H13Y20924   0.405  -1.382   9.207  0.3354  0.9558  1.7882
  182SLPC  C31420925   0.535  -1.299   9.064 -0.2061  0.0995  0.1399
  182SLPC  H14X20926   0.622  -1.301   9.134 -0.8979  0.9828  1.0531
  182SLPC  H14Y20927   0.545  -1.206   9.006  0.4929  1.4019  2.2358
  182SLPC  C31520928   0.547  -1.434   8.981  0.2683 -0.6224 -0.4869
  182SLPC  H15X20929   0.452  -1.462   8.931 -0.8555 -0.6054  1.5333
  182SLPC  H15Y20930   0.571  -1.516   9.051 -2.1279 -0.6852  0.3464
  182SLPC  C31620931   0.653  -1.431   8.872 -0.1673 -0.0683 -0.3353
  182SLPC  H16X20932   0.665  -1.539   8.849 -3.8654 -0.3303 -1.6842
  182SLPC  H16Y20933   0.744  -1.400   8.928 -0.7387  0.9540  0.0640
  182SLPC  C31720934   0.641  -1.344   8.752  0.6232 -0.5638  0.0565
  182SLPC  H17X20935   0.609  -1.240   8.776 -0.5423 -1.1914  1.3234
  182SLPC  H17Y20936   0.555  -1.371   8.688 -0.4622  3.6081 -0.5719
  182SLPC  C31820937   0.772  -1.323   8.674  0.6002  0.1884  0.2656
  182SLPC  H18X20938   0.806  -1.414   8.621  0.2327  0.7793 -1.0245
  182SLPC  H18Y20939   0.853  -1.282   8.738  0.9534 -0.5870  0.3183
  182SLPC  H18Z20940   0.757  -1.247   8.594  1.1002  0.9541  0.8753
  183SLPC     N20941   4.041   5.820  10.945 -0.0363  0.5270  0.2267
  183SLPC   C1320942   4.028   5.909  11.059  0.2590 -0.8351  0.7024
  183SLPC  H13A20943   3.938   5.969  11.063  0.5944 -0.3518  4.0426
  183SLPC  H13B20944   4.035   5.862  11.156  4.1010  2.4252  2.3283
  183SLPC  H13C20945   4.113   5.976  11.051 -1.0312  0.7964 -0.0261
  183SLPC   C1420946   4.161   5.727  10.972  0.7511 -0.2510 -0.4017
  183SLPC  H14A20947   4.152   5.686  11.072  1.1600  1.0740  0.2050
  183SLPC  H14B20948   4.176   5.650  10.899 -0.5768 -0.4265 -0.5225
  183SLPC  H14C20949   4.253   5.783  10.973 -0.4852  1.8961  0.4731
  183SLPC   C1520950   4.073   5.899  10.822 -0.6921 -0.3077 -0.3750
  183SLPC  H15A20951   4.099   5.826  10.746  0.6766  0.3847 -0.5939
  183SLPC  H15B20952   3.986   5.958  10.795  0.2040  1.0909 -0.2660
  183SLPC  H15C20953   4.159   5.959  10.847  1.4319 -2.3312 -2.3972
  183SLPC   C1220954   3.913   5.729  10.930 -0.5157 -0.8202  0.0947
  183SLPC  H12A20955   3.888   5.682  11.024 -0.2566 -0.2020  0.4821
  183SLPC  H12B20956   3.936   5.651  10.859  1.3985 -0.9818  0.8309
  183SLPC   C1120957   3.778   5.800  10.891 -0.5955  0.0766 -0.4040
  183SLPC  H11A20958   3.706   5.716  10.889  1.5222 -1.8465  0.0244
  183SLPC  H11B20959   3.782   5.848  10.791 -2.0315 -2.0552 -1.5569
  183SLPC     P20960   3.638   6.004  10.985  0.2085  0.3006  0.2884
  183SLPC   O1320961   3.513   5.949  10.929  0.6459  0.3704 -0.1836
  183SLPC   O1420962   3.634   6.076  11.118 -0.0981 -0.6212  0.0108
  183SLPC   O1220963   3.740   5.880  10.998 -0.7525  0.5990 -0.2301
  183SLPC   O1120964   3.702   6.092  10.870 -0.0146 -0.4308  0.1361
  183SLPC    C120965   3.631   6.220  10.849 -0.0811  0.0821  0.1974
  183SLPC    HA20966   3.562   6.250  10.930 -2.2524 -0.8429 -1.2309
  183SLPC    HB20967   3.704   6.305  10.840 -0.4082  0.5854  1.9590
  183SLPC    C220968   3.547   6.214  10.712  0.6323 -0.3269 -0.0190
  183SLPC    HS20969   3.513   6.318  10.691  1.2392  0.2868  1.8443
  183SLPC   O2120970   3.436   6.129  10.724  0.0976  0.2124  0.5666
  183SLPC   C2120971   3.326   6.163  10.795  0.2626  0.2839  0.0434
  183SLPC   O2220972   3.302   6.272  10.841 -0.2424 -0.4055 -0.3466
  183SLPC   C2220973   3.229   6.039  10.792 -0.0315  0.2437 -0.3514
  183SLPC   H2R20974   3.288   5.948  10.818 -0.7630  0.1317  1.0070
  183SLPC   H2S20975   3.160   6.046  10.878 -0.2729 -0.9962 -0.4368
  183SLPC    C320976   3.638   6.164  10.597  0.2350  0.4280  0.8831
  183SLPC    HX20977   3.661   6.060  10.630  0.1037 -0.0204 -0.3829
  183SLPC    HY20978   3.728   6.229  10.599  0.1504  0.5440  0.9182
  183SLPC   O3120979   3.576   6.179  10.463  0.6210  1.0755  0.0433
  183SLPC   C3120980   3.499   6.066  10.436  0.0659 -0.5026  0.1591
  183SLPC   O3220981   3.497   5.966  10.508 -0.3601 -0.2123  0.5895
  183SLPC   C3220982   3.421   6.083  10.310 -0.4625 -0.0795 -0.0301
  183SLPC   H2X20983   3.321   6.127  10.330  0.9840  5.4600 -3.0865
  183SLPC   H2Y20984   3.408   5.979  10.271 -1.5402 -0.4442  1.2286
  183SLPC   C2320985   3.149   6.016  10.664 -0.4046 -0.1129 -1.0262
  183SLPC   H3R20986   3.218   6.043  10.581  1.7068  1.4006  1.0795
  183SLPC   H3S20987   3.063   6.085  10.674  0.2515  0.4932  1.1249
  183SLPC   C2420988   3.099   5.871  10.644 -0.0420 -0.1793  0.7066
  183SLPC   H4R20989   3.017   5.845  10.715 -1.5813 -0.8316 -1.2107
  183SLPC   H4S20990   3.186   5.804  10.663  1.0734  0.7806 -0.8105
  183SLPC   C2520991   3.060   5.850  10.499  0.2536 -0.1492 -0.5592
  183SLPC   H5R20992   3.139   5.867  10.423 -0.2270  0.5424 -0.9201
  183SLPC   H5S20993   2.977   5.923  10.481  1.4836  1.2817 -0.6008
  183SLPC   C2620994   3.016   5.701  10.490  0.1979 -0.5021  0.7302
  183SLPC   H6R20995   2.954   5.671  10.578 -0.9293 -1.5709 -0.3929
  183SLPC   H6S20996   3.107   5.639  10.483  0.6913  0.4057 -2.6733
  183SLPC   C2720997   2.922   5.667  10.372  0.5681 -0.8384 -0.8591
  183SLPC   H7R20998   2.832   5.733  10.369  0.5890 -0.8648 -2.2592
  183SLPC   H7S20999   2.890   5.561  10.375  1.9758 -1.3303 -2.0370
  183SLPC   C2821000   2.977   5.698  10.233  0.1821 -0.2926  0.2907
  183SLPC   H8R21001   3.068   5.635  10.223 -0.3547 -1.2995  1.4829
  183SLPC   H8S21002   3.018   5.801  10.237  1.1376 -0.5900 -1.1495
  183SLPC   C2921003   2.887   5.675  10.115 -0.0361  0.2991  0.3946
  183SLPC   H9R21004   2.792   5.623  10.137 -0.9302  2.7439  3.0146
  183SLPC  C21021005   2.914   5.730   9.989  0.2849  0.6109 -0.4984
  183SLPC  H10R21006   2.845   5.708   9.906 -0.1242 -0.4043  0.0980
  183SLPC  C21121007   3.035   5.812   9.952 -0.0016 -0.3408  0.5069
  183SLPC  H11R21008   3.090   5.772   9.863  1.1000  0.3490  0.8590
  183SLPC  H11S21009   3.112   5.790  10.029 -1.5555 -2.2446  1.6205
  183SLPC  C21221010   3.021   5.960   9.942  0.1622  0.3386  0.5800
  183SLPC  H12R21011   3.051   6.010  10.035 -0.2046  1.7487 -0.0281
  183SLPC  C21321012   2.958   6.025   9.845  0.5206 -0.8034 -0.9916
  183SLPC  H13R21013   2.954   6.135   9.844 -0.6588 -0.8177 -0.3737
  183SLPC  C21421014   2.888   5.968   9.720  0.4664 -0.1035  0.5448
  183SLPC  H14R21015   2.779   5.988   9.723  0.2933 -0.6270 -1.1221
  183SLPC  H14S21016   2.904   5.858   9.715 -0.1399 -0.1618 -3.7247
  183SLPC  C21521017   2.954   6.044   9.592  0.4435  0.3379 -0.4576
  183SLPC  H15R21018   3.049   6.002   9.552  0.4091 -0.0043 -0.1879
  183SLPC  H15S21019   2.976   6.150   9.618 -1.8240  0.8012 -0.2049
  183SLPC  C21621020   2.858   6.034   9.470 -0.5115 -1.1148 -0.4832
  183SLPC  H16R21021   2.756   6.074   9.485  0.2242  1.1625 -1.0366
  183SLPC  H16S21022   2.863   5.929   9.434  1.7115 -1.3157  0.2311
  183SLPC  C21721023   2.913   6.117   9.349 -0.4442  0.3657  0.0642
  183SLPC  H17R21024   3.023   6.103   9.338 -0.2525  2.0247 -0.3620
  183SLPC  H17S21025   2.911   6.226   9.371  0.9214  1.1015 -2.9217
  183SLPC  C21821026   2.835   6.076   9.229 -0.1744 -0.8885  0.0257
  183SLPC  H18R21027   2.887   6.129   9.146 -0.7466 -0.6239 -0.1636
  183SLPC  H18S21028   2.737   6.127   9.235  1.7336  3.1305  0.2830
  183SLPC  H18T21029   2.839   5.965   9.219  1.2321 -0.9309  0.8020
  183SLPC   C3321030   3.480   6.186  10.213  0.2513 -0.3909 -0.6187
  183SLPC   H3X21031   3.574   6.145  10.170  0.4955  0.5364 -1.0185
  183SLPC   H3Y21032   3.500   6.287  10.256 -1.6831  0.4147 -1.4629
  183SLPC   C3421033   3.379   6.197  10.094  0.5962  0.4095  0.2264
  183SLPC   H4X21034   3.280   6.232  10.130 -0.0705 -2.3715  1.3603
  183SLPC   H4Y21035   3.363   6.094  10.055 -0.2204  1.1956 -1.6671
  183SLPC   C3521036   3.431   6.277   9.973  0.4648 -0.1224 -0.5525
  183SLPC   H5X21037   3.537   6.244   9.975 -0.6969 -4.3408 -0.2022
  183SLPC   H5Y21038   3.417   6.387   9.978  0.6866 -0.0751 -0.9316
  183SLPC   C3621039   3.381   6.240   9.833 -0.0551 -0.4675  0.1378
  183SLPC   H6X21040   3.277   6.272   9.809  0.2182  0.7827  0.5501
  183SLPC   H6Y21041   3.388   6.130   9.825 -1.1597 -0.5750  0.4771
  183SLPC   C3721042   3.453   6.310   9.716  0.9944  0.4932 -0.2646
  183SLPC   H7X21043   3.563   6.297   9.721  1.4225  3.0841 -1.2163
  183SLPC   H7Y21044   3.437   6.420   9.719 -1.5430  0.3487 -3.3134
  183SLPC   C3821045   3.404   6.268   9.573  0.0757  0.2869  0.4437
  183SLPC   H8X21046   3.294   6.281   9.569  0.0980  0.9226  1.5627
  183SLPC   H8Y21047   3.420   6.158   9.561 -0.2000  0.1605  1.1585
  183SLPC   C3921048   3.475   6.341   9.460 -0.5756  0.4410 -0.3932
  183SLPC   H9X21049   3.584   6.324   9.461 -0.5524  0.4615 -1.6484
  183SLPC   H9Y21050   3.459   6.449   9.481 -0.4556  0.1475  1.4067
  183SLPC  C31021051   3.415   6.309   9.322 -0.0262 -0.6561 -0.0557
  183SLPC  H10X21052   3.312   6.350   9.315  0.5009  0.8189  0.5528
  183SLPC  H10Y21053   3.420   6.200   9.301 -0.4311 -0.9589  1.3100
  183SLPC  C31121054   3.506   6.371   9.210 -0.3935 -0.2424  0.5529
  183SLPC  H11X21055   3.599   6.311   9.219 -1.7770 -2.2993  1.8307
  183SLPC  H11Y21056   3.520   6.478   9.236 -0.6832 -0.0631 -0.0162
  183SLPC  C31221057   3.463   6.362   9.064  0.6706 -0.2026 -0.0043
  183SLPC  H12X21058   3.354   6.384   9.058  0.7238 -0.0978 -0.6235
  183SLPC  H12Y21059   3.463   6.258   9.025  1.0331 -1.0723  2.1461
  183SLPC  C31321060   3.528   6.465   8.973  0.4995  0.0360  0.3320
  183SLPC  H13X21061   3.639   6.473   8.985  0.3254  1.5566  1.2451
  183SLPC  H13Y21062   3.489   6.560   9.016  1.4880  1.2458 -1.3015
  183SLPC  C31421063   3.480   6.466   8.826  0.5615  0.3892 -0.2762
  183SLPC  H14X21064   3.380   6.513   8.813  0.6174  0.2531 -1.3037
  183SLPC  H14Y21065   3.486   6.364   8.782  1.6394  0.5520 -0.5275
  183SLPC  C31521066   3.568   6.556   8.734 -0.1835 -0.3830  0.7075
  183SLPC  H15X21067   3.674   6.538   8.758  0.4022  0.5386 -1.0148
  183SLPC  H15Y21068   3.544   6.660   8.765 -0.6171  0.6195 -2.6492
  183SLPC  C31621069   3.534   6.541   8.586 -0.2705 -0.2283  0.4067
  183SLPC  H16X21070   3.425   6.560   8.574  0.2135  1.9273 -1.1893
  183SLPC  H16Y21071   3.554   6.434   8.561 -2.8347 -0.6305 -0.2483
  183SLPC  C31721072   3.620   6.627   8.497  0.4974 -0.1549 -0.2952
  183SLPC  H17X21073   3.725   6.604   8.525  0.6813  0.9540  0.0109
  183SLPC  H17Y21074   3.619   6.733   8.532 -1.0844 -0.4426  0.6135
  183SLPC  C31821075   3.595   6.624   8.344  0.0132 -0.1972  0.0607
  183SLPC  H18X21076   3.685   6.663   8.293  1.1581  0.8658  2.7230
  183SLPC  H18Y21077   3.512   6.694   8.320  0.4275  0.9660  1.8687
  183SLPC  H18Z21078   3.567   6.522   8.308  1.4429 -0.7755  0.5106
  184SLPC     N21079   4.117   3.856  11.031  0.1457  0.0609 -0.1034
  184SLPC   C1321080   3.988   3.797  10.971 -0.0418  0.4364  0.0339
  184SLPC  H13A21081   3.900   3.850  11.005 -0.6896  0.0660 -1.0199
  184SLPC  H13B21082   3.982   3.803  10.864 -0.0509  0.8521  0.0557
  184SLPC  H13C21083   3.977   3.694  10.999  0.2720  0.5969  0.7896
  184SLPC   C1421084   4.225   3.759  11.025 -0.0984 -0.1341 -0.2118
  184SLPC  H14A21085   4.269   3.752  10.926  0.8788 -0.8352  0.2456
  184SLPC  H14B21086   4.310   3.783  11.088 -0.2257 -0.3811  0.0598
  184SLPC  H14C21087   4.197   3.659  11.056 -1.2710 -0.3349 -1.7804
  184SLPC   C1521088   4.090   3.884  11.179 -0.2486  0.1140  0.2923
  184SLPC  H15A21089   4.090   3.789  11.231  0.4854  0.2292  0.5174
  184SLPC  H15B21090   4.168   3.948  11.217 -0.3763  0.9208 -0.7604
  184SLPC  H15C21091   3.997   3.938  11.189 -0.1704  0.5231 -1.0673
  184SLPC   C1221092   4.149   3.991  10.959  0.3671  0.3746 -0.0523
  184SLPC  H12A21093   4.229   4.048  11.003 -0.2170  2.7182 -1.8189
  184SLPC  H12B21094   4.062   4.053  10.969 -0.5330 -0.7952 -0.4031
  184SLPC   C1121095   4.186   3.990  10.807 -0.0691  0.6180  0.3433
  184SLPC  H11A21096   4.288   3.955  10.781 -0.7462 -1.7754  0.6169
  184SLPC  H11B21097   4.195   4.092  10.766  1.2427  1.1689  1.9108
  184SLPC     P21098   3.960   4.003  10.684  0.3164  0.3229  0.2899
  184SLPC   O1321099   3.847   3.915  10.666 -0.4324  0.3180 -0.2473
  184SLPC   O1421100   3.933   4.106  10.784  0.2020 -0.3801 -0.1867
  184SLPC   O1221101   4.088   3.917  10.734  0.4223 -0.2664  0.0640
  184SLPC   O1121102   4.011   4.059  10.552 -0.2688 -0.3593  0.1769
  184SLPC    C121103   4.002   4.201  10.521  0.1836 -0.1990  0.2150
  184SLPC    HA21104   4.038   4.267  10.603  1.0781 -0.1273 -0.2180
  184SLPC    HB21105   4.060   4.235  10.432  0.4582  1.2516  0.9270
  184SLPC    C221106   3.849   4.238  10.503 -0.4040 -0.3523  0.4232
  184SLPC    HS21107   3.797   4.241  10.601 -1.2659 -0.1738 -0.0259
  184SLPC   O2121108   3.799   4.139  10.412  0.4422 -0.2757 -0.3491
  184SLPC   C2121109   3.663   4.126  10.409 -0.5847  0.6046 -0.6459
  184SLPC   O2221110   3.585   4.187  10.477 -0.2967  0.5275 -0.4042
  184SLPC   C2221111   3.625   4.010  10.322 -0.2179  0.4408  0.7775
  184SLPC   H2R21112   3.691   3.923  10.342  0.1996  0.3984 -0.6422
  184SLPC   H2S21113   3.524   3.975  10.353  0.5644 -0.5566  2.3122
  184SLPC    C321114   3.848   4.387  10.449  0.3519  0.3981 -0.2412
  184SLPC    HX21115   3.898   4.448  10.527  0.2220  1.5177 -1.0104
  184SLPC    HY21116   3.742   4.419  10.437 -1.0355 -2.4427  2.8335
  184SLPC   O3121117   3.925   4.389  10.326 -0.3805  0.5033  0.1308
  184SLPC   C3121118   3.865   4.350  10.220  0.9505  0.4811  0.7884
  184SLPC   O3221119   3.745   4.312  10.214 -0.0357 -0.2529 -0.0315
  184SLPC   C3221120   3.960   4.362  10.102 -0.3530  0.3074  0.0771
  184SLPC   H2X21121   4.035   4.281  10.114 -1.9271 -1.0534  1.2096
  184SLPC   H2Y21122   4.005   4.463  10.115  0.0411  0.4317 -1.9781
  184SLPC   C2321123   3.602   4.041  10.170  0.6135  0.1413  0.3404
  184SLPC   H3R21124   3.685   4.098  10.123  1.6366 -2.1931 -0.8279
  184SLPC   H3S21125   3.512   4.106  10.166  0.7347  0.2637 -0.5598
  184SLPC   C2421126   3.598   3.907  10.094 -0.8570 -0.7695  0.1777
  184SLPC   H4R21127   3.502   3.859  10.123 -1.9970  0.6665 -1.0193
  184SLPC   H4S21128   3.689   3.849  10.121  0.1631  1.3228  1.5650
  184SLPC   C2521129   3.592   3.917   9.940 -0.1092 -0.5418  0.0665
  184SLPC   H5R21130   3.575   3.821   9.887 -2.1636  1.0967 -2.4748
  184SLPC   H5S21131   3.693   3.946   9.904  1.0360 -2.0292  1.9155
  184SLPC   C2621132   3.493   4.022   9.891  0.1337  0.1868  0.2629
  184SLPC   H6R21133   3.541   4.122   9.901  1.0320 -0.0720 -1.2248
  184SLPC   H6S21134   3.406   4.023   9.959  1.2831  0.0133  1.7850
  184SLPC   C2721135   3.442   3.997   9.752  0.2087 -0.9424  0.1917
  184SLPC   H7R21136   3.428   3.888   9.735 -1.5777 -0.5852 -0.9118
  184SLPC   H7S21137   3.507   4.054   9.683 -0.4095 -1.2896 -0.7073
  184SLPC   C2821138   3.314   4.070   9.729  0.2482  0.2286  0.1004
  184SLPC   H8R21139   3.320   4.175   9.763  2.0462  0.6198 -1.3190
  184SLPC   H8S21140   3.224   4.023   9.776 -1.2273  3.7564  1.1385
  184SLPC   C2921141   3.272   4.075   9.587 -0.5156  0.2116 -0.2553
  184SLPC   H9R21142   3.190   4.005   9.568 -0.0363 -0.5917  0.5075
  184SLPC  C21021143   3.311   4.160   9.482  0.2959  0.6274  0.6859
  184SLPC  H10R21144   3.267   4.142   9.383 -1.5357 -0.9214  1.7220
  184SLPC  C21121145   3.419   4.262   9.485  0.2342  0.2194 -0.2893
  184SLPC  H11R21146   3.405   4.322   9.578 -0.9251 -1.0026  0.3690
  184SLPC  H11S21147   3.410   4.328   9.397  1.6117 -0.2500 -0.8151
  184SLPC  C21221148   3.566   4.215   9.483  0.7147  0.1962  0.0125
  184SLPC  H12R21149   3.617   4.203   9.579 -2.6570  0.3559  1.9940
  184SLPC  C21321150   3.630   4.182   9.376  0.2232  0.0752 -0.8296
  184SLPC  H13R21151   3.735   4.152   9.393  0.1049 -1.2607 -2.2180
  184SLPC  C21421152   3.586   4.175   9.231  0.1605  0.1341 -0.2634
  184SLPC  H14R21153   3.479   4.148   9.244  0.8367 -2.1423  1.4309
  184SLPC  H14S21154   3.638   4.093   9.178 -1.4416 -0.7109 -0.5985
  184SLPC  C21521155   3.609   4.304   9.153  0.3369  0.5146 -0.0029
  184SLPC  H15R21156   3.715   4.336   9.141  0.9181 -0.9516  0.8656
  184SLPC  H15S21157   3.558   4.389   9.203  1.7249  0.6222  1.3092
  184SLPC  C21621158   3.548   4.310   9.012  0.1089  0.4049  0.7788
  184SLPC  H16R21159   3.516   4.411   8.978 -0.2097 -0.1538 -0.6185
  184SLPC  H16S21160   3.453   4.253   9.017  0.0645  0.5851  3.3907
  184SLPC  C21721161   3.640   4.237   8.912 -0.4412 -0.0752  0.4580
  184SLPC  H17R21162   3.584   4.197   8.825  0.1278  0.3797 -0.1306
  184SLPC  H17S21163   3.675   4.150   8.971  0.6773 -0.2971 -0.5043
  184SLPC  C21821164   3.756   4.322   8.872 -0.2274 -0.2133  0.0740
  184SLPC  H18R21165   3.718   4.404   8.808  0.3553  0.7696  0.9474
  184SLPC  H18S21166   3.835   4.272   8.812  0.3840  1.1903 -0.3311
  184SLPC  H18T21167   3.800   4.377   8.958 -1.3236 -1.1579  1.2750
  184SLPC   C3321168   3.879   4.341   9.970 -0.0614 -0.2792  0.0518
  184SLPC   H3X21169   3.811   4.429   9.968 -0.4886 -0.5079  2.0010
  184SLPC   H3Y21170   3.813   4.253   9.958  1.6421 -1.5161 -0.7499
  184SLPC   C3421171   3.965   4.357   9.845 -1.1278 -0.2819 -0.7017
  184SLPC   H4X21172   4.062   4.305   9.861 -1.1858  0.2167  1.7105
  184SLPC   H4Y21173   3.996   4.463   9.845 -0.0247 -0.5825 -1.4893
  184SLPC   C3521174   3.904   4.322   9.712  0.0259  0.8339  0.6538
  184SLPC   H5X21175   3.808   4.376   9.696 -0.0906  1.3450  2.7535
  184SLPC   H5Y21176   3.873   4.216   9.713  3.0352 -0.1628 -0.8493
  184SLPC   C3621177   4.013   4.331   9.600 -0.4074  0.0299 -0.8307
  184SLPC   H6X21178   4.094   4.263   9.634 -0.5245 -0.8925 -2.3093
  184SLPC   H6Y21179   4.044   4.438   9.600  0.6881 -0.2627  0.6935
  184SLPC   C3721180   3.951   4.278   9.471 -0.0031  0.2351  1.0308
  184SLPC   H7X21181   3.861   4.338   9.445  1.1134  2.0423  1.1582
  184SLPC   H7Y21182   3.913   4.174   9.481  1.0311 -0.4400 -1.3548
  184SLPC   C3821183   4.060   4.285   9.358  0.0917  0.0143  0.0224
  184SLPC   H8X21184   4.135   4.203   9.371  0.6274  0.3330 -0.9108
  184SLPC   H8Y21185   4.122   4.377   9.362 -1.3002  1.0876 -1.7172
  184SLPC   C3921186   4.011   4.281   9.211 -0.4237  0.4415  0.1191
  184SLPC   H9X21187   3.944   4.369   9.202 -0.2796  0.6440  0.9855
  184SLPC   H9Y21188   3.946   4.192   9.198 -1.2769  0.9536  0.7619
  184SLPC  C31021189   4.120   4.292   9.098  0.7861  0.1679  0.4357
  184SLPC  H10X21190   4.211   4.348   9.132  2.1161 -0.9631 -1.0976
  184SLPC  H10Y21191   4.071   4.337   9.009  0.5108 -0.6055  0.1887
  184SLPC  C31121192   4.167   4.153   9.056  0.5606  0.4290  0.3178
  184SLPC  H11X21193   4.070   4.107   9.028  1.7533 -0.4971 -2.7802
  184SLPC  H11Y21194   4.200   4.111   9.154 -1.3775 -1.2103  0.3370
  184SLPC  C31221195   4.258   4.143   8.935 -0.1456  0.0303 -0.4965
  184SLPC  H12X21196   4.217   4.195   8.847  1.3229  0.1156 -1.1619
  184SLPC  H12Y21197   4.251   4.041   8.892  0.5957 -0.2265 -0.0326
  184SLPC  C31321198   4.402   4.183   8.969  0.6512  0.1806 -0.1042
  184SLPC  H13X21199   4.442   4.163   9.070  2.2469  1.1708 -0.4993
  184SLPC  H13Y21200   4.404   4.294   8.961 -2.3416  0.1990 -2.0031
  184SLPC  C31421201   4.499   4.140   8.862 -0.7917 -0.2586  0.2998
  184SLPC  H14X21202   4.514   4.030   8.858  1.9021 -0.0985  2.5462
  184SLPC  H14Y21203   4.595   4.183   8.899 -0.6310 -0.9965  0.7537
  184SLPC  C31521204   4.470   4.185   8.719 -0.0650 -0.2654  0.3873
  184SLPC  H15X21205   4.380   4.126   8.693  1.2801 -2.0451 -0.4251
  184SLPC  H15Y21206   4.546   4.156   8.643 -0.9437  0.5529 -0.8419
  184SLPC  C31621207   4.449   4.328   8.684 -0.0113 -0.6952  0.9026
  184SLPC  H16X21208   4.358   4.373   8.730 -1.1096  0.9739 -2.5602
  184SLPC  H16Y21209   4.435   4.328   8.574 -0.0700  2.7246  0.7967
  184SLPC  C31721210   4.571   4.417   8.702 -0.1818 -0.3724 -0.6501
  184SLPC  H17X21211   4.660   4.370   8.654 -0.0177  1.2579 -2.0927
  184SLPC  H17Y21212   4.578   4.439   8.810 -0.6362  1.3812 -0.9357
  184SLPC  C31821213   4.571   4.551   8.628  0.4354 -0.0140 -0.4465
  184SLPC  H18X21214   4.484   4.610   8.665 -0.0129  0.0281 -1.5416
  184SLPC  H18Y21215   4.571   4.553   8.517 -0.5953  0.5583 -0.4493
  184SLPC  H18Z21216   4.661   4.604   8.668  0.4311 -0.4507  0.1579
  185SLPC     N21217   2.246   2.154   6.653 -0.7746  0.0462  0.5162
  185SLPC   C1321218   2.179   2.213   6.767 -0.1587  0.1749  0.3525
  185SLPC  H13A21219   2.081   2.240   6.732  1.2587  2.1924 -2.4689
  185SLPC  H13B21220   2.172   2.140   6.846 -1.3287  1.2088  1.2637
  185SLPC  H13C21221   2.223   2.307   6.798  2.2780 -1.2685  1.6198
  185SLPC   C1421222   2.379   2.096   6.712  0.5794  0.5660  0.2518
  185SLPC  H14A21223   2.426   2.167   6.778 -0.4256  1.3140  0.1747
  185SLPC  H14B21224   2.367   2.002   6.764  1.6592  0.0295 -0.4218
  185SLPC  H14C21225   2.458   2.079   6.640  1.6690 -0.8117  1.6908
  185SLPC   C1521226   2.282   2.265   6.558 -0.6544 -0.1575 -0.2710
  185SLPC  H15A21227   2.316   2.229   6.462 -0.0653  2.1901 -1.0146
  185SLPC  H15B21228   2.203   2.337   6.550 -1.3121 -0.5498  1.9715
  185SLPC  H15C21229   2.365   2.319   6.601 -2.0045  0.8596  1.1479
  185SLPC   C1221230   2.165   2.045   6.590 -0.2747  0.2370  0.4057
  185SLPC  H12A21231   2.071   2.089   6.562 -0.1513  0.5098  0.4135
  185SLPC  H12B21232   2.143   1.982   6.676 -0.7997  2.1240  1.7255
  185SLPC   C1121233   2.217   1.968   6.471  0.2689  0.4523  0.7453
  185SLPC  H11A21234   2.316   1.923   6.492  0.3474  0.9047  1.3762
  185SLPC  H11B21235   2.231   2.037   6.385 -0.4220 -1.3322 -0.8664
  185SLPC     P21236   2.111   1.729   6.477 -0.1079  0.1753 -0.1460
  185SLPC   O1321237   2.017   1.650   6.395  0.0360 -0.5902  0.0403
  185SLPC   O1421238   2.246   1.676   6.507  0.4131 -0.2189  0.3022
  185SLPC   O1221239   2.125   1.873   6.422 -0.1091  0.1178  0.4877
  185SLPC   O1121240   2.051   1.748   6.622  0.4208 -0.0865  1.0398
  185SLPC    C121241   1.968   1.638   6.674 -0.6509 -0.5302  0.4327
  185SLPC    HA21242   1.894   1.691   6.737 -1.6558  0.9633 -1.8865
  185SLPC    HB21243   1.897   1.594   6.601  1.0573 -2.0471 -0.4070
  185SLPC    C221244   2.031   1.520   6.757 -0.6093 -0.1350  0.7021
  185SLPC    HS21245   1.957   1.437   6.758  0.6271 -1.2610  0.7661
  185SLPC   O2121246   2.062   1.567   6.884  0.0460 -0.1840  0.6741
  185SLPC   C2121247   1.968   1.584   6.969  0.1045 -0.0055  0.6673
  185SLPC   O2221248   1.853   1.551   6.955  0.0711  0.1511 -0.1372
  185SLPC   C2221249   2.012   1.660   7.096  0.4809 -0.0465 -0.3337
  185SLPC   H2R21250   2.028   1.767   7.068 -0.6152  0.1611 -0.2015
  185SLPC   H2S21251   1.924   1.673   7.162  0.6189 -0.4656 -0.0621
  185SLPC    C321252   2.162   1.466   6.698  0.8793 -0.6017  0.0706
  185SLPC    HX21253   2.242   1.544   6.694 -0.7132  1.1411  0.6701
  185SLPC    HY21254   2.135   1.441   6.593 -0.1985 -3.7732  0.9982
  185SLPC   O3121255   2.195   1.345   6.765  0.7421 -0.9059 -0.0684
  185SLPC   C3121256   2.308   1.323   6.825 -1.1224  0.2016 -0.2660
  185SLPC   O3221257   2.413   1.386   6.815  0.1878  0.4724  0.1423
  185SLPC   C3221258   2.290   1.202   6.930 -0.7380  0.2736 -0.6664
  185SLPC   H2X21259   2.383   1.148   6.902 -0.0719  1.1671 -0.2651
  185SLPC   H2Y21260   2.203   1.138   6.905 -0.6391 -0.4877  0.8161
  185SLPC   C2321261   2.140   1.610   7.172  0.7985  0.0994  0.2419
  185SLPC   H3R21262   2.237   1.633   7.123 -1.4249  3.3298 -3.2282
  185SLPC   H3S21263   2.138   1.499   7.182  0.0691 -0.0290 -1.1118
  185SLPC   C2421264   2.156   1.665   7.315  0.0608 -0.3349 -0.0063
  185SLPC   H4R21265   2.076   1.617   7.376 -0.1811 -0.6873 -0.5933
  185SLPC   H4S21266   2.145   1.775   7.303 -1.8567 -0.4908  0.0166
  185SLPC   C2521267   2.294   1.640   7.371 -0.0171  0.5223  0.0856
  185SLPC   H5R21268   2.372   1.687   7.308  3.2980 -2.5684  1.5222
  185SLPC   H5S21269   2.323   1.532   7.366  1.2974  0.8116  0.9865
  185SLPC   C2621270   2.307   1.693   7.513  0.0254 -0.6360 -0.4901
  185SLPC   H6R21271   2.388   1.639   7.567 -2.3827 -1.2523  2.8318
  185SLPC   H6S21272   2.212   1.679   7.569 -0.1976  1.2359 -0.3494
  185SLPC   C2721273   2.341   1.842   7.523 -0.1718  0.1075 -0.6423
  185SLPC   H7R21274   2.306   1.891   7.617  1.8313  0.5512 -0.0680
  185SLPC   H7S21275   2.292   1.896   7.439  0.1127  1.7241  0.1696
  185SLPC   C2821276   2.485   1.897   7.508  0.1394  0.7265  0.3317
  185SLPC   H8R21277   2.478   2.005   7.484 -1.7810  0.6148  0.2499
  185SLPC   H8S21278   2.517   1.853   7.411 -1.3714 -0.5812  0.3916
  185SLPC   C2921279   2.557   1.856   7.631 -0.8574 -0.5044 -0.2752
  185SLPC   H9R21280   2.525   1.910   7.721 -0.9220 -2.1904  0.7615
  185SLPC  C21021281   2.646   1.753   7.643 -0.0869  0.5195  0.4843
  185SLPC  H10R21282   2.699   1.734   7.737 -2.5820 -0.1514  1.8264
  185SLPC  C21121283   2.681   1.665   7.524 -0.1246 -0.3259  0.8419
  185SLPC  H11R21284   2.663   1.721   7.430  0.6342  3.1483  2.6083
  185SLPC  H11S21285   2.621   1.571   7.525 -1.7405  0.6763  1.1894
  185SLPC  C21221286   2.830   1.631   7.520  0.5433 -0.6900  0.4252
  185SLPC  H12R21287   2.892   1.720   7.499  0.0221 -0.4090  0.0486
  185SLPC  C21321288   2.887   1.517   7.557 -0.4064  0.5324 -0.6150
  185SLPC  H13R21289   2.995   1.493   7.557 -0.7082 -0.9681  0.0828
  185SLPC  C21421290   2.813   1.392   7.605 -0.2370 -0.3284  0.4769
  185SLPC  H14R21291   2.788   1.326   7.519 -1.4985 -0.7114  1.1135
  185SLPC  H14S21292   2.716   1.426   7.647 -0.7158 -0.1185 -0.7677
  185SLPC  C21521293   2.900   1.303   7.701  0.1757  0.1533  0.1615
  185SLPC  H15R21294   2.924   1.370   7.787  1.1674  1.2548 -0.9373
  185SLPC  H15S21295   2.998   1.281   7.654  0.2854 -1.5082  1.1125
  185SLPC  C21621296   2.823   1.184   7.756  0.2606  0.1826 -0.4440
  185SLPC  H16R21297   2.730   1.223   7.804  0.1986 -0.0022 -0.4134
  185SLPC  H16S21298   2.885   1.137   7.835 -0.6471  2.0614  1.5145
  185SLPC  C21721299   2.785   1.083   7.648 -0.7040  0.8366  0.0290
  185SLPC  H17R21300   2.872   1.061   7.582 -1.0809  1.6725 -0.7760
  185SLPC  H17S21301   2.715   1.125   7.572 -2.3169 -2.2054 -0.3559
  185SLPC  C21821302   2.732   0.956   7.702 -0.2188  0.9406  0.7927
  185SLPC  H18R21303   2.636   0.974   7.754 -0.6637 -1.2962  0.8258
  185SLPC  H18S21304   2.812   0.906   7.761  1.3516 -2.0143 -3.4211
  185SLPC  H18T21305   2.716   0.890   7.615  2.7332  0.3345  0.5853
  185SLPC   C3321306   2.292   1.245   7.085 -0.2533  0.3155  0.7099
  185SLPC   H3X21307   2.193   1.294   7.102 -0.5181  1.7561 -3.7457
  185SLPC   H3Y21308   2.374   1.319   7.094  1.1724 -1.2603  1.1246
  185SLPC   C3421309   2.306   1.123   7.177  0.0071 -0.4516 -0.1252
  185SLPC   H4X21310   2.413   1.091   7.178  0.6804  1.3485  3.2820
  185SLPC   H4Y21311   2.250   1.036   7.137  1.0555 -1.2037 -0.0071
  185SLPC   C3521312   2.267   1.141   7.328 -0.4410 -0.7726  0.4700
  185SLPC   H5X21313   2.252   1.046   7.384 -0.7002 -1.2778 -0.4258
  185SLPC   H5Y21314   2.169   1.192   7.324 -0.5635 -1.0511 -2.2512
  185SLPC   C3621315   2.369   1.232   7.395  0.0266  0.5853 -0.3946
  185SLPC   H6X21316   2.369   1.331   7.345 -1.2207  1.7476  1.7780
  185SLPC   H6Y21317   2.469   1.183   7.393 -0.3654 -0.2243 -0.7126
  185SLPC   C3721318   2.327   1.266   7.546 -0.7194 -0.3499  0.2031
  185SLPC   H7X21319   2.305   1.175   7.606  0.3951 -0.3463  0.6466
  185SLPC   H7Y21320   2.234   1.325   7.536  1.0177  2.2674 -1.8121
  185SLPC   C3821321   2.443   1.342   7.624 -0.0950  0.0185 -0.2756
  185SLPC   H8X21322   2.469   1.430   7.561  0.0053 -1.3048 -2.1283
  185SLPC   H8Y21323   2.523   1.272   7.656 -0.9869 -0.6367  0.5938
  185SLPC   C3921324   2.395   1.406   7.758 -0.3804  0.7520 -0.8432
  185SLPC   H9X21325   2.366   1.314   7.813  2.1564  1.2079  1.4374
  185SLPC   H9Y21326   2.310   1.474   7.733 -1.3464 -0.2127 -0.2511
  185SLPC  C31021327   2.495   1.474   7.856 -0.5017  0.6493 -0.2755
  185SLPC  H10X21328   2.577   1.517   7.793  1.3011 -0.6641  1.0714
  185SLPC  H10Y21329   2.556   1.402   7.915  0.6258  2.2585  0.6093
  185SLPC  C31121330   2.440   1.593   7.936  0.6879 -0.1413 -0.9498
  185SLPC  H11X21331   2.444   1.680   7.867 -1.1118  0.1744 -0.6890
  185SLPC  H11Y21332   2.513   1.609   8.019  0.0698  2.7756 -0.8686
  185SLPC  C31221333   2.284   1.594   7.976 -0.5715  0.2948  0.7484
  185SLPC  H12X21334   2.263   1.490   8.010 -2.3247  0.0536 -0.8930
  185SLPC  H12Y21335   2.222   1.616   7.887  0.8387 -3.3968 -1.3910
  185SLPC  C31321336   2.267   1.708   8.072  0.2653 -0.5916 -0.9056
  185SLPC  H13X21337   2.158   1.729   8.074  0.2643 -0.5484  1.3534
  185SLPC  H13Y21338   2.332   1.794   8.042 -1.9453  0.3872 -3.1955
  185SLPC  C31421339   2.308   1.676   8.216 -0.1452  0.7774 -0.0652
  185SLPC  H14X21340   2.419   1.676   8.210 -0.2289  0.7101 -3.0496
  185SLPC  H14Y21341   2.273   1.571   8.229 -1.0334  1.0982  0.1699
  185SLPC  C31521342   2.256   1.778   8.320  0.0560  0.1918  0.2458
  185SLPC  H15X21343   2.145   1.780   8.308 -0.1206 -1.2683  1.3525
  185SLPC  H15Y21344   2.281   1.884   8.298 -0.3901  0.5003  1.1646
  185SLPC  C31621345   2.293   1.744   8.461 -0.1011  0.1190 -0.1610
  185SLPC  H16X21346   2.257   1.647   8.500 -1.4866  0.7779  0.2612
  185SLPC  H16Y21347   2.237   1.813   8.528 -1.0531  0.5646 -1.3791
  185SLPC  C31721348   2.444   1.759   8.485 -0.2492  0.0483 -0.3915
  185SLPC  H17X21349   2.471   1.861   8.450 -1.1902  0.2076 -0.6843
  185SLPC  H17Y21350   2.498   1.680   8.428  0.6037 -1.2581  2.0714
  185SLPC  C31821351   2.497   1.729   8.626  0.1304 -0.6159 -0.6995
  185SLPC  H18X21352   2.608   1.728   8.622  0.0969 -1.8383 -2.9723
  185SLPC  H18Y21353   2.457   1.629   8.654 -0.0291 -0.3282  0.1241
  185SLPC  H18Z21354   2.464   1.807   8.698 -0.4391 -1.3490 -0.1535
  186SLPC     N21355   4.726   3.122   6.110  0.4397  0.0908 -0.3450
  186SLPC   C1321356   4.863   3.062   6.086  0.6989  0.5834  0.2950
  186SLPC  H13A21357   4.930   3.093   6.165 -0.3892  2.1731  0.6365
  186SLPC  H13B21358   4.847   2.955   6.080 -0.0744  0.7095  0.0840
  186SLPC  H13C21359   4.914   3.098   5.998  0.5817  0.5746  0.2239
  186SLPC   C1421360   4.639   3.120   5.979  0.1909 -0.1634  0.0719
  186SLPC  H14A21361   4.539   3.158   5.994  0.8259  1.8531 -0.5119
  186SLPC  H14B21362   4.696   3.171   5.903  0.1125  0.6903  0.5705
  186SLPC  H14C21363   4.615   3.018   5.953  0.7942 -0.4143  0.4581
  186SLPC   C1521364   4.749   3.260   6.137 -0.3637 -0.1236  0.0888
  186SLPC  H15A21365   4.792   3.266   6.236 -1.4743 -0.4094  0.6053
  186SLPC  H15B21366   4.827   3.290   6.068 -0.3040 -2.1435 -0.7989
  186SLPC  H15C21367   4.663   3.324   6.127  0.4673  0.9592 -0.3582
  186SLPC   C1221368   4.654   3.053   6.225  0.1599 -0.2117  0.3041
  186SLPC  H12A21369   4.649   2.948   6.203  0.3076  0.2018 -1.9411
  186SLPC  H12B21370   4.556   3.097   6.228 -0.5782 -1.4525 -2.5964
  186SLPC   C1121371   4.732   3.070   6.358  0.0950 -0.3707 -0.3312
  186SLPC  H11A21372   4.840   3.049   6.343  0.5128 -0.4870  2.3335
  186SLPC  H11B21373   4.685   2.994   6.425  3.4057 -1.7062  0.6694
  186SLPC     P21374   4.601   3.271   6.467 -0.4898  0.3958  0.0716
  186SLPC   O1321375   4.637   3.371   6.565  0.8228  0.6385  0.2100
  186SLPC   O1421376   4.515   3.314   6.358  0.0178 -0.0197  0.4493
  186SLPC   O1221377   4.731   3.202   6.412 -0.0424 -0.5523  0.1177
  186SLPC   O1121378   4.519   3.152   6.541  0.2329 -1.2077 -0.0316
  186SLPC    C121379   4.550   3.117   6.673  0.7190 -0.3544 -0.3084
  186SLPC    HA21380   4.523   3.011   6.692  1.6243 -0.4217  0.7090
  186SLPC    HB21381   4.659   3.129   6.690  0.5035  2.9940 -0.6275
  186SLPC    C221382   4.470   3.192   6.783  0.6790  0.4430 -0.6706
  186SLPC    HS21383   4.490   3.301   6.794  0.1184  0.4033  1.0311
  186SLPC   O2121384   4.490   3.126   6.912 -0.0070  0.2052 -0.2057
  186SLPC   C2121385   4.598   3.170   6.975 -0.1891 -0.9688 -0.4335
  186SLPC   O2221386   4.675   3.253   6.930 -0.6316 -0.1800  0.1251
  186SLPC   C2221387   4.616   3.095   7.106 -0.4009  0.0381 -0.7032
  186SLPC   H2R21388   4.523   3.121   7.161  0.0913 -0.7651  0.5385
  186SLPC   H2S21389   4.620   2.984   7.102 -0.1521 -0.1927  2.8080
  186SLPC    C321390   4.319   3.192   6.755  0.7217  0.0625 -0.1522
  186SLPC    HX21391   4.280   3.095   6.718  0.3808  0.1259  0.0316
  186SLPC    HY21392   4.299   3.259   6.669  1.0074  2.5422  1.6246
  186SLPC   O3121393   4.239   3.243   6.876 -0.0844 -0.1889  0.3247
  186SLPC   C3121394   4.127   3.185   6.908 -0.2672  0.3573  0.8830
  186SLPC   O3221395   4.069   3.098   6.844 -0.3219  1.2317 -0.0612
  186SLPC   C3221396   4.068   3.258   7.032 -0.2040  0.3665 -0.0154
  186SLPC   H2X21397   3.960   3.276   7.017 -0.7168 -1.3755  1.2669
  186SLPC   H2Y21398   4.114   3.357   7.050 -2.5482  1.3783  0.7436
  186SLPC   C2321399   4.734   3.161   7.182  0.2457  0.2356 -0.0429
  186SLPC   H3R21400   4.710   3.268   7.195 -2.2095 -0.4542  1.9052
  186SLPC   H3S21401   4.834   3.140   7.137  1.0095  1.7241  0.8605
  186SLPC   C2421402   4.720   3.115   7.332 -0.1439  0.7870 -0.2449
  186SLPC   H4R21403   4.614   3.130   7.363  0.2811 -1.5860  2.8919
  186SLPC   H4S21404   4.784   3.185   7.390 -0.8711  2.5769 -1.5459
  186SLPC   C2521405   4.766   2.974   7.365  0.4368 -0.2878  0.0943
  186SLPC   H5R21406   4.876   2.964   7.359  0.3813 -0.0777 -2.0354
  186SLPC   H5S21407   4.709   2.904   7.299 -1.2817  0.7987  0.3527
  186SLPC   C2621408   4.728   2.921   7.503  0.2122 -0.1374 -1.0617
  186SLPC   H6R21409   4.720   2.811   7.493  0.7648 -0.1791 -1.0756
  186SLPC   H6S21410   4.622   2.950   7.517 -0.1100  0.4547 -4.1507
  186SLPC   C2721411   4.815   2.970   7.622 -0.4132 -0.0255 -0.5076
  186SLPC   H7R21412   4.815   3.081   7.625  1.4073  0.0117 -0.7139
  186SLPC   H7S21413   4.911   2.914   7.611 -0.3071 -0.2450  1.2376
  186SLPC   C2821414   4.758   2.914   7.755 -0.2986 -0.0113  0.5289
  186SLPC   H8R21415   4.834   2.914   7.836 -0.0163 -1.5520  0.2954
  186SLPC   H8S21416   4.747   2.806   7.730  1.9554 -0.1101 -0.2041
  186SLPC   C2921417   4.632   2.973   7.806  0.2297  0.4165 -0.0189
  186SLPC   H9R21418   4.570   3.014   7.724  1.1200  0.1626 -0.8359
  186SLPC  C21021419   4.595   2.971   7.935  0.7181 -0.5527 -0.1861
  186SLPC  H10R21420   4.503   3.020   7.967  0.6631  0.7526 -2.1690
  186SLPC  C21121421   4.671   2.914   8.056 -0.0464  0.4163 -0.4751
  186SLPC  H11R21422   4.689   2.997   8.128 -1.2782 -1.5051  2.2122
  186SLPC  H11S21423   4.767   2.873   8.018 -0.7400 -0.3658 -1.4333
  186SLPC  C21221424   4.586   2.811   8.126  0.0163 -0.5765 -0.2640
  186SLPC  H12R21425   4.484   2.845   8.150 -0.2738 -0.3125 -1.7281
  186SLPC  C21321426   4.627   2.683   8.155  0.4726  0.8629 -0.0653
  186SLPC  H13R21427   4.553   2.609   8.190 -2.1498  2.3904 -2.0331
  186SLPC  C21421428   4.757   2.632   8.111 -0.5706 -0.0195 -0.8761
  186SLPC  H14R21429   4.766   2.656   8.003 -0.5303  1.1933 -0.6255
  186SLPC  H14S21430   4.769   2.522   8.121  1.2461  0.2090 -0.2621
  186SLPC  C21521431   4.882   2.684   8.193 -0.8673 -0.3713  0.2349
  186SLPC  H15R21432   4.881   2.795   8.195 -0.4789 -0.2409 -2.6806
  186SLPC  H15S21433   4.975   2.663   8.136  0.0815  3.9233 -0.1406
  186SLPC  C21621434   4.902   2.618   8.335 -0.3693 -0.2941  0.6864
  186SLPC  H16R21435   4.998   2.563   8.336 -0.9255 -1.2955 -0.0440
  186SLPC  H16S21436   4.832   2.533   8.342 -0.2943 -0.2959  1.4600
  186SLPC  C21721437   4.900   2.709   8.459  0.5179 -0.4195  0.0084
  186SLPC  H17R21438   4.802   2.762   8.464  0.4907 -0.3930 -0.6973
  186SLPC  H17S21439   4.981   2.785   8.453  1.3762 -1.1653  1.5278
  186SLPC  C21821440   4.917   2.643   8.591  0.0763 -0.6747  0.2509
  186SLPC  H18R21441   4.851   2.553   8.598  0.7884 -1.2915 -0.7696
  186SLPC  H18S21442   4.887   2.708   8.676  3.6075 -1.4405  2.2605
  186SLPC  H18T21443   5.018   2.597   8.587  0.2616 -0.2548  0.0584
  186SLPC   C3321444   4.089   3.167   7.156 -0.8679 -0.9399  0.1316
  186SLPC   H3X21445   4.048   3.065   7.140 -2.0233 -0.6097  0.8660
  186SLPC   H3Y21446   4.034   3.209   7.243 -2.0666 -3.5909  0.7616
  186SLPC   C3421447   4.238   3.172   7.191 -0.0814  0.3311  0.6270
  186SLPC   H4X21448   4.280   3.273   7.212  1.8402 -0.0076 -1.1648
  186SLPC   H4Y21449   4.292   3.139   7.099 -0.1248 -1.5296  1.2435
  186SLPC   C3521450   4.267   3.083   7.311 -0.1660  0.2817 -0.2096
  186SLPC   H5X21451   4.369   3.040   7.307 -0.8560 -1.3475 -0.8792
  186SLPC   H5Y21452   4.196   3.001   7.289 -1.9112  2.3276 -2.7317
  186SLPC   C3621453   4.221   3.152   7.441 -0.1022  0.5993 -0.3294
  186SLPC   H6X21454   4.113   3.179   7.430 -0.1130  1.1499  1.0075
  186SLPC   H6Y21455   4.269   3.251   7.430 -0.0302  0.4248 -1.7984
  186SLPC   C3721456   4.261   3.083   7.572 -0.1062 -0.1569 -0.0435
  186SLPC   H7X21457   4.370   3.100   7.586 -0.0722 -0.1773 -0.2726
  186SLPC   H7Y21458   4.256   2.973   7.563 -3.7299 -0.1343  0.2228
  186SLPC   C3821459   4.171   3.132   7.683 -0.5198  0.6427 -0.4099
  186SLPC   H8X21460   4.068   3.092   7.670 -1.5051  1.5438  3.4509
  186SLPC   H8Y21461   4.169   3.243   7.681  1.0792  0.7031 -2.0162
  186SLPC   C3921462   4.224   3.087   7.818  0.6077 -0.5202  0.3506
  186SLPC   H9X21463   4.329   3.122   7.828  0.3994  0.1333  0.3109
  186SLPC   H9Y21464   4.226   2.977   7.827  1.4370 -0.6401 -0.9369
  186SLPC  C31021465   4.132   3.141   7.929  0.4248  0.4412 -0.1817
  186SLPC  H10X21466   4.038   3.082   7.936 -0.0208  1.3062  1.5540
  186SLPC  H10Y21467   4.096   3.243   7.903 -2.5560 -0.7638 -1.2510
  186SLPC  C31121468   4.200   3.125   8.059 -0.7078 -0.3663 -0.3422
  186SLPC  H11X21469   4.282   3.200   8.057 -2.4450  1.6336 -3.2505
  186SLPC  H11Y21470   4.238   3.022   8.076 -1.6446 -0.2563  3.3095
  186SLPC  C31221471   4.101   3.152   8.178 -0.0954  0.0184 -0.1733
  186SLPC  H12X21472   4.018   3.078   8.175  0.7757 -1.0605  1.1031
  186SLPC  H12Y21473   4.047   3.245   8.151  1.8149  0.7210 -1.8060
  186SLPC  C31321474   4.177   3.159   8.305  0.2767  0.9543 -0.1108
  186SLPC  H13X21475   4.261   3.232   8.306  1.7025 -0.6085  0.0783
  186SLPC  H13Y21476   4.229   3.062   8.318 -0.3026  0.6030 -0.3885
  186SLPC  C31421477   4.101   3.167   8.436  0.2902  0.3780 -0.3255
  186SLPC  H14X21478   4.014   3.097   8.432 -0.5463  1.3158  0.6929
  186SLPC  H14Y21479   4.078   3.273   8.459 -2.9115  0.5402 -3.3953
  186SLPC  C31521480   4.199   3.129   8.551 -0.6550  0.0179  0.5683
  186SLPC  H15X21481   4.297   3.169   8.520 -0.3966 -1.9253 -1.4330
  186SLPC  H15Y21482   4.220   3.020   8.556 -0.3291 -0.0863 -1.7288
  186SLPC  C31621483   4.156   3.174   8.684 -0.4290 -0.1812  0.0157
  186SLPC  H16X21484   4.063   3.118   8.708 -0.6242  0.6377  1.2298
  186SLPC  H16Y21485   4.130   3.281   8.676  0.6029 -0.0263 -1.7192
  186SLPC  C31721486   4.254   3.138   8.800 -0.6313  0.3744  0.0065
  186SLPC  H17X21487   4.212   3.180   8.894 -0.3704 -0.2005  0.3829
  186SLPC  H17Y21488   4.347   3.196   8.784 -0.1720  0.0903  1.5314
  186SLPC  C31821489   4.286   2.986   8.820 -0.7623 -0.6841 -0.1707
  186SLPC  H18X21490   4.193   2.932   8.850 -1.0173 -1.8996 -2.8473
  186SLPC  H18Y21491   4.364   2.990   8.899  0.4423  0.2268 -1.3624
  186SLPC  H18Z21492   4.319   2.945   8.722 -1.8383 -1.0488 -0.3954
  187SLPC     N21493   3.899   6.635   6.205  0.0550  0.3430 -0.0532
  187SLPC   C1321494   3.889   6.653   6.057  0.3851 -0.6752 -0.2270
  187SLPC  H13A21495   3.954   6.733   6.024 -0.2902  0.0348  0.1133
  187SLPC  H13B21496   3.902   6.562   6.000 -0.7206 -0.5256 -0.7436
  187SLPC  H13C21497   3.792   6.689   6.026 -0.6615 -1.5445  1.8462
  187SLPC   C1421498   3.810   6.734   6.265 -0.1106  0.5885 -0.7054
  187SLPC  H14A21499   3.715   6.728   6.214 -0.3637 -1.1927 -0.0804
  187SLPC  H14B21500   3.789   6.717   6.370  0.6793 -0.1330 -0.6611
  187SLPC  H14C21501   3.845   6.836   6.265 -3.3829  1.9446  2.1534
  187SLPC   C1521502   4.041   6.661   6.246 -0.0371 -0.1315  0.0048
  187SLPC  H15A21503   4.117   6.601   6.198  1.5187  1.5876  0.1727
  187SLPC  H15B21504   4.065   6.760   6.211  1.2081 -0.5352 -0.3297
  187SLPC  H15C21505   4.069   6.668   6.351  1.3046 -3.5594  0.0049
  187SLPC   C1221506   3.853   6.491   6.241 -0.7430 -0.1887 -0.0154
  187SLPC  H12A21507   3.923   6.427   6.189  0.8718 -0.0027  1.8139
  187SLPC  H12B21508   3.753   6.468   6.209 -0.5511 -3.6511  1.4818
  187SLPC   C1121509   3.859   6.441   6.383  0.5985 -0.5037 -0.0983
  187SLPC  H11A21510   3.957   6.466   6.428  1.2137 -0.2015 -1.5488
  187SLPC  H11B21511   3.864   6.330   6.386  1.0742 -0.4658  1.7049
  187SLPC     P21512   3.773   6.494   6.615 -0.3365  0.0926 -0.4813
  187SLPC   O1321513   3.899   6.563   6.656 -0.6251 -0.2283  0.1981
  187SLPC   O1421514   3.644   6.548   6.668 -0.3843  0.4337 -0.2190
  187SLPC   O1221515   3.757   6.492   6.459 -0.1440 -0.4669  0.7621
  187SLPC   O1121516   3.773   6.338   6.645  0.2614 -0.4361  1.0433
  187SLPC    C121517   3.892   6.262   6.670  0.1108 -1.2208 -0.2607
  187SLPC    HA21518   3.893   6.166   6.615  1.8194 -1.1108 -0.4895
  187SLPC    HB21519   3.984   6.310   6.629 -1.4266  0.4035 -2.0214
  187SLPC    C221520   3.928   6.234   6.819 -0.4010  0.3415 -0.1201
  187SLPC    HS21521   3.863   6.147   6.844 -0.7239  0.5396 -0.2662
  187SLPC   O2121522   3.887   6.351   6.896  0.0645 -0.1920 -0.1292
  187SLPC   C2121523   3.789   6.340   6.982  0.1938  0.0252 -0.5191
  187SLPC   O2221524   3.746   6.238   7.029 -0.0189 -0.3870 -0.0295
  187SLPC   C2221525   3.728   6.473   7.011 -0.0181  0.5206 -0.1227
  187SLPC   H2R21526   3.724   6.515   6.908 -0.7052 -0.4740 -0.5171
  187SLPC   H2S21527   3.627   6.447   7.050  0.9946 -1.5409  1.3692
  187SLPC    C321528   4.079   6.202   6.840  0.1167 -0.0398 -0.3519
  187SLPC    HX21529   4.136   6.283   6.790  2.9010 -0.9701  1.0869
  187SLPC    HY21530   4.100   6.101   6.797  0.2457  0.0833 -0.5824
  187SLPC   O3121531   4.108   6.205   6.980 -0.2793  0.2002 -0.0656
  187SLPC   C3121532   4.131   6.327   7.033  0.3222  0.1619  0.6692
  187SLPC   O3221533   4.151   6.426   6.967  0.2625  0.2387 -0.1349
  187SLPC   C3221534   4.159   6.318   7.181  0.5107  0.2917  0.1225
  187SLPC   H2X21535   4.221   6.227   7.195  2.1535  1.3974  0.2807
  187SLPC   H2Y21536   4.067   6.290   7.236  1.8861 -0.7402  1.9931
  187SLPC   C2321537   3.804   6.569   7.113  0.2490  0.5301 -0.1627
  187SLPC   H3R21538   3.751   6.667   7.111 -1.5742 -0.4121  0.4751
  187SLPC   H3S21539   3.908   6.585   7.076  0.2479 -2.9007 -2.0907
  187SLPC   C2421540   3.803   6.507   7.255  0.0624  0.0866  0.3360
  187SLPC   H4R21541   3.863   6.414   7.254  0.2476  0.2070 -0.0170
  187SLPC   H4S21542   3.701   6.476   7.286  0.6338 -1.0571  1.1685
  187SLPC   C2521543   3.863   6.582   7.372 -0.1400 -0.8043 -0.5273
  187SLPC   H5R21544   3.819   6.684   7.374 -1.6015 -1.4274  1.1657
  187SLPC   H5S21545   3.973   6.592   7.360  0.0767 -2.7375 -0.4052
  187SLPC   C2621546   3.825   6.508   7.504  0.0026  0.4354  0.8871
  187SLPC   H6R21547   3.894   6.421   7.501  0.7836  1.0518  0.5136
  187SLPC   H6S21548   3.721   6.470   7.494  0.9200 -2.2070  0.6501
  187SLPC   C2721549   3.852   6.596   7.631 -0.1646  0.6304 -0.1860
  187SLPC   H7R21550   3.786   6.686   7.629 -1.9623 -0.6140  0.1762
  187SLPC   H7S21551   3.957   6.631   7.638 -0.1322  0.5836 -0.4247
  187SLPC   C2821552   3.811   6.524   7.757  0.0174 -0.2317 -0.5742
  187SLPC   H8R21553   3.711   6.480   7.734  0.7799 -3.0625  1.0840
  187SLPC   H8S21554   3.807   6.604   7.834 -1.1370  0.2167 -1.0783
  187SLPC   C2921555   3.906   6.420   7.798 -0.1673  0.3610  0.3020
  187SLPC   H9R21556   3.915   6.341   7.723  0.4083 -0.7012  1.4618
  187SLPC  C21021557   3.985   6.418   7.903  0.2557 -0.0540  0.2375
  187SLPC  H10R21558   4.048   6.330   7.920  1.8088  0.6142 -1.7090
  187SLPC  C21121559   3.998   6.530   8.004 -0.7874  0.1149 -0.1276
  187SLPC  H11R21560   3.912   6.597   7.982 -0.2467  0.2108 -2.1549
  187SLPC  H11S21561   4.087   6.585   7.969 -1.6546  0.0269 -2.7019
  187SLPC  C21221562   3.981   6.478   8.146  0.4958 -0.2072  0.4418
  187SLPC  H12R21563   3.880   6.468   8.190  0.6157  1.0468  1.0798
  187SLPC  C21321564   4.077   6.426   8.224  0.4395  0.0371  0.1159
  187SLPC  H13R21565   4.042   6.396   8.324  0.0336 -0.9225 -0.3022
  187SLPC  C21421566   4.225   6.416   8.186  0.5248  1.1064  0.6694
  187SLPC  H14R21567   4.256   6.506   8.129 -1.2986  0.5678 -1.2455
  187SLPC  H14S21568   4.242   6.332   8.116  1.0740  2.0275 -0.3273
  187SLPC  C21521569   4.305   6.378   8.312  0.5149 -0.4779  0.1700
  187SLPC  H15R21570   4.269   6.443   8.393 -2.3642 -0.0091 -1.3634
  187SLPC  H15S21571   4.411   6.406   8.297  0.1392  2.3235  2.0949
  187SLPC  C21621572   4.290   6.224   8.344  0.7082  0.3899  0.9375
  187SLPC  H16R21573   4.306   6.173   8.247  0.1030  0.1830  0.9415
  187SLPC  H16S21574   4.191   6.200   8.391 -0.6165  0.8323 -1.4763
  187SLPC  C21721575   4.396   6.179   8.442  0.5367 -1.0853 -0.1122
  187SLPC  H17R21576   4.368   6.222   8.540  1.6694  2.0820 -1.0737
  187SLPC  H17S21577   4.488   6.233   8.411  0.4204 -0.2680  0.9216
  187SLPC  C21821578   4.408   6.030   8.445 -0.1877 -0.0814 -0.8736
  187SLPC  H18R21579   4.485   5.995   8.373 -1.1305 -1.1009 -1.4165
  187SLPC  H18S21580   4.307   5.987   8.433 -0.6503  0.8525 -0.4305
  187SLPC  H18T21581   4.448   6.008   8.547 -2.0000 -2.0593 -0.5097
  187SLPC   C3321582   4.218   6.455   7.234  0.2792  1.0401 -0.5379
  187SLPC   H3X21583   4.166   6.543   7.191  0.3712  0.8225 -1.1139
  187SLPC   H3Y21584   4.316   6.458   7.182  1.4426 -2.0584  1.1770
  187SLPC   C3421585   4.232   6.461   7.381 -0.0548  0.1606 -0.2811
  187SLPC   H4X21586   4.132   6.481   7.425  0.9369 -0.4583  2.4974
  187SLPC   H4Y21587   4.305   6.540   7.412  0.7577 -0.3037 -0.9719
  187SLPC   C3521588   4.287   6.332   7.444  0.2431 -0.4913  0.9251
  187SLPC   H5X21589   4.349   6.288   7.363 -0.9833  2.4633 -1.8434
  187SLPC   H5Y21590   4.198   6.269   7.465 -1.2115  1.0940 -0.2320
  187SLPC   C3621591   4.377   6.355   7.564 -0.1706  0.8401 -0.1172
  187SLPC   H6X21592   4.460   6.427   7.544  0.2447  0.1363 -1.0524
  187SLPC   H6Y21593   4.412   6.252   7.586  0.2473  0.7582 -1.0929
  187SLPC   C3721594   4.299   6.399   7.689  0.2672 -0.0516  0.2599
  187SLPC   H7X21595   4.222   6.472   7.658 -0.0653 -0.5799 -0.1745
  187SLPC   H7Y21596   4.233   6.321   7.733 -0.0403  0.8832  1.5266
  187SLPC   C3821597   4.386   6.461   7.798  0.6889  0.3613 -0.1445
  187SLPC   H8X21598   4.313   6.490   7.877  0.0399 -0.6617 -0.3481
  187SLPC   H8Y21599   4.434   6.557   7.771 -1.2546  1.2833 -0.4828
  187SLPC   C3921600   4.480   6.356   7.855  0.0414 -0.2372 -0.2473
  187SLPC   H9X21601   4.544   6.320   7.771 -1.4087 -0.8214 -1.1429
  187SLPC   H9Y21602   4.418   6.267   7.877  0.1287 -0.3311 -0.3771
  187SLPC  C31021603   4.563   6.411   7.977  0.3430  0.7272  0.3796
  187SLPC  H10X21604   4.487   6.446   8.049 -0.1600 -0.7370  0.5926
  187SLPC  H10Y21605   4.634   6.493   7.950 -1.1339  2.3446  1.1970
  187SLPC  C31121606   4.643   6.299   8.045 -0.6223 -0.8430 -0.5774
  187SLPC  H11X21607   4.713   6.247   7.976  0.3250 -2.3860  1.4608
  187SLPC  H11Y21608   4.569   6.219   8.068  0.6594 -1.4563  1.7545
  187SLPC  C31221609   4.681   6.334   8.187  0.2948  0.3448 -0.8127
  187SLPC  H12X21610   4.593   6.373   8.243  0.3388 -0.8320  0.0974
  187SLPC  H12Y21611   4.761   6.412   8.185 -2.0110  2.8727 -1.1236
  187SLPC  C31321612   4.717   6.204   8.261 -0.1865  0.7246  0.0781
  187SLPC  H13X21613   4.796   6.157   8.198 -1.8954 -0.7156 -1.0831
  187SLPC  H13Y21614   4.635   6.130   8.253  3.2752 -3.6042  0.9994
  187SLPC  C31421615   4.776   6.229   8.398  0.1990  0.9800 -0.5461
  187SLPC  H14X21616   4.717   6.303   8.456  1.5966  1.0928  0.7703
  187SLPC  H14Y21617   4.880   6.261   8.374  0.2630  0.0868 -1.5538
  187SLPC  C31521618   4.781   6.103   8.486  0.2179  0.5142  1.1889
  187SLPC  H15X21619   4.855   6.031   8.444 -1.9503 -0.8497 -0.5784
  187SLPC  H15Y21620   4.679   6.063   8.499  0.6572 -0.2019  2.5721
  187SLPC  C31621621   4.822   6.138   8.624 -0.0299  0.0699 -0.2578
  187SLPC  H16X21622   4.738   6.198   8.665  0.8258  0.4210  1.0391
  187SLPC  H16Y21623   4.906   6.210   8.614  0.9769 -1.2905 -2.3885
  187SLPC  C31721624   4.865   6.015   8.703 -1.4570 -1.0402  0.4079
  187SLPC  H17X21625   4.793   5.931   8.688 -2.7139 -0.1651  1.2899
  187SLPC  H17Y21626   4.857   6.058   8.805 -1.4946  0.0777 -0.0560
  187SLPC  C31821627   5.008   5.974   8.669  0.1017  0.3757  0.4888
  187SLPC  H18X21628   5.032   5.934   8.569  2.1452  1.2181  0.6017
  187SLPC  H18Y21629   5.039   5.885   8.728  2.0369  0.4190 -0.3983
  187SLPC  H18Z21630   5.087   6.049   8.691  1.0214 -0.4454  0.0622
  188SLPC     N21631   4.677   1.191   6.264 -0.0423  0.6781  0.2419
  188SLPC   C1321632   4.689   1.163   6.119 -0.6554  0.6661 -0.0938
  188SLPC  H13A21633   4.608   1.209   6.064 -0.6539  2.1435  1.0712
  188SLPC  H13B21634   4.783   1.205   6.088  0.4845  1.1388  3.4519
  188SLPC  H13C21635   4.688   1.057   6.101 -0.1055  0.8487 -1.2579
  188SLPC   C1421636   4.644   1.339   6.279 -0.0374 -0.5897 -0.3336
  188SLPC  H14A21637   4.600   1.367   6.373 -0.6316  0.6505 -0.9607
  188SLPC  H14B21638   4.738   1.391   6.279 -0.7087  0.6584  0.7682
  188SLPC  H14C21639   4.582   1.372   6.196  0.6047 -0.2841 -0.6994
  188SLPC   C1521640   4.803   1.156   6.335 -0.2252 -0.3272 -0.4894
  188SLPC  H15A21641   4.839   1.061   6.299  2.3670 -0.3616  1.8779
  188SLPC  H15B21642   4.885   1.218   6.301  0.0710 -0.8140 -0.6784
  188SLPC  H15C21643   4.796   1.158   6.443  1.1030 -0.8998 -0.3824
  188SLPC   C1221644   4.562   1.106   6.315 -0.5555 -0.9525  0.5037
  188SLPC  H12A21645   4.590   1.002   6.320 -0.4166 -0.9199  0.4097
  188SLPC  H12B21646   4.485   1.118   6.241  0.2797 -0.3193 -0.2897
  188SLPC   C1121647   4.497   1.149   6.450 -0.0529  0.0615  0.2065
  188SLPC  H11A21648   4.467   1.256   6.444  1.3886  0.4163 -2.5413
  188SLPC  H11B21649   4.569   1.130   6.533 -0.2162 -2.8876 -0.2149
  188SLPC     P21650   4.369   0.944   6.551  0.3695  0.0140 -0.0245
  188SLPC   O1321651   4.232   0.905   6.589 -0.1158 -0.4546 -0.1046
  188SLPC   O1421652   4.449   0.840   6.490 -0.1403 -0.0159  0.4207
  188SLPC   O1221653   4.380   1.077   6.465  0.9310 -0.0501 -0.1739
  188SLPC   O1121654   4.437   0.981   6.684  0.5933  0.3919  0.0483
  188SLPC    C121655   4.513   0.894   6.760  0.2861 -0.7314  0.4761
  188SLPC    HA21656   4.496   0.789   6.729 -0.2888  0.0982 -2.3250
  188SLPC    HB21657   4.618   0.918   6.734  0.1720 -0.9274 -0.1738
  188SLPC    C221658   4.486   0.908   6.909  0.3915 -0.5119 -0.0431
  188SLPC    HS21659   4.548   0.835   6.965  1.2999 -0.5620 -1.0819
  188SLPC   O2121660   4.346   0.892   6.928 -0.4286  0.3567  0.8808
  188SLPC   C2121661   4.295   0.774   6.927  0.6997  1.1194 -0.0715
  188SLPC   O2221662   4.357   0.663   6.921  0.1339 -0.1411 -0.3239
  188SLPC   C2221663   4.148   0.768   6.932  0.0620 -0.2174  0.0256
  188SLPC   H2R21664   4.108   0.871   6.943  0.6409 -0.0194  0.3091
  188SLPC   H2S21665   4.117   0.716   6.839  3.4130 -1.8104 -0.3401
  188SLPC    C321666   4.518   1.058   6.952  0.1795 -0.3062  0.6431
  188SLPC    HX21667   4.453   1.127   6.894 -0.2230  2.5620  4.1573
  188SLPC    HY21668   4.619   1.089   6.917 -1.2097  4.6301  0.1791
  188SLPC   O3121669   4.518   1.069   7.097  0.0951 -0.4676  0.2043
  188SLPC   C3121670   4.431   1.155   7.142  0.5214 -0.6768  0.3008
  188SLPC   O3221671   4.341   1.212   7.081  0.2028  0.0183  0.9631
  188SLPC   C3221672   4.451   1.173   7.298  0.0869 -0.3708  0.1472
  188SLPC   H2X21673   4.520   1.259   7.310 -0.9686  0.3891  0.9539
  188SLPC   H2Y21674   4.493   1.085   7.353 -1.7341  0.1520  2.5654
  188SLPC   C2321675   4.095   0.680   7.046 -0.7872 -0.2517 -0.5076
  188SLPC   H3R21676   4.140   0.578   7.043 -0.4594 -0.1416  0.2527
  188SLPC   H3S21677   3.985   0.669   7.046 -0.8242  0.0735  0.1623
  188SLPC   C2421678   4.106   0.740   7.198 -0.2795 -0.5302  0.2493
  188SLPC   H4R21679   4.041   0.828   7.213 -0.7665 -0.6583 -0.9509
  188SLPC   H4S21680   4.211   0.768   7.217 -0.8281  1.8789 -0.0100
  188SLPC   C2521681   4.058   0.635   7.299 -0.4975 -0.6719  0.3293
  188SLPC   H5R21682   4.120   0.543   7.286  1.1984  0.6618 -1.5336
  188SLPC   H5S21683   3.952   0.605   7.281 -1.4764  1.0585  2.6811
  188SLPC   C2621684   4.063   0.686   7.441 -0.6985 -0.3506  0.2440
  188SLPC   H6R21685   3.990   0.633   7.506 -2.4708  2.1316  0.3994
  188SLPC   H6S21686   4.045   0.795   7.438  2.1265  0.1955 -2.0793
  188SLPC   C2721687   4.199   0.680   7.517 -0.2472  0.1105  0.4956
  188SLPC   H7R21688   4.183   0.748   7.604  5.0430  1.7212  0.5396
  188SLPC   H7S21689   4.268   0.737   7.451 -1.4038 -1.2161 -2.0057
  188SLPC   C2821690   4.256   0.547   7.545 -0.0355  0.6624 -0.1295
  188SLPC   H8R21691   4.354   0.546   7.598 -0.5493 -1.5042  0.8966
  188SLPC   H8S21692   4.265   0.491   7.450 -3.1743 -0.2839  0.0177
  188SLPC   C2921693   4.162   0.470   7.629 -1.0366 -0.2639 -0.2840
  188SLPC   H9R21694   4.069   0.448   7.575 -1.1218  0.4158 -0.4242
  188SLPC  C21021695   4.177   0.424   7.754 -0.8832  0.6030  0.0005
  188SLPC  H10R21696   4.101   0.352   7.788  0.5179 -1.6090 -1.3068
  188SLPC  C21121697   4.294   0.423   7.849  0.6605  0.7971  0.6854
  188SLPC  H11R21698   4.389   0.454   7.800  0.6408 -0.8366 -0.4717
  188SLPC  H11S21699   4.312   0.314   7.867  0.8235  0.4361 -1.3925
  188SLPC  C21221700   4.272   0.506   7.965 -0.0993 -0.7306  0.8022
  188SLPC  H12R21701   4.271   0.613   7.941  1.5717 -0.9091 -0.2153
  188SLPC  C21321702   4.294   0.458   8.086  0.2881 -0.1664 -0.1473
  188SLPC  H13R21703   4.266   0.530   8.165 -2.0788  0.4521 -1.4315
  188SLPC  C21421704   4.316   0.319   8.139 -0.4479 -0.1686 -0.3677
  188SLPC  H14R21705   4.425   0.307   8.157 -0.4116 -1.3508 -1.2312
  188SLPC  H14S21706   4.281   0.239   8.070  0.9469 -1.2272  0.1107
  188SLPC  C21521707   4.237   0.291   8.276  0.4523  0.4876  0.0461
  188SLPC  H15R21708   4.132   0.298   8.239 -0.1834  0.0910  1.7052
  188SLPC  H15S21709   4.245   0.376   8.346 -3.3014  1.4938 -0.5116
  188SLPC  C21621710   4.282   0.156   8.335 -0.4000 -0.1028  0.4544
  188SLPC  H16R21711   4.301   0.083   8.254 -0.8853  0.8662 -0.5554
  188SLPC  H16S21712   4.221   0.108   8.414  0.9274 -2.1167  0.3325
  188SLPC  C21721713   4.422   0.174   8.418  0.5139  0.3220 -0.2304
  188SLPC  H17R21714   4.494   0.191   8.335  0.5657 -2.5485 -0.8773
  188SLPC  H17S21715   4.455   0.079   8.465  1.8141  0.6801 -0.4015
  188SLPC  C21821716   4.427   0.288   8.522 -0.0056 -0.1418 -0.0489
  188SLPC  H18R21717   4.396   0.388   8.485  3.4363  0.3786 -1.9638
  188SLPC  H18S21718   4.521   0.286   8.581  0.9591  0.2089 -1.5200
  188SLPC  H18T21719   4.340   0.264   8.587  1.2852 -0.3643  1.6497
  188SLPC   C3321720   4.316   1.199   7.369 -0.2405 -0.0199  0.6292
  188SLPC   H3X21721   4.261   1.283   7.320  1.0861  0.3236 -0.3209
  188SLPC   H3Y21722   4.342   1.227   7.473 -3.8663 -1.7023  2.1562
  188SLPC   C3421723   4.233   1.075   7.375  0.3191 -0.8188  0.4204
  188SLPC   H4X21724   4.291   0.990   7.416 -0.6047 -2.0030 -0.6204
  188SLPC   H4Y21725   4.194   1.034   7.279 -1.0311 -0.8299  0.9474
  188SLPC   C3521726   4.121   1.085   7.477 -0.0133  0.4455 -0.0847
  188SLPC   H5X21727   4.054   0.997   7.468  1.3393 -0.4564 -2.0227
  188SLPC   H5Y21728   4.064   1.177   7.449  0.3802  0.2726 -1.5129
  188SLPC   C3621729   4.171   1.082   7.619  0.3008  0.9771  0.2234
  188SLPC   H6X21730   4.232   1.174   7.633  0.5797  0.6930  0.8999
  188SLPC   H6Y21731   4.234   0.991   7.621  1.1987  1.5982  0.6157
  188SLPC   C3721732   4.054   1.079   7.722 -0.7204  0.2334  0.7900
  188SLPC   H7X21733   3.978   1.012   7.677  1.1812 -1.6483  0.2706
  188SLPC   H7Y21734   4.016   1.184   7.719 -0.5296  0.2831 -0.2792
  188SLPC   C3821735   4.089   1.032   7.859  0.2718 -0.6185 -0.4168
  188SLPC   H8X21736   4.013   1.065   7.933 -1.0544  0.8404 -2.3606
  188SLPC   H8Y21737   4.177   1.089   7.898 -0.7708  0.8304 -0.1266
  188SLPC   C3921738   4.116   0.881   7.864 -0.6057 -0.5004 -0.2574
  188SLPC   H9X21739   4.223   0.873   7.836 -0.0958  0.2452  1.3243
  188SLPC   H9Y21740   4.045   0.846   7.786 -0.8099 -1.6392  0.4189
  188SLPC  C31021741   4.068   0.815   7.995  0.4269 -0.0350 -0.8131
  188SLPC  H10X21742   4.068   0.705   7.986  2.4717 -0.2548  1.0973
  188SLPC  H10Y21743   3.965   0.850   8.018  0.5721  1.0500 -1.6996
  188SLPC  C31121744   4.140   0.860   8.121  0.2069  0.2240 -0.1725
  188SLPC  H11X21745   4.151   0.970   8.127 -0.6247  0.2751  0.5983
  188SLPC  H11Y21746   4.243   0.818   8.125  0.1724  0.1782  0.3445
  188SLPC  C31221747   4.068   0.811   8.247 -0.9165  0.0480  0.3975
  188SLPC  H12X21748   3.989   0.884   8.276 -0.6084  0.6750 -0.3232
  188SLPC  H12Y21749   4.153   0.806   8.318  0.3202  1.7065 -0.8894
  188SLPC  C31321750   3.995   0.671   8.243 -0.5257  0.2373  0.5279
  188SLPC  H13X21751   4.055   0.601   8.182 -0.2493  1.6082 -0.8545
  188SLPC  H13Y21752   3.898   0.684   8.191  1.0242  1.5524 -2.2899
  188SLPC  C31421753   3.956   0.630   8.386  0.3462 -0.2282  0.1478
  188SLPC  H14X21754   3.890   0.706   8.434  0.6597  0.3923 -0.3841
  188SLPC  H14Y21755   4.038   0.627   8.461 -0.5517  1.5438  1.2719
  188SLPC  C31521756   3.877   0.498   8.382  0.6542  0.2710 -0.7221
  188SLPC  H15X21757   3.934   0.423   8.323  0.2162 -1.0166  0.4344
  188SLPC  H15Y21758   3.782   0.510   8.327  0.5778  0.8482 -0.4711
  188SLPC  C31621759   3.830   0.450   8.526 -0.1761  0.4398  0.4381
  188SLPC  H16X21760   3.778   0.530   8.582 -0.3776  0.4375  0.2551
  188SLPC  H16Y21761   3.923   0.434   8.584 -0.8887 -0.3408  1.3873
  188SLPC  C31721762   3.756   0.315   8.520 -0.5902 -0.5649  0.0670
  188SLPC  H17X21763   3.742   0.297   8.629 -2.9623 -0.4262 -0.1480
  188SLPC  H17Y21764   3.826   0.244   8.471  0.2960  0.1466  0.2723
  188SLPC  C31821765   3.617   0.326   8.457 -0.3374 -0.0358  0.5498
  188SLPC  H18X21766   3.623   0.336   8.347 -1.2310  1.6080  0.6282
  188SLPC  H18Y21767   3.565   0.417   8.494  0.2411  0.3094  0.5218
  188SLPC  H18Z21768   3.564   0.230   8.474 -0.8928 -0.0540 -1.1473
  189SLPC     N21769   1.434   4.285   6.202  0.3090  0.5568  0.2865
  189SLPC   C1321770   1.421   4.137   6.221  0.1389 -0.2566  0.5129
  189SLPC  H13A21771   1.437   4.105   6.323 -1.2081 -1.1991  0.4515
  189SLPC  H13B21772   1.320   4.102   6.204 -1.7976  3.1272  3.6365
  189SLPC  H13C21773   1.497   4.088   6.162 -0.7663 -2.0482  0.7543
  189SLPC   C1421774   1.403   4.320   6.063 -0.2530 -0.3244  0.8866
  189SLPC  H14A21775   1.437   4.244   5.995 -0.2401 -0.2670  0.8291
  189SLPC  H14B21776   1.297   4.330   6.044 -0.0898 -1.0650 -0.4947
  189SLPC  H14C21777   1.462   4.407   6.036 -0.1873 -0.1947  1.4359
  189SLPC   C1521778   1.574   4.312   6.227 -0.4254  0.1287  0.5293
  189SLPC  H15A21779   1.642   4.257   6.163  0.6698  1.2119  0.7441
  189SLPC  H15B21780   1.607   4.411   6.199  0.9658  0.0497  1.7440
  189SLPC  H15C21781   1.605   4.291   6.328 -2.3014 -0.5972  1.0042
  189SLPC   C1221782   1.348   4.367   6.295  0.6300  0.2878 -0.2973
  189SLPC  H12A21783   1.247   4.344   6.264  0.6521 -0.0928 -0.0810
  189SLPC  H12B21784   1.372   4.470   6.272  1.7919 -0.1830 -1.2923
  189SLPC   C1121785   1.363   4.341   6.447  0.3579 -0.0546  0.0715
  189SLPC  H11A21786   1.310   4.422   6.500 -0.5517 -0.7916  0.3242
  189SLPC  H11B21787   1.471   4.344   6.472 -0.0994  1.9637  2.0946
  189SLPC     P21788   1.152   4.190   6.502 -0.4773  0.0231  0.4310
  189SLPC   O1321789   1.075   4.317   6.501  0.5124 -0.5753 -0.4501
  189SLPC   O1421790   1.108   4.090   6.398 -0.8265 -0.2765  0.2334
  189SLPC   O1221791   1.307   4.208   6.486  0.1276  0.2593 -0.4358
  189SLPC   O1121792   1.145   4.115   6.640  0.0783  0.3521  0.1513
  189SLPC    C121793   1.036   4.162   6.722  0.0084 -0.6365  0.2936
  189SLPC    HA21794   0.952   4.193   6.657  2.7058  0.2673 -3.0404
  189SLPC    HB21795   1.008   4.089   6.801  1.2922  0.6570  2.0329
  189SLPC    C221796   1.091   4.285   6.801 -0.2611  0.1461  0.2042
  189SLPC    HS21797   1.132   4.359   6.729  0.0256  0.1941  0.4128
  189SLPC   O2121798   1.193   4.242   6.895 -0.3034  0.2980  0.4631
  189SLPC   C2121799   1.259   4.334   6.959 -0.3344  0.3091  0.1055
  189SLPC   O2221800   1.239   4.455   6.960 -0.0448 -0.2668 -0.5473
  189SLPC   C2221801   1.389   4.265   7.004 -0.1690 -1.0124  0.0088
  189SLPC   H2R21802   1.437   4.209   6.921  1.8521 -2.4179  2.0215
  189SLPC   H2S21803   1.456   4.349   7.033 -2.3812  0.8013  0.1574
  189SLPC    C321804   0.982   4.377   6.871 -0.0410  0.4672 -0.6760
  189SLPC    HX21805   0.895   4.387   6.803  1.2625 -1.3446 -2.7139
  189SLPC    HY21806   1.030   4.477   6.875  0.5222  0.1906 -0.3907
  189SLPC   O3121807   0.946   4.329   7.006 -0.4049  0.4800  0.3791
  189SLPC   C3121808   0.856   4.225   6.997  0.2187  0.4623  0.2659
  189SLPC   O3221809   0.809   4.181   6.892 -0.1375 -0.6403  0.3510
  189SLPC   C3221810   0.822   4.168   7.141 -1.0308  0.5193 -0.2653
  189SLPC   H2X21811   0.863   4.065   7.132  0.7624  0.9702  1.9847
  189SLPC   H2Y21812   0.712   4.154   7.150 -0.8569 -1.4094 -0.6857
  189SLPC   C2321813   1.361   4.171   7.129  0.3453 -0.5158  0.9981
  189SLPC   H3R21814   1.296   4.086   7.100  0.3003  0.0199 -0.5676
  189SLPC   H3S21815   1.322   4.241   7.206 -3.0017  0.7712 -1.6248
  189SLPC   C2421816   1.496   4.128   7.182 -0.4119  0.0588 -0.4619
  189SLPC   H4R21817   1.549   4.088   7.092 -0.4469  0.4560 -0.6606
  189SLPC   H4S21818   1.488   4.048   7.258  1.0866  0.7950  0.5205
  189SLPC   C2521819   1.580   4.234   7.251 -0.0786  0.0969  0.0252
  189SLPC   H5R21820   1.562   4.335   7.208  3.0602 -0.1849 -2.3049
  189SLPC   H5S21821   1.684   4.202   7.229 -0.1881  0.0267 -0.4105
  189SLPC   C2621822   1.564   4.241   7.403 -1.1061  0.2898  0.2220
  189SLPC   H6R21823   1.455   4.242   7.423 -1.3633  0.4727 -1.1113
  189SLPC   H6S21824   1.618   4.333   7.433  0.5935 -1.1452  1.8143
  189SLPC   C2721825   1.618   4.129   7.490 -0.3628 -0.1873  0.2131
  189SLPC   H7R21826   1.701   4.088   7.428 -0.8177  0.2376 -0.7055
  189SLPC   H7S21827   1.549   4.042   7.503 -0.1377 -0.7133 -1.7470
  189SLPC   C2821828   1.679   4.171   7.624 -0.1668 -0.7565 -0.9602
  189SLPC   H8R21829   1.756   4.249   7.606  1.2529 -1.6508  0.7899
  189SLPC   H8S21830   1.728   4.086   7.675 -2.3745 -0.5839  1.6767
  189SLPC   C2921831   1.567   4.217   7.721  0.4494 -0.7196  0.5419
  189SLPC   H9R21832   1.483   4.249   7.658  0.9110 -0.6701 -0.0558
  189SLPC  C21021833   1.561   4.230   7.855 -0.3767 -0.2262  0.0262
  189SLPC  H10R21834   1.466   4.240   7.908 -0.8041 -0.7571 -0.6222
  189SLPC  C21121835   1.677   4.212   7.952 -0.0082 -0.5977 -0.1968
  189SLPC  H11R21836   1.699   4.310   8.001  1.1965 -1.8699  1.9727
  189SLPC  H11S21837   1.769   4.184   7.896 -2.0019 -3.2373 -2.4461
  189SLPC  C21221838   1.652   4.110   8.059  0.3938 -0.9617  0.3130
  189SLPC  H12R21839   1.597   4.022   8.025 -0.4714  0.0052 -0.8620
  189SLPC  C21321840   1.697   4.112   8.183 -0.1621  0.5670 -0.5834
  189SLPC  H13R21841   1.674   4.028   8.250 -1.0974  3.0724  2.4596
  189SLPC  C21421842   1.787   4.206   8.254 -0.1075 -0.4839  0.4082
  189SLPC  H14R21843   1.825   4.285   8.187 -0.3893  0.4634  1.3422
  189SLPC  H14S21844   1.883   4.157   8.282  1.1656 -0.1281 -2.8319
  189SLPC  C21521845   1.724   4.268   8.385 -0.4239 -0.1093 -0.4084
  189SLPC  H15R21846   1.725   4.198   8.472 -0.3454  0.8210  0.3495
  189SLPC  H15S21847   1.621   4.300   8.363 -0.3119  0.9885  0.5567
  189SLPC  C21621848   1.810   4.389   8.438 -0.2411 -0.4549  0.2922
  189SLPC  H16R21849   1.838   4.464   8.362  2.8551 -0.5806  1.1861
  189SLPC  H16S21850   1.907   4.346   8.471  0.3924  0.2673 -0.5954
  189SLPC  C21721851   1.750   4.458   8.564  0.5019  1.0196  0.1139
  189SLPC  H17R21852   1.735   4.373   8.634  1.1326  1.7445  1.1409
  189SLPC  H17S21853   1.648   4.496   8.538 -1.1034 -3.7406 -1.6781
  189SLPC  C21821854   1.840   4.548   8.649  0.1757 -0.1152 -0.0689
  189SLPC  H18R21855   1.764   4.602   8.708 -1.5001 -0.6718 -1.6283
  189SLPC  H18S21856   1.901   4.626   8.598  1.0413 -0.4130  0.4878
  189SLPC  H18T21857   1.896   4.483   8.720  2.6540  0.6778 -1.1643
  189SLPC   C3321858   0.874   4.261   7.257  0.2576  0.3051  0.8110
  189SLPC   H3X21859   0.836   4.365   7.250  0.2828  0.2566 -0.0858
  189SLPC   H3Y21860   0.984   4.256   7.262  0.1529 -1.5229  2.5022
  189SLPC   C3421861   0.823   4.211   7.398  0.2513  0.2095  0.7512
  189SLPC   H4X21862   0.836   4.100   7.393  0.7392  0.3322 -2.0935
  189SLPC   H4Y21863   0.715   4.234   7.389  0.0020 -1.3662 -1.1213
  189SLPC   C3521864   0.861   4.283   7.527 -0.2135 -0.2053  0.6968
  189SLPC   H5X21865   0.900   4.384   7.501  1.3790 -1.4205 -2.1767
  189SLPC   H5Y21866   0.954   4.237   7.566 -0.5156 -1.7053 -0.2787
  189SLPC   C3621867   0.747   4.280   7.635  0.3443 -0.1979 -0.1176
  189SLPC   H6X21868   0.713   4.174   7.641 -0.3944 -0.0602 -1.4455
  189SLPC   H6Y21869   0.664   4.342   7.595 -0.4700 -2.5370 -2.2710
  189SLPC   C3721870   0.791   4.328   7.771 -0.1078  0.5307  0.4060
  189SLPC   H7X21871   0.847   4.423   7.753 -1.0816  0.9876 -0.3239
  189SLPC   H7Y21872   0.870   4.261   7.811 -0.6030 -0.0331  0.4481
  189SLPC   C3821873   0.690   4.345   7.877  0.4988  0.0876  0.5114
  189SLPC   H8X21874   0.639   4.247   7.887  0.0342  0.3659  0.9209
  189SLPC   H8Y21875   0.615   4.415   7.834 -1.0226 -3.2078 -2.6683
  189SLPC   C3921876   0.734   4.390   8.016 -0.1180  0.3274  0.0835
  189SLPC   H9X21877   0.645   4.420   8.075  1.4748  2.1158  1.7326
  189SLPC   H9Y21878   0.791   4.483   7.995  0.3210 -0.1389 -0.8815
  189SLPC  C31021879   0.830   4.297   8.097 -0.7810 -0.2644 -0.0530
  189SLPC  H10X21880   0.906   4.244   8.036 -0.9554 -2.2143  1.3441
  189SLPC  H10Y21881   0.759   4.223   8.139 -2.3770  1.6990  0.9306
  189SLPC  C31121882   0.902   4.370   8.205 -0.4009  0.3508  0.4758
  189SLPC  H11X21883   0.973   4.446   8.167  1.8767 -1.5215  0.7860
  189SLPC  H11Y21884   0.964   4.297   8.261 -2.3894 -0.4172  1.7596
  189SLPC  C31221885   0.815   4.436   8.306 -0.3616 -0.0491 -0.4336
  189SLPC  H12X21886   0.726   4.371   8.323 -0.7685  0.3060 -1.1284
  189SLPC  H12Y21887   0.772   4.531   8.268 -2.0145 -0.6514 -0.1657
  189SLPC  C31321888   0.894   4.479   8.431  0.5251  0.4639 -0.4045
  189SLPC  H13X21889   0.972   4.549   8.392 -0.2228  1.9445  0.6374
  189SLPC  H13Y21890   0.941   4.384   8.464 -1.5146  0.0273  1.4802
  189SLPC  C31421891   0.806   4.527   8.551 -0.7525  0.0349 -0.2734
  189SLPC  H14X21892   0.722   4.455   8.564 -0.7867  0.4371  2.4617
  189SLPC  H14Y21893   0.766   4.628   8.526 -1.1669 -0.1022 -0.1813
  189SLPC  C31521894   0.877   4.551   8.683 -0.1691  0.3261 -0.2371
  189SLPC  H15X21895   0.976   4.500   8.689  0.5662  1.7925  0.6972
  189SLPC  H15Y21896   0.811   4.523   8.767  0.7078  1.3853  0.8420
  189SLPC  C31621897   0.905   4.704   8.696  0.2720 -0.4073 -0.2580
  189SLPC  H16X21898   0.810   4.762   8.700  1.0710  0.8710  1.6780
  189SLPC  H16Y21899   0.958   4.740   8.606  0.7619  0.0203  0.1923
  189SLPC  C31721900   0.995   4.732   8.816  0.3927  0.2773 -0.0161
  189SLPC  H17X21901   1.033   4.836   8.805  1.8933 -0.4143 -1.9482
  189SLPC  H17Y21902   1.091   4.681   8.794 -0.7589 -1.7949 -0.5868
  189SLPC  C31821903   0.946   4.689   8.953  0.1013 -0.8634  0.8649
  189SLPC  H18X21904   1.036   4.693   9.016  0.9880 -1.2925 -0.3360
  189SLPC  H18Y21905   0.924   4.580   8.953  0.4595 -0.9541 -0.5359
  189SLPC  H18Z21906   0.867   4.747   9.006 -1.9799 -2.0737 -0.7591
  190SLPC     N21907   1.389   2.874   6.356 -0.7190  0.6200  0.5896
  190SLPC   C1321908   1.486   2.830   6.244 -0.0268  0.1367  0.0714
  190SLPC  H13A21909   1.449   2.753   6.178  2.4625 -1.3318  0.2562
  190SLPC  H13B21910   1.504   2.915   6.180 -1.3246 -0.0072 -0.5037
  190SLPC  H13C21911   1.578   2.804   6.295 -0.8563  0.4561  1.8201
  190SLPC   C1421912   1.273   2.928   6.292  0.4599 -0.1362 -0.4252
  190SLPC  H14A21913   1.188   2.922   6.359  1.3374  1.3412  0.8894
  190SLPC  H14B21914   1.293   3.027   6.252  1.7487 -1.0650 -2.2363
  190SLPC  H14C21915   1.241   2.868   6.208 -1.6422  1.6591 -0.9914
  190SLPC   C1521916   1.462   2.983   6.430 -0.2855 -1.0686  0.2899
  190SLPC  H15A21917   1.412   3.015   6.520  0.3175  1.3369 -0.1508
  190SLPC  H15B21918   1.562   2.957   6.461 -0.1418  0.1873  0.9507
  190SLPC  H15C21919   1.473   3.062   6.357  0.1278  1.6479  3.0627
  190SLPC   C1221920   1.371   2.753   6.446 -0.6529 -0.1700 -0.0403
  190SLPC  H12A21921   1.466   2.714   6.481 -1.1484 -0.1502  1.4055
  190SLPC  H12B21922   1.332   2.674   6.384  1.9231 -0.1628 -1.8073
  190SLPC   C1121923   1.290   2.777   6.575  0.3938 -0.1898 -0.3475
  190SLPC  H11A21924   1.338   2.866   6.622  1.7766 -1.4823  0.7865
  190SLPC  H11B21925   1.291   2.691   6.644  2.0133  0.9283  1.1049
  190SLPC     P21926   1.046   2.719   6.499 -0.1299  0.1598 -0.3465
  190SLPC   O1321927   0.952   2.789   6.412  0.2487  0.2476 -0.1743
  190SLPC   O1421928   1.098   2.589   6.452  0.1156 -0.0092 -0.1261
  190SLPC   O1221929   1.159   2.817   6.533  0.0886 -0.0137 -0.0199
  190SLPC   O1121930   0.965   2.699   6.636 -0.3242  0.9748  0.1283
  190SLPC    C121931   0.935   2.804   6.729 -0.2944  0.7475 -0.2720
  190SLPC    HA21932   0.943   2.907   6.688  1.8901  1.0307  0.7246
  190SLPC    HB21933   0.831   2.798   6.768 -1.0309 -1.8746 -2.3028
  190SLPC    C221934   1.051   2.810   6.841  0.1491 -0.7167 -0.1320
  190SLPC    HS21935   1.149   2.813   6.789  0.2658 -2.5770 -0.0585
  190SLPC   O2121936   1.036   2.692   6.924  0.3084 -0.3740 -0.1289
  190SLPC   C2121937   1.155   2.645   6.967  0.1271  0.1147  0.0127
  190SLPC   O2221938   1.260   2.699   6.949  0.1796  0.1717  0.1936
  190SLPC   C2221939   1.140   2.525   7.054 -0.1819 -0.1663  0.4266
  190SLPC   H2R21940   1.034   2.494   7.051 -0.2626  0.1644 -0.4800
  190SLPC   H2S21941   1.212   2.454   7.007 -1.9491 -1.3199 -0.6489
  190SLPC    C321942   1.027   2.949   6.927 -0.5836  0.9887  0.5753
  190SLPC    HX21943   0.926   2.937   6.972  0.0862 -0.3649  1.7922
  190SLPC    HY21944   1.024   3.033   6.854  3.0666 -0.2842 -1.2660
  190SLPC   O3121945   1.119   2.958   7.041 -0.4849 -0.2066 -0.1955
  190SLPC   C3121946   1.241   3.008   7.005 -0.0047  0.2699 -0.4892
  190SLPC   O3221947   1.268   3.050   6.893  0.3364  0.0144 -0.2804
  190SLPC   C3221948   1.322   3.017   7.133  0.0123  0.2635 -0.4171
  190SLPC   H2X21949   1.314   2.922   7.191  0.2838 -1.1352 -2.5695
  190SLPC   H2Y21950   1.273   3.102   7.187  0.3721  0.4666 -0.4059
  190SLPC   C2321951   1.184   2.551   7.200  0.2019  0.2040  0.8032
  190SLPC   H3R21952   1.295   2.554   7.202  0.2464 -1.0204  1.6412
  190SLPC   H3S21953   1.158   2.458   7.256 -1.4985  2.2963  3.7492
  190SLPC   C2421954   1.120   2.676   7.265 -0.0834  0.2281  0.2733
  190SLPC   H4R21955   1.009   2.665   7.263 -0.1340  0.7448 -0.0175
  190SLPC   H4S21956   1.138   2.766   7.202 -0.1087  1.4434  1.9327
  190SLPC   C2521957   1.163   2.693   7.403  0.6509 -0.5875 -0.3194
  190SLPC   H5R21958   1.264   2.652   7.425  0.3411 -1.1322  0.1348
  190SLPC   H5S21959   1.088   2.629   7.455  2.5448 -0.9007  2.2683
  190SLPC   C2621960   1.155   2.840   7.446  0.0605 -0.1203  0.1871
  190SLPC   H6R21961   1.123   2.903   7.360 -0.0298  0.3010  0.5228
  190SLPC   H6S21962   1.263   2.862   7.465  0.0279 -0.1462  0.4087
  190SLPC   C2721963   1.067   2.873   7.569  0.4341  0.8781  1.1289
  190SLPC   H7R21964   1.122   2.846   7.662  1.3313  0.8704  0.5987
  190SLPC   H7S21965   0.974   2.814   7.552  0.6862  0.6328  0.5743
  190SLPC   C2821966   1.025   3.024   7.584 -0.2101  0.5265  0.0852
  190SLPC   H8R21967   0.950   3.031   7.666 -0.7215  0.9760 -0.4131
  190SLPC   H8S21968   0.979   3.059   7.489  0.9353  2.7448  0.2851
  190SLPC   C2921969   1.149   3.104   7.599 -0.0092  0.5871  0.7663
  190SLPC   H9R21970   1.238   3.087   7.536 -1.7921  3.2583 -2.8861
  190SLPC  C21021971   1.168   3.195   7.690  0.2685  0.3747 -0.1902
  190SLPC  H10R21972   1.272   3.224   7.709  1.8330 -4.6215  0.3083
  190SLPC  C21121973   1.064   3.229   7.794 -0.4527 -0.9336 -0.0804
  190SLPC  H11R21974   0.971   3.265   7.745  0.3245  2.9693  0.9818
  190SLPC  H11S21975   1.108   3.320   7.840 -0.5786 -0.6527 -0.5112
  190SLPC  C21221976   1.034   3.123   7.900  0.4131  0.4221 -0.5688
  190SLPC  H12R21977   1.063   3.024   7.863  2.4209  0.8412 -0.2064
  190SLPC  C21321978   0.986   3.149   8.027  0.2791 -0.3921  0.6090
  190SLPC  H13R21979   0.974   3.073   8.106 -0.3864 -1.6963 -0.6973
  190SLPC  C21421980   0.948   3.282   8.083 -0.2247  0.8398 -0.1955
  190SLPC  H14R21981   0.840   3.286   8.110 -0.2094 -0.4577  0.1200
  190SLPC  H14S21982   0.972   3.358   8.006  0.9364  1.2186  0.5120
  190SLPC  C21521983   1.034   3.299   8.209 -0.1383 -0.3839  0.5129
  190SLPC  H15R21984   1.141   3.277   8.189  0.3348  1.4124  0.9222
  190SLPC  H15S21985   0.994   3.242   8.295  2.6136 -1.8892  0.9044
  190SLPC  C21621986   1.043   3.441   8.261  0.4449  0.3619 -0.3191
  190SLPC  H16R21987   0.949   3.462   8.318  1.3109  1.0316  0.9060
  190SLPC  H16S21988   1.046   3.512   8.176  0.8169  0.1639 -0.4716
  190SLPC  C21721989   1.168   3.456   8.354 -0.3181  0.3593  0.8443
  190SLPC  H17R21990   1.175   3.363   8.415  0.9386 -0.2281 -0.1424
  190SLPC  H17S21991   1.156   3.537   8.429  0.7380  1.0463  0.3033
  190SLPC  C21821992   1.301   3.483   8.273 -0.3387 -0.3321 -0.1484
  190SLPC  H18R21993   1.393   3.488   8.336 -0.5907  1.7033  0.1448
  190SLPC  H18S21994   1.285   3.580   8.221 -0.2498 -1.4746 -2.4384
  190SLPC  H18T21995   1.301   3.408   8.192 -2.0579  0.2776 -0.7524
  190SLPC   C3321996   1.466   3.070   7.128 -0.4059  0.2053  0.0228
  190SLPC   H3X21997   1.489   3.132   7.040 -0.6517 -0.6073 -0.6256
  190SLPC   H3Y21998   1.539   2.987   7.110 -0.5640  0.0883 -0.0764
  190SLPC   C3421999   1.513   3.134   7.256  0.6830  0.4727  0.7327
  190SLPC   H4X22000   1.433   3.207   7.284 -0.3498 -0.3885  0.1226
  190SLPC   H4Y22001   1.612   3.181   7.237  1.6303 -2.0480 -1.1562
  190SLPC   C3522002   1.518   3.044   7.375  0.2049  0.6356  0.0040
  190SLPC   H5X22003   1.612   2.984   7.379  0.8086  1.4320 -1.5313
  190SLPC   H5Y22004   1.427   2.982   7.384 -0.2204  1.1838 -0.4804
  190SLPC   C3622005   1.524   3.125   7.504 -0.5322  0.3247 -0.5580
  190SLPC   H6X22006   1.438   3.195   7.493  1.1798  2.4831 -1.0126
  190SLPC   H6Y22007   1.613   3.192   7.508  1.2818 -1.8528 -1.8801
  190SLPC   C3722008   1.521   3.040   7.632 -0.1637 -0.2017  0.1740
  190SLPC   H7X22009   1.595   2.958   7.621 -0.0356 -0.6658  3.6585
  190SLPC   H7Y22010   1.418   2.997   7.636 -0.0693 -0.5012 -0.4165
  190SLPC   C3822011   1.545   3.118   7.760  0.4776  0.2730 -0.6900
  190SLPC   H8X22012   1.493   3.214   7.738  0.6731  0.3296 -0.9268
  190SLPC   H8Y22013   1.651   3.151   7.772 -0.0066  1.5553  0.2435
  190SLPC   C3922014   1.504   3.047   7.887  0.2366 -0.2538  0.6853
  190SLPC   H9X22015   1.561   2.953   7.901  0.4448 -0.0065  1.5653
  190SLPC   H9Y22016   1.396   3.020   7.882  0.0037  0.7864 -0.3632
  190SLPC  C31022017   1.520   3.139   8.012 -0.2723 -0.4718  0.5681
  190SLPC  H10X22018   1.463   3.233   7.996 -0.2066 -0.5375 -0.0479
  190SLPC  H10Y22019   1.628   3.160   8.024  0.5232 -3.5704 -0.3973
  190SLPC  C31122020   1.466   3.066   8.132 -0.3716  0.7031  0.1258
  190SLPC  H11X22021   1.522   2.971   8.126  0.4403  1.2462 -1.4815
  190SLPC  H11Y22022   1.360   3.034   8.125 -0.2305  0.3209 -0.3241
  190SLPC  C31222023   1.512   3.132   8.272  0.0866 -0.2274  0.3519
  190SLPC  H12X22024   1.438   3.216   8.276 -1.4983 -1.5193 -0.6874
  190SLPC  H12Y22025   1.618   3.162   8.274  0.4141 -1.0812 -1.8195
  190SLPC  C31322026   1.497   3.049   8.396 -0.2366  0.2961  0.0764
  190SLPC  H13X22027   1.550   2.953   8.380  0.3876  0.2983  1.8925
  190SLPC  H13Y22028   1.390   3.026   8.414 -0.0976 -0.8846 -0.5131
  190SLPC  C31422029   1.548   3.107   8.530  0.0072  0.5858 -0.5277
  190SLPC  H14X22030   1.484   3.193   8.559  0.4910 -0.0965  3.0943
  190SLPC  H14Y22031   1.652   3.147   8.525 -0.3363  1.5975  0.2067
  190SLPC  C31522032   1.544   2.999   8.638 -0.2722  0.2675  0.1357
  190SLPC  H15X22033   1.583   3.029   8.738 -2.6524 -0.7008  1.4501
  190SLPC  H15Y22034   1.604   2.913   8.603  1.0897  0.7691  1.1572
  190SLPC  C31622035   1.404   2.955   8.679 -0.7249  0.2731 -0.1246
  190SLPC  H16X22036   1.413   2.846   8.663  0.5239  0.2343  0.7045
  190SLPC  H16Y22037   1.325   2.983   8.606 -1.8895  0.5444  1.1886
  190SLPC  C31722038   1.363   2.994   8.819  0.3394  0.1116 -0.6262
  190SLPC  H17X22039   1.437   2.964   8.895  0.8277  0.2060 -1.0576
  190SLPC  H17Y22040   1.266   2.943   8.838  1.8543 -2.5062  0.5076
  190SLPC  C31822041   1.339   3.146   8.844  0.5471 -0.2387 -0.2827
  190SLPC  H18X22042   1.261   3.183   8.774 -0.5391  0.5553  1.2956
  190SLPC  H18Y22043   1.431   3.203   8.821 -0.1658  0.5921 -1.1215
  190SLPC  H18Z22044   1.292   3.153   8.944 -2.2589 -2.4228 -1.3060
  191SLPC     N22045   6.643   3.136   5.812 -0.3421  0.1563  0.2144
  191SLPC   C1322046   6.675   3.268   5.750 -0.2825 -0.0048 -0.0297
  191SLPC  H13A22047   6.597   3.319   5.695 -0.0556  1.4155  0.9191
  191SLPC  H13B22048   6.708   3.344   5.819 -0.2229  0.2490 -0.3369
  191SLPC  H13C22049   6.755   3.248   5.681 -0.2797  0.9491 -0.3081
  191SLPC   C1422050   6.764   3.048   5.819 -0.6379 -0.2010  0.2519
  191SLPC  H14A22051   6.842   3.085   5.885 -0.4911 -0.3116  0.1408
  191SLPC  H14B22052   6.729   2.949   5.841 -0.7827 -0.0754  0.6145
  191SLPC  H14C22053   6.816   3.028   5.727  0.0784 -0.4779  0.7102
  191SLPC   C1522054   6.555   3.067   5.721  0.3731 -0.0714 -0.1590
  191SLPC  H15A22055   6.470   3.127   5.691  0.8318  0.4068 -0.5168
  191SLPC  H15B22056   6.598   3.034   5.627 -1.5481  0.5197 -1.2930
  191SLPC  H15C22057   6.516   2.976   5.764  0.9820  0.8015  2.3860
  191SLPC   C1222058   6.571   3.154   5.943 -0.1185  0.6038  0.0061
  191SLPC  H12A22059   6.554   3.058   5.989  2.2843 -0.6153 -1.4411
  191SLPC  H12B22060   6.472   3.196   5.927 -0.7824  0.4266  3.0615
  191SLPC   C1122061   6.638   3.236   6.051 -0.2935 -0.7634 -0.0022
  191SLPC  H11A22062   6.739   3.193   6.071  1.4014  1.1096 -3.5013
  191SLPC  H11B22063   6.574   3.228   6.141  0.4305  2.6187  0.9232
  191SLPC     P22064   6.531   3.469   6.009 -0.1689  0.3981  0.0460
  191SLPC   O1322065   6.568   3.602   5.968  0.4765 -0.6007  0.3666
  191SLPC   O1422066   6.421   3.405   5.933  0.2194  0.3515 -0.3246
  191SLPC   O1222067   6.658   3.372   6.009 -0.0626 -0.3674 -0.0805
  191SLPC   O1122068   6.494   3.477   6.162  0.2610  0.7407 -0.3585
  191SLPC    C122069   6.584   3.471   6.270 -0.3001  0.1650 -0.1708
  191SLPC    HA22070   6.656   3.387   6.257 -1.1048 -0.8252  1.4513
  191SLPC    HB22071   6.653   3.557   6.274 -1.3782  1.0063  1.6034
  191SLPC    C222072   6.504   3.430   6.393  0.1773 -1.0976  0.2053
  191SLPC    HS22073   6.400   3.412   6.360  0.1130 -0.4535  0.0385
  191SLPC   O2122074   6.508   3.535   6.497 -0.6749  0.2229 -0.3155
  191SLPC   C2122075   6.417   3.625   6.489 -0.0283  0.0436 -0.6392
  191SLPC   O2222076   6.329   3.637   6.406 -0.2838 -0.1430 -0.9138
  191SLPC   C2222077   6.418   3.692   6.618  0.7950 -0.6969  0.4238
  191SLPC   H2R22078   6.388   3.616   6.693  0.3657 -2.9377 -1.8903
  191SLPC   H2S22079   6.514   3.744   6.640 -0.8918  2.3446  1.2057
  191SLPC    C322080   6.544   3.297   6.458  0.0248 -0.6027 -0.0695
  191SLPC    HX22081   6.647   3.316   6.495 -0.5675  0.4541  1.0843
  191SLPC    HY22082   6.540   3.219   6.378 -0.8884 -0.8898  0.2525
  191SLPC   O3122083   6.465   3.261   6.565  0.0688 -1.2367  0.0026
  191SLPC   C3122084   6.506   3.256   6.694  0.0628  0.1910 -0.4889
  191SLPC   O3222085   6.603   3.307   6.741 -0.4646 -0.0765 -1.0519
  191SLPC   C3222086   6.413   3.178   6.781 -0.6026 -0.0466 -0.3715
  191SLPC   H2X22087   6.435   3.070   6.770  2.1543  0.5524 -1.8637
  191SLPC   H2Y22088   6.312   3.196   6.738  1.0414  1.6541 -3.9788
  191SLPC   C2322089   6.321   3.813   6.616  0.3941 -0.0429  0.3438
  191SLPC   H3R22090   6.224   3.776   6.577  0.7228  1.3826 -2.0235
  191SLPC   H3S22091   6.340   3.888   6.536 -1.0762  0.4803  0.4527
  191SLPC   C2422092   6.314   3.877   6.750 -0.4793  0.4070  0.5360
  191SLPC   H4R22093   6.309   3.797   6.826  2.1271 -1.0345 -0.6616
  191SLPC   H4S22094   6.218   3.933   6.754  0.0901  1.3503  1.3039
  191SLPC   C2522095   6.445   3.953   6.789  0.4006  0.4222  0.2681
  191SLPC   H5R22096   6.464   4.039   6.721  1.9079 -1.0339 -1.2300
  191SLPC   H5S22097   6.534   3.888   6.803  0.4970  0.6836  0.9078
  191SLPC   C2622098   6.422   4.008   6.932 -1.0757  0.9054  0.3450
  191SLPC   H6R22099   6.418   3.928   7.009  0.0715 -1.3405 -1.8080
  191SLPC   H6S22100   6.332   4.072   6.941 -0.9803  1.0597  0.2019
  191SLPC   C2722101   6.548   4.088   6.968 -0.6674  0.3955 -0.3375
  191SLPC   H7R22102   6.516   4.151   7.054  0.5402 -0.1664  0.5516
  191SLPC   H7S22103   6.567   4.155   6.882 -0.3774  0.2553 -0.3833
  191SLPC   C2822104   6.671   4.000   6.999  0.8338  0.3065  0.0679
  191SLPC   H8R22105   6.719   3.988   6.899 -1.1415 -0.6412 -0.8287
  191SLPC   H8S22106   6.630   3.898   7.016 -0.2489  1.0697  2.5219
  191SLPC   C2922107   6.771   4.036   7.106  0.3367  0.9438  0.3873
  191SLPC   H9R22108   6.859   4.094   7.073  0.0012  2.0785  1.4375
  191SLPC  C21022109   6.742   4.022   7.239  0.5990 -0.1424 -0.0483
  191SLPC  H10R22110   6.813   4.067   7.310  1.0302 -0.4697 -0.2680
  191SLPC  C21122111   6.617   3.972   7.304  0.1697  0.4097  0.1626
  191SLPC  H11R22112   6.636   3.888   7.375  0.7035 -1.8553 -2.5118
  191SLPC  H11S22113   6.554   3.915   7.233 -1.0265  1.2573  0.4972
  191SLPC  C21222114   6.523   4.078   7.356  0.5435  0.2217  0.5816
  191SLPC  H12R22115   6.504   4.168   7.296 -0.2758  1.0796  2.0527
  191SLPC  C21322116   6.465   4.081   7.477 -0.3329  0.2338 -0.7211
  191SLPC  H13R22117   6.403   4.168   7.504  0.8021  0.3234  1.9425
  191SLPC  C21422118   6.493   3.994   7.595  0.3833  0.0773  0.3022
  191SLPC  H14R22119   6.585   3.933   7.584 -0.6169 -1.3269 -0.5319
  191SLPC  H14S22120   6.405   3.927   7.603  1.1026 -1.0574 -0.8834
  191SLPC  C21522121   6.510   4.076   7.730 -0.0047  0.0380  0.1719
  191SLPC  H15R22122   6.433   4.157   7.734 -0.2241 -0.2193  1.8465
  191SLPC  H15S22123   6.602   4.137   7.730 -0.2624  0.4462  1.1174
  191SLPC  C21622124   6.512   3.993   7.860 -0.2940  0.6732 -0.0960
  191SLPC  H16R22125   6.616   3.970   7.892 -0.5693 -0.9292 -0.2499
  191SLPC  H16S22126   6.459   3.900   7.832  1.2161 -0.3510  0.3072
  191SLPC  C21722127   6.433   4.050   7.980 -0.0211  0.0401 -0.2237
  191SLPC  H17R22128   6.430   3.968   8.055  1.5720  0.2473  0.0914
  191SLPC  H17S22129   6.328   4.075   7.952  0.1428 -0.6058 -1.4825
  191SLPC  C21822130   6.497   4.175   8.044 -0.3237 -0.4092  0.1734
  191SLPC  H18R22131   6.445   4.205   8.137 -0.2030 -1.9348  0.7646
  191SLPC  H18S22132   6.497   4.252   7.964 -1.4572  0.2825  0.8192
  191SLPC  H18T22133   6.601   4.143   8.064 -0.4781 -0.7552  0.4311
  191SLPC   C3322134   6.409   3.194   6.938 -0.2662  0.2869  0.5221
  191SLPC   H3X22135   6.390   3.301   6.964 -0.3472  0.6018 -0.7851
  191SLPC   H3Y22136   6.514   3.180   6.973 -0.3438  1.6417  1.3808
  191SLPC   C3422137   6.309   3.091   6.997 -0.7621 -0.5386 -0.0419
  191SLPC   H4X22138   6.345   2.988   6.976 -1.3850 -0.3780 -2.0991
  191SLPC   H4Y22139   6.213   3.099   6.943 -0.2852 -1.5555 -1.0667
  191SLPC   C3522140   6.287   3.121   7.144  0.0816  0.4619 -0.9628
  191SLPC   H5X22141   6.251   3.225   7.157 -0.8955 -0.1933  2.5716
  191SLPC   H5Y22142   6.380   3.102   7.202 -0.6620  0.1683  0.1650
  191SLPC   C3622143   6.187   3.014   7.188 -0.3733 -0.4114 -0.6664
  191SLPC   H6X22144   6.228   2.913   7.165 -1.4118 -1.1285  0.5020
  191SLPC   H6Y22145   6.099   3.036   7.124  1.5337 -0.5052 -3.4856
  191SLPC   C3722146   6.164   3.022   7.344 -0.1094  0.2312  0.8995
  191SLPC   H7X22147   6.120   3.120   7.372 -3.0712 -0.9532  0.7862
  191SLPC   H7Y22148   6.268   3.019   7.383  1.0946 -1.8411 -2.1028
  191SLPC   C3822149   6.081   2.910   7.396  0.3307 -0.6260 -0.5425
  191SLPC   H8X22150   6.139   2.816   7.380  0.6389 -0.0349 -3.5045
  191SLPC   H8Y22151   5.994   2.905   7.326  1.2532  0.7940 -1.8446
  191SLPC   C3922152   6.033   2.913   7.541  0.2584 -0.1910 -0.0561
  191SLPC   H9X22153   5.960   2.997   7.544 -0.1473 -0.3412 -2.7141
  191SLPC   H9Y22154   6.117   2.918   7.613 -0.1275 -0.5234  0.4243
  191SLPC  C31022155   5.933   2.798   7.567 -0.0618  0.1410 -0.1811
  191SLPC  H10X22156   5.982   2.706   7.606 -0.4311  0.0380  0.0483
  191SLPC  H10Y22157   5.880   2.777   7.472  1.6678  2.7296 -1.8427
  191SLPC  C31122158   5.817   2.828   7.670 -0.4013 -0.1597  0.4473
  191SLPC  H11X22159   5.749   2.740   7.661 -0.7528  0.3190 -4.2172
  191SLPC  H11Y22160   5.761   2.913   7.626 -1.0457 -0.0852  1.3935
  191SLPC  C31222161   5.871   2.871   7.807  0.5245  0.1499  0.4750
  191SLPC  H12X22162   5.947   2.951   7.797  0.6115  0.1869  1.3373
  191SLPC  H12Y22163   5.913   2.777   7.850  1.6882  0.8465  0.9018
  191SLPC  C31322164   5.766   2.924   7.903  0.3585 -0.1299 -0.4442
  191SLPC  H13X22165   5.666   2.884   7.878  0.5722 -0.1093 -1.3925
  191SLPC  H13Y22166   5.771   3.035   7.907  3.8150 -0.1867 -0.1618
  191SLPC  C31422167   5.799   2.868   8.047  0.1579 -0.1076 -0.2125
  191SLPC  H14X22168   5.905   2.898   8.062 -0.1051  0.4067  0.6830
  191SLPC  H14Y22169   5.803   2.757   8.044  2.2133 -0.1480  1.4741
  191SLPC  C31522170   5.706   2.922   8.151 -0.0038  0.2052 -0.0767
  191SLPC  H15X22171   5.601   2.916   8.118  0.5700  0.8987 -2.1718
  191SLPC  H15Y22172   5.724   3.031   8.164  2.9814 -0.0183 -1.5511
  191SLPC  C31622173   5.733   2.852   8.289  0.3341 -0.2793 -1.1108
  191SLPC  H16X22174   5.842   2.842   8.307  0.2237 -0.8819 -0.7429
  191SLPC  H16Y22175   5.691   2.749   8.297 -0.4756 -0.0507 -2.2209
  191SLPC  C31722176   5.678   2.937   8.410  0.4910  0.0910  0.2758
  191SLPC  H17X22177   5.573   2.951   8.376 -0.2658 -3.2221  0.8969
  191SLPC  H17Y22178   5.731   3.034   8.400 -0.2842  0.5260  0.2654
  191SLPC  C31822179   5.674   2.876   8.548 -0.0695  0.5000  0.0306
  191SLPC  H18X22180   5.627   2.949   8.618 -1.5742 -2.2184  2.0048
  191SLPC  H18Y22181   5.772   2.846   8.591 -0.0963 -0.8336 -0.8157
  191SLPC  H18Z22182   5.602   2.792   8.538  0.7252 -0.4100  1.6278
  192SLPC     N22183   0.693   5.278   6.458  0.2397  0.1676  0.0331
  192SLPC   C1322184   0.739   5.138   6.450 -0.9256 -0.4250  0.2242
  192SLPC  H13A22185   0.792   5.120   6.358 -0.0021 -0.9167  0.8338
  192SLPC  H13B22186   0.812   5.116   6.527  0.8831 -1.1739 -1.6075
  192SLPC  H13C22187   0.655   5.072   6.464 -0.9995 -0.2811  0.4775
  192SLPC   C1422188   0.619   5.329   6.335 -0.3087  0.1297  0.2995
  192SLPC  H14A22189   0.527   5.273   6.323 -0.2933  0.1791 -0.0634
  192SLPC  H14B22190   0.603   5.436   6.338 -0.9074  0.0536  0.0272
  192SLPC  H14C22191   0.673   5.300   6.247  0.1773  0.9551  0.3146
  192SLPC   C1522192   0.812   5.363   6.473  0.8122  0.0699 -1.2280
  192SLPC  H15A22193   0.780   5.460   6.507 -0.3119 -1.4479  2.5017
  192SLPC  H15B22194   0.884   5.319   6.540 -0.7008  2.1165  1.9736
  192SLPC  H15C22195   0.864   5.361   6.378  1.5904 -1.8259 -0.8050
  192SLPC   C1222196   0.606   5.296   6.583 -0.1419 -0.7236  0.3674
  192SLPC  H12A22197   0.667   5.278   6.671 -0.0358 -0.2810  0.3880
  192SLPC  H12B22198   0.532   5.218   6.583  0.3663 -1.2119  0.2250
  192SLPC   C1122199   0.529   5.430   6.602  0.0425 -0.5185  0.0214
  192SLPC  H11A22200   0.476   5.444   6.698  0.3487  2.0073 -0.1082
  192SLPC  H11B22201   0.443   5.427   6.532 -0.5846 -1.5148  0.8143
  192SLPC     P22202   0.577   5.670   6.514  0.2973 -0.4628  0.2544
  192SLPC   O1322203   0.661   5.787   6.565  0.1813  0.0350 -0.0399
  192SLPC   O1422204   0.574   5.644   6.368 -0.7475  0.2108 -0.2480
  192SLPC   O1222205   0.620   5.541   6.594 -0.2791  0.7191 -0.0121
  192SLPC   O1122206   0.423   5.688   6.561 -0.2052  0.0155  0.0155
  192SLPC    C122207   0.401   5.703   6.702 -0.8486  0.1989 -0.1226
  192SLPC    HA22208   0.299   5.662   6.720 -0.3513 -0.6732  0.8765
  192SLPC    HB22209   0.472   5.643   6.763  0.5873 -0.0107 -1.9116
  192SLPC    C222210   0.405   5.858   6.749  0.6038  0.7838  0.4126
  192SLPC    HS22211   0.511   5.890   6.740  1.2269 -1.2422  0.1207
  192SLPC   O2122212   0.354   5.873   6.887 -0.2209  0.3497  0.2223
  192SLPC   C2122213   0.444   5.871   6.983 -1.1871  0.7462  0.1217
  192SLPC   O2222214   0.564   5.856   6.972 -0.0453  0.2090 -0.2863
  192SLPC   C2222215   0.369   5.862   7.113 -0.1772 -0.0498 -0.5687
  192SLPC   H2R22216   0.318   5.960   7.119  1.8026  1.0554 -0.9324
  192SLPC   H2S22217   0.298   5.777   7.106 -0.0036 -0.2832  0.3785
  192SLPC    C322218   0.314   5.956   6.666  0.0153 -0.7182 -0.3001
  192SLPC    HX22219   0.209   5.921   6.672  0.2445 -1.3883 -0.0699
  192SLPC    HY22220   0.332   5.947   6.556 -0.0116 -0.5171 -0.3215
  192SLPC   O3122221   0.327   6.094   6.712 -0.1025  0.4330  0.1450
  192SLPC   C3122222   0.383   6.184   6.632  0.1706  0.1139  0.2395
  192SLPC   O3222223   0.426   6.156   6.517 -0.3796 -0.3096 -0.2507
  192SLPC   C3222224   0.377   6.321   6.697 -0.4137 -0.0699 -0.1386
  192SLPC   H2X22225   0.285   6.341   6.756  1.6990  0.8255  3.1480
  192SLPC   H2Y22226   0.396   6.403   6.624 -0.9334  1.4023  1.3330
  192SLPC   C2322227   0.444   5.850   7.245 -0.8496 -0.4950 -0.4038
  192SLPC   H3R22228   0.499   5.944   7.265 -2.9654  0.8486 -0.5305
  192SLPC   H3S22229   0.514   5.764   7.240 -1.5535 -1.0498 -1.0395
  192SLPC   C2422230   0.344   5.841   7.367 -0.3642 -0.1832  0.7781
  192SLPC   H4R22231   0.285   5.746   7.365  0.7032 -0.8630 -1.3169
  192SLPC   H4S22232   0.283   5.932   7.351  2.7292  1.5337 -2.5875
  192SLPC   C2522233   0.398   5.857   7.506  0.1814 -0.3099 -0.1951
  192SLPC   H5R22234   0.459   5.950   7.513  1.0129 -0.8958  0.5318
  192SLPC   H5S22235   0.466   5.775   7.537  0.3009  0.2012  0.9550
  192SLPC   C2622236   0.286   5.865   7.616 -0.2477 -0.1930  0.2049
  192SLPC   H6R22237   0.223   5.774   7.623 -1.7640  0.7034 -1.1046
  192SLPC   H6S22238   0.210   5.936   7.579 -1.4803 -1.6103 -0.0715
  192SLPC   C2722239   0.330   5.916   7.755  0.3366 -1.0745  0.1156
  192SLPC   H7R22240   0.242   5.953   7.811  2.3594  2.0607  1.5003
  192SLPC   H7S22241   0.396   6.004   7.740 -0.3914 -0.3414  1.1297
  192SLPC   C2822242   0.409   5.800   7.828  0.1048  0.0591 -0.1516
  192SLPC   H8R22243   0.504   5.768   7.780 -1.6496 -0.5545 -3.4646
  192SLPC   H8S22244   0.335   5.718   7.834 -1.1484  1.1281 -0.6594
  192SLPC   C2922245   0.438   5.839   7.972  0.0163 -0.4060  0.0645
  192SLPC   H9R22246   0.510   5.922   7.975 -0.6400  0.1969 -0.3407
  192SLPC  C21022247   0.366   5.805   8.081  0.3908  0.3685  0.1853
  192SLPC  H10R22248   0.396   5.860   8.172  0.6070 -1.7351  1.4430
  192SLPC  C21122249   0.239   5.728   8.103 -0.2072 -0.3737 -0.0243
  192SLPC  H11R22250   0.257   5.650   8.181 -2.2984  0.5142  1.4334
  192SLPC  H11S22251   0.225   5.672   8.008  0.4914 -0.6633  0.0373
  192SLPC  C21222252   0.117   5.814   8.127 -0.6040  0.0979  0.1065
  192SLPC  H12R22253   0.071   5.867   8.041 -0.2600  1.3894  0.6863
  192SLPC  C21322254   0.069   5.826   8.253 -0.3749 -1.0519 -0.6691
  192SLPC  H13R22255  -0.020   5.889   8.267 -0.3569 -0.7486 -1.8150
  192SLPC  C21422256   0.112   5.768   8.386 -0.4436 -0.2214 -1.2733
  192SLPC  H14R22257   0.169   5.848   8.437 -0.3429 -1.0879  0.0141
  192SLPC  H14S22258   0.168   5.673   8.375 -0.5397 -0.6334  1.2633
  192SLPC  C21522259  -0.010   5.717   8.462  0.1991  0.4075 -0.0165
  192SLPC  H15R22260   0.020   5.669   8.558 -3.1518 -2.0817 -0.0771
  192SLPC  H15S22261  -0.055   5.632   8.408  1.5864  0.2697 -1.0395
  192SLPC  C21622262  -0.111   5.830   8.497 -0.3234 -0.3249  0.0278
  192SLPC  H16R22263  -0.144   5.875   8.401 -2.0676  0.5516  0.9997
  192SLPC  H16S22264  -0.067   5.919   8.546  1.8935  0.2547 -2.7426
  192SLPC  C21722265  -0.236   5.795   8.588  0.5325  0.1440 -0.7077
  192SLPC  H17R22266  -0.311   5.731   8.536 -0.4686 -0.1876  1.0846
  192SLPC  H17S22267  -0.194   5.749   8.679 -1.5960 -0.1808  0.1627
  192SLPC  C21822268  -0.316   5.920   8.623 -0.4472 -0.8022 -0.3699
  192SLPC  H18R22269  -0.247   5.981   8.686  0.7669 -1.8673 -0.6184
  192SLPC  H18S22270  -0.397   5.889   8.693  0.7766 -0.2828  1.3440
  192SLPC  H18T22271  -0.371   5.970   8.541 -0.9122 -3.3645 -1.7136
  192SLPC   C3322272   0.503   6.332   6.800  0.3025  0.4172  0.4209
  192SLPC   H3X22273   0.530   6.437   6.821  0.3648  0.4557  0.1594
  192SLPC   H3Y22274   0.587   6.276   6.754 -0.3460  0.3794 -0.7585
  192SLPC   C3422275   0.466   6.277   6.939  0.1726 -0.8385  0.6883
  192SLPC   H4X22276   0.473   6.167   6.929  1.3117 -0.6412 -1.2857
  192SLPC   H4Y22277   0.363   6.310   6.965  0.3769  1.6174 -1.1848
  192SLPC   C3522278   0.568   6.323   7.039  0.3541  0.2957 -0.7105
  192SLPC   H5X22279   0.574   6.434   7.042 -2.7323  0.5227  0.9571
  192SLPC   H5Y22280   0.668   6.277   7.021  0.6452  1.2148 -1.5676
  192SLPC   C3622281   0.519   6.284   7.180  0.0511 -0.9656  0.6446
  192SLPC   H6X22282   0.526   6.174   7.193  0.4493 -1.1095 -0.5758
  192SLPC   H6Y22283   0.413   6.315   7.186 -0.2797 -1.1828 -2.2444
  192SLPC   C3722284   0.597   6.360   7.283 -0.3699 -0.1100  0.2941
  192SLPC   H7X22285   0.636   6.459   7.252  0.5266 -0.3475  0.6318
  192SLPC   H7Y22286   0.691   6.304   7.303 -0.0440  0.8395  1.5752
  192SLPC   C3822287   0.518   6.365   7.412 -0.1979  0.7072 -0.6346
  192SLPC   H8X22288   0.469   6.271   7.443  0.2931  1.4356  2.8614
  192SLPC   H8Y22289   0.436   6.440   7.407 -0.1286  0.7181 -1.9752
  192SLPC   C3922290   0.604   6.381   7.537 -0.6837 -0.4558 -0.4320
  192SLPC   H9X22291   0.673   6.467   7.523 -0.5738 -0.6691 -1.2111
  192SLPC   H9Y22292   0.693   6.315   7.539  0.1516  0.6281 -0.7943
  192SLPC  C31022293   0.516   6.370   7.664 -0.5351  0.2763 -0.1202
  192SLPC  H10X22294   0.457   6.277   7.648  0.1216 -0.6205  2.2300
  192SLPC  H10Y22295   0.440   6.451   7.674 -0.2985  0.4611  0.1764
  192SLPC  C31122296   0.591   6.338   7.793 -0.1800 -0.0052  0.3165
  192SLPC  H11X22297   0.636   6.429   7.837 -1.1342  0.7280 -0.1847
  192SLPC  H11Y22298   0.671   6.260   7.787 -1.1025 -1.0003  0.6956
  192SLPC  C31222299   0.495   6.285   7.902 -1.3301  0.4037  0.4892
  192SLPC  H12X22300   0.445   6.192   7.870  1.0021 -0.6680 -0.2911
  192SLPC  H12Y22301   0.424   6.369   7.918  1.1587  3.0110 -1.1723
  192SLPC  C31322302   0.575   6.244   8.031 -0.1366  0.3451 -0.0245
  192SLPC  H13X22303   0.627   6.334   8.068 -0.3633  1.5713 -2.4609
  192SLPC  H13Y22304   0.647   6.166   8.000 -1.4800  0.6039 -4.5563
  192SLPC  C31422305   0.489   6.194   8.144  0.5027 -0.3541 -1.0220
  192SLPC  H14X22306   0.396   6.139   8.116  0.3220 -0.0826 -0.9549
  192SLPC  H14Y22307   0.451   6.285   8.195  0.5406 -0.4519 -0.8166
  192SLPC  C31522308   0.558   6.108   8.257 -0.3517  0.0752  0.5482
  192SLPC  H15X22309   0.653   6.160   8.281  0.4478 -0.1567 -1.8650
  192SLPC  H15Y22310   0.581   6.018   8.195 -0.5682  0.6630 -0.4100
  192SLPC  C31622311   0.475   6.081   8.383  0.0453  0.7411  0.0829
  192SLPC  H16X22312   0.368   6.061   8.363  0.1932  0.6724 -0.6629
  192SLPC  H16Y22313   0.469   6.178   8.437  1.1566  1.7763 -1.5505
  192SLPC  C31722314   0.540   5.973   8.465 -0.2503 -0.1753  0.5102
  192SLPC  H17X22315   0.631   6.012   8.516  0.6621 -1.0072 -0.4333
  192SLPC  H17Y22316   0.575   5.895   8.394  0.4283  2.9629 -2.8456
  192SLPC  C31822317   0.456   5.924   8.582 -0.1450 -0.2825 -0.2801
  192SLPC  H18X22318   0.515   5.853   8.643 -1.1351 -0.3448  0.6273
  192SLPC  H18Y22319   0.371   5.861   8.549 -0.8887 -0.0770  1.1698
  192SLPC  H18Z22320   0.410   6.003   8.646  1.0899 -1.3810  2.0763
  193SOD    SOD22321   0.702   0.856  11.343  0.3566  0.0791 -0.6312
  194SOD    SOD22322   6.106   4.413  15.994 -0.4380 -0.2544 -0.0480
  195SOD    SOD22323   1.510   2.252  15.619  0.0521 -0.3597  0.3495
  196SOD    SOD22324   0.667   4.089   6.070 -0.2051 -0.1404 -0.3516
  197SOD    SOD22325   3.624   5.320   5.233 -0.5345 -0.2093 -0.3762
  198SOD    SOD22326   6.281   0.540  14.808 -0.4820  0.0728 -0.1747
  199SOD    SOD22327   3.560   1.125   3.418  0.2139  0.4547 -0.7446
  200SOD    SOD22328   2.762   6.513   5.342  0.2644 -0.3053 -0.2685
  201SOD    SOD22329   6.202   4.436   2.591  0.2141 -0.2391 -0.0947
  202SOD    SOD22330   0.102   3.713  11.419 -0.2810  0.1802  0.3360
  203SOD    SOD22331   3.403   1.479   0.093  0.1140 -0.1638 -0.1598
  204SOD    SOD22332   4.830   0.876   0.088  0.4286  0.3833 -0.4221
  205SOD    SOD22333   5.125   3.900  13.427  0.3222 -0.0301  0.0742
  206SOD    SOD22334   4.694   1.018  12.766  0.3735 -0.0189 -0.0881
  207SOD    SOD22335   3.750   4.513  14.376 -0.7589 -0.0792 -0.1833
  208SOD    SOD22336   0.909   5.736  14.446  0.0763 -0.3071  0.3844
  209SOD    SOD22337   5.276   5.365   0.073 -0.8298  0.3398  0.0987
  210SOD    SOD22338   2.419   0.465   2.433  0.1340 -0.0579  0.1040
  211SOD    SOD22339   3.924   4.131   5.377 -0.4469 -0.5935 -0.1735
  212SOD    SOD22340   3.765   6.406   2.184  0.5939 -0.0433  0.2101
  213SOD    SOD22341   2.655   2.872   4.268 -0.2682  0.1740  0.0523
  214SOD    SOD22342   5.427   1.781   5.988 -0.2660  0.3568  0.4116
  215SOD    SOD22343   3.038   3.692   5.871 -0.0714  0.3950  0.4186
  216SOD    SOD22344   6.204   3.954  12.035  0.3583  0.4779 -0.5201
  217SOD    SOD22345   4.455   5.221  16.436 -0.8459 -0.0650  0.2001
  218SOD    SOD22346   1.006   3.019   1.796  0.2169  0.2794  0.4947
  219SOD    SOD22347   3.111   5.768  12.978  0.1847 -0.1323  0.3963
  220SOD    SOD22348   6.263   2.089   3.900 -0.0482  0.2760  0.2516
  221SOD    SOD22349   1.480   5.471   1.408  0.4342 -0.2382 -0.0979
  222SOD    SOD22350   0.365   3.538  14.503  0.0962 -0.7913 -0.0284
  223SOD    SOD22351   3.805   0.512  11.609  0.1387 -0.3255  0.3744
  224SOD    SOD22352   2.516   2.458   3.042  0.6539 -0.1833 -0.1104
  225SOD    SOD22353   5.341   6.230   5.137  0.3146 -0.4889  0.0532
  226SOD    SOD22354   6.101   3.490   2.329  0.3868  0.1063 -0.6587
  227SOD    SOD22355   4.874   3.870   2.468 -0.1263  0.2470  0.5807
  228SOD    SOD22356   4.784   5.139  14.556 -0.0224  0.2025 -0.4092
  229SOD    SOD22357   4.200   5.296  17.482  0.2587 -0.7534 -0.4519
  230SOD    SOD22358   0.805   0.184  13.498 -0.0392 -0.1445  0.0118
  231SOD    SOD22359   1.587   3.997  16.510  0.3269 -0.3245 -0.0436
  232SOD    SOD22360   0.376   1.822  12.381  0.0530 -0.1109  0.2014
  233SOD    SOD22361   2.759   2.562  13.470 -0.1169 -1.0013 -0.1126
  234SOD    SOD22362   1.925   3.499  11.265 -0.0483  0.4898  0.4274
  235SOD    SOD22363   5.281   6.303   2.495  0.0406 -0.2525 -0.1476
  236SOD    SOD22364   6.236   5.526  14.606  0.2111 -0.1009  0.1869
  237SOD    SOD22365   5.163   4.911   1.642 -0.5196 -0.6158 -0.1340
  238SOD    SOD22366   2.967   6.123  15.869  0.4298  0.0838  0.1209
  239SOD    SOD22367   0.707   4.359  12.315  0.4222  0.2144  0.3956
  240SOD    SOD22368   5.453   6.225  11.798  0.4498 -0.0638  0.0643
  241SOD    SOD22369   4.190   4.321   6.150  0.1128 -0.2229 -0.0485
  242SOD    SOD22370   4.806   4.840   4.470  0.6310  0.3035 -0.2139
  243SOD    SOD22371   0.439   3.607   4.446 -0.2038 -0.2901 -0.0397
  244SOD    SOD22372   3.290   3.126   1.465 -0.0452  0.3396 -0.0507
  245SOD    SOD22373   2.615   6.134   6.041 -0.4006  0.0260 -0.1051
  246SOD    SOD22374   4.973   0.061   0.462 -0.3566 -0.1317 -0.1751
  247SOD    SOD22375   5.550   2.741  11.526  0.1482  0.2204  0.2563
  248SOD    SOD22376   2.701   0.067   0.046  0.3398 -0.2622 -0.4128
  249SOD    SOD22377   6.768   5.897   4.765 -0.4201  0.3714  0.3318
  250SOD    SOD22378   2.260   4.775  12.825  0.2495 -0.1218 -0.0091
  251SOD    SOD22379   0.724   2.720  14.560  0.1278 -0.1083  0.1166
  252SOD    SOD22380   6.026   1.726  12.544 -0.1889  0.0709  0.6103
  253SOD    SOD22381   5.269   5.757   4.123  0.2999  0.0422  0.7100
  254SOD    SOD22382   5.036   3.403   6.720  0.0841  0.2929 -0.3571
  255SOD    SOD22383   4.436   4.753  11.667  0.0360 -0.1671  0.3968
  256SOD    SOD22384   5.277   4.676  14.232  0.0763  0.2056  0.1266
  257SOD    SOD22385   5.638   3.290  17.199  0.2241  0.3362  0.2226
  258SOD    SOD22386   6.546   3.556  16.985 -0.0239 -0.1690  0.4071
  259SOD    SOD22387   5.846   0.752  12.930 -0.4597  0.2239 -0.1102
  260SOD    SOD22388   3.517   3.663  12.399  0.0437  0.3051 -0.0255
  261SOD    SOD22389   6.672   6.153   0.480  0.2213 -0.4361  0.4412
  262SOD    SOD22390   2.700   5.055   6.351  0.1264 -0.5557 -0.4065
  263SOD    SOD22391   0.033   3.337   2.145 -0.7104 -0.1682 -0.0148
  264SOD    SOD22392   0.347   6.233  11.997  0.2452 -0.0357  0.2713
  265SOD    SOD22393   1.253   3.467   5.569  0.1575 -0.0409 -0.8643
  266CLA    CLA22394   6.694   3.855   0.610 -0.5128  0.3444  0.1328
  267CLA    CLA22395   3.750   1.152  14.900  0.0166  0.2174 -0.4549
  268CLA    CLA22396   0.495   2.510  13.088  0.3622 -0.2817 -0.1529
  269CLA    CLA22397   0.895   3.898  13.321  0.2287  0.5058 -0.3870
  270CLA    CLA22398   1.236   0.350  15.762  0.3410  0.1199  0.0234
  271CLA    CLA22399   3.861   4.281   5.759 -0.2096 -0.1580 -0.4867
  272CLA    CLA22400   6.437   2.512  16.620  0.2646  0.0436 -0.0847
  273CLA    CLA22401   4.986   3.970  11.715 -0.2044  0.0849  0.0427
  274CLA    CLA22402   1.617   2.195   2.860 -0.3257  0.1961 -0.5749
  275CLA    CLA22403   1.422   4.061  14.218  0.3979 -0.1157  0.4561
  276CLA    CLA22404   2.117   0.666  16.564  0.1752 -0.1237 -0.0947
  277CLA    CLA22405   6.358   5.444   2.760  0.2075  0.2306 -0.0671
  278CLA    CLA22406   5.906   5.683   2.289 -0.3290 -0.1185  0.7219
  279CLA    CLA22407   4.262   0.087   2.073  0.2090  0.1967 -0.2928
  280CLA    CLA22408   2.883   5.006  12.929  0.3920 -0.1378  0.0559
  281CLA    CLA22409   1.291   4.837  14.231 -0.3381  0.1105  0.2377
  282CLA    CLA22410   5.086   0.682  17.189 -0.0237  0.2553  0.3761
  283CLA    CLA22411   2.780   5.428   1.270  0.1681  0.2859 -0.2186
  284CLA    CLA22412   5.740   4.984  16.173  0.1709 -0.3216 -0.1073
  285CLA    CLA22413   6.095   2.735  14.708  0.6451  0.1763  0.3950
  286CLA    CLA22414   5.681   5.770   0.841  0.2134  0.3529 -0.2775
  287CLA    CLA22415   2.469   6.225  13.502  0.1629  0.2262 -0.1517
  288CLA    CLA22416   1.528   0.914  12.729  0.1785 -0.3903  0.1628
  289CLA    CLA22417   6.461   1.302  12.918 -0.1793  0.1369 -0.2471
  290CLA    CLA22418   4.087   0.201   1.672 -0.1271  0.2092  0.5820
  291CLA    CLA22419   3.818   1.342  17.314 -0.2094  0.0322  0.2941
  292CLA    CLA22420   5.816   4.038  13.512 -0.4436  0.1661  0.2398
  293CLA    CLA22421   5.803   3.572  14.919  0.0425  0.1605  0.1148
  294CLA    CLA22422   6.616   0.487   4.400  0.0276 -0.0504  0.0977
  295CLA    CLA22423   2.171   3.911   3.765  0.5984 -0.0530 -0.6125
  296CLA    CLA22424   3.584   3.614   1.646 -0.1757 -0.2340  0.1563
  297CLA    CLA22425   5.674   1.343  11.636 -0.0532  0.2802 -0.3652
  298CLA    CLA22426   6.580   6.626  16.553  0.2815  0.2241  0.0798
  299CLA    CLA22427   1.829   3.644   2.061 -0.0623 -0.1869 -0.2336
  300CLA    CLA22428   6.522   2.731   2.257 -0.0593  0.5668  0.3317
  301CLA    CLA22429   4.487   4.033   4.579  0.1024  0.0386  0.3843
  302CLA    CLA22430   1.748   3.944   4.249 -0.5412  0.2801 -0.2017
  303CLA    CLA22431   1.829   4.711  16.190 -0.2368 -0.5097 -0.3056
  304CLA    CLA22432   5.687   6.050  16.020  0.3032 -0.3867  0.0569
  305CLA    CLA22433   1.279   6.339  11.843  0.4458  0.4107  0.0996
  306CLA    CLA22434   4.587   1.796   5.519  0.0082 -0.0030 -0.2655
  307CLA    CLA22435   0.124   4.025  12.509 -0.0340  0.1885  0.0691
  308CLA    CLA22436   4.089   5.036   0.377 -0.3340 -0.5344  0.1818
  309CLA    CLA22437   5.779   1.473   5.121  0.2317  0.2247 -0.4788
  310CLA    CLA22438   4.089   2.479   5.638  0.1371  0.2450 -0.1135
  311CLA    CLA22439   3.478   4.940   4.387 -0.3779 -0.0026  0.0276
  312CLA    CLA22440   2.240   5.292  15.655 -0.1633  0.0915 -0.2992
  313CLA    CLA22441   5.085   5.440  14.021  0.3288 -0.4268  0.0305
  314CLA    CLA22442   2.380   1.719   4.068 -0.0882  0.3929 -0.1964
  315CLA    CLA22443   3.554   4.156   0.156 -0.1793 -0.3004 -0.0456
  316CLA    CLA22444   5.433   3.219  17.371 -0.1045 -0.3491  0.5781
  317CLA    CLA22445   5.831   2.058  11.892  0.1461 -0.1384  0.1709
  318CLA    CLA22446   2.913   2.513   3.375 -0.1996 -0.0165 -0.1403
  319TIP3   OH222447   1.527   2.000  13.018  0.7094  0.1938 -0.1423
  319TIP3    H122448   1.462   1.976  13.084  0.7597  1.5390  0.4073
  319TIP3    H222449   1.508   1.941  12.944 -0.2322 -0.3750  0.5286
  320TIP3   OH222450   5.596   5.213  13.220 -0.3376 -0.0863  0.6316
  320TIP3    H122451   5.651   5.147  13.262  1.6659  1.5782  0.7345
  320TIP3    H222452   5.525   5.228  13.283 -0.0783 -1.1152  1.2015
  321TIP3   OH222453   3.121   3.733  13.141 -0.6232  0.6053  0.7470
  321TIP3    H122454   3.200   3.785  13.128 -0.8423  0.4166 -1.9952
  321TIP3    H222455   3.139   3.679  13.218  2.0010  0.4813  0.1225
  322TIP3   OH222456   0.174   2.212  11.337  0.2286  0.6376  0.8782
  322TIP3    H122457   0.184   2.285  11.398  0.3501 -0.0440  1.7015
  322TIP3    H222458   0.233   2.145  11.371  0.0633  0.1289  0.1806
  323TIP3   OH222459   3.232   6.078  15.423 -0.6967 -0.0921 -0.3108
  323TIP3    H122460   3.316   6.090  15.379 -0.5927 -0.9486 -0.3637
  323TIP3    H222461   3.225   6.152  15.483  0.7990 -0.7969  0.8072
  324TIP3   OH222462   2.281   1.021  12.122  0.0648 -0.0784  0.5869
  324TIP3    H122463   2.241   0.975  12.196 -2.4954 -0.5467 -0.9469
  324TIP3    H222464   2.208   1.067  12.080  2.0439  3.2958  0.4534
  325TIP3   OH222465   3.097   4.355   0.441  0.0978  0.3082 -0.4845
  325TIP3    H122466   3.065   4.389   0.358  0.9674  1.4369 -0.3929
  325TIP3    H222467   3.180   4.401   0.455  0.5990 -0.8143  0.3859
  326TIP3   OH222468   5.570   4.456   6.240 -0.4353 -0.0158  0.5524
  326TIP3    H122469   5.572   4.498   6.327 -2.3832  1.4082 -0.0212
  326TIP3    H222470   5.479   4.430   6.228 -1.0358  2.8332 -2.3627
  327TIP3   OH222471   3.061   3.191   5.946  0.6064 -0.1698 -0.2743
  327TIP3    H122472   3.137   3.174   5.890  0.7773  1.3602 -0.5577
  327TIP3    H222473   3.077   3.137   6.024  1.5702 -0.5062 -0.6815
  328TIP3   OH222474   6.429   4.008   0.916  0.2759  0.4188 -0.1156
  328TIP3    H122475   6.427   4.059   0.835 -0.1155 -1.2879 -1.2240
  328TIP3    H222476   6.384   4.064   0.980 -0.8260  1.1568 -1.4687
  329TIP3   OH222477   6.614   3.064  12.404 -0.1868  0.1511 -0.2044
  329TIP3    H122478   6.705   3.067  12.434 -0.1739 -1.2422 -0.0497
  329TIP3    H222479   6.563   3.044  12.482 -0.4454 -0.6858 -0.5686
  330TIP3   OH222480   4.747   1.213   1.874  0.4477 -0.5997  0.0302
  330TIP3    H122481   4.810   1.280   1.847  0.3040 -0.7450 -0.6656
  330TIP3    H222482   4.744   1.221   1.970  0.9121 -0.0468  0.0043
  331TIP3   OH222483   3.759   2.693  16.109  0.3383  0.1952 -0.0889
  331TIP3    H122484   3.666   2.700  16.133  0.2791 -0.3363 -0.1378
  331TIP3    H222485   3.797   2.776  16.137  0.0528  0.0205  0.8785
  332TIP3   OH222486   3.439   2.456   3.614 -0.3998  0.5327 -0.2979
  332TIP3    H122487   3.344   2.451   3.603 -0.4691 -2.6126  0.9087
  332TIP3    H222488   3.475   2.420   3.532 -0.2402  0.8171 -0.3577
  333TIP3   OH222489   2.016   1.791  12.516 -0.1734  0.2796  0.5224
  333TIP3    H122490   2.047   1.701  12.505  0.7152  0.5821  0.4611
  333TIP3    H222491   1.947   1.785  12.582  0.0512 -0.4084  0.7024
  334TIP3   OH222492   4.489   0.002   1.299 -0.3970 -0.1235 -0.0352
  334TIP3    H122493   4.562  -0.057   1.319  1.5037  1.4836 -1.7694
  334TIP3    H222494   4.497   0.072   1.364 -0.7334 -0.2028  0.0942
  335TIP3   OH222495   3.843   4.670   4.505  0.2967 -0.4398  0.1430
  335TIP3    H122496   3.765   4.685   4.451  1.7435 -1.3355 -2.3855
  335TIP3    H222497   3.878   4.758   4.522 -1.2852 -0.0195  1.4582
  336TIP3   OH222498   2.108   5.350   6.311 -0.2075 -0.3557  0.1777
  336TIP3    H122499   2.148   5.372   6.395  0.0559 -1.6130  0.4057
  336TIP3    H222500   2.077   5.434   6.276 -0.8476  0.1180  1.7895
  337TIP3   OH222501   1.151   4.762   1.657  0.7548 -0.0091  0.2573
  337TIP3    H122502   1.088   4.830   1.634  0.7060  0.0343  0.5147
  337TIP3    H222503   1.120   4.728   1.741  0.7465 -0.3889  0.0990
  338TIP3   OH222504   2.444   2.731   0.939 -0.4989 -0.0541  0.1364
  338TIP3    H122505   2.422   2.760   1.028 -0.7875 -0.4274  0.1875
  338TIP3    H222506   2.440   2.811   0.886  0.0974  0.2482  0.5328
  339TIP3   OH222507   0.018   3.520   4.753  0.0345 -0.2502  0.0548
  339TIP3    H122508  -0.057   3.559   4.797 -1.1720  0.2964 -2.3132
  339TIP3    H222509  -0.017   3.441   4.711  0.7996 -0.0690 -0.9693
  340TIP3   OH222510   2.763   2.508   2.044 -0.3152  0.2206 -0.4384
  340TIP3    H122511   2.696   2.541   2.104 -0.0063 -0.1370  0.1059
  340TIP3    H222512   2.840   2.560   2.062  0.0275 -0.4475  0.0780
  341TIP3   OH222513   4.124   5.316   4.830  0.9017  0.4795 -0.0273
  341TIP3    H122514   4.146   5.405   4.858 -0.0128 -0.0519  2.7047
  341TIP3    H222515   4.050   5.327   4.770 -0.8090  1.5232  2.1414
  342TIP3   OH222516   0.330   2.314  13.315  0.3941  0.7218  0.1901
  342TIP3    H122517   0.395   2.355  13.257  0.0661 -1.0970 -1.5916
  342TIP3    H222518   0.327   2.371  13.392  2.9698  1.7086 -0.3249
  343TIP3   OH222519   2.733   4.215   3.444  0.5875  0.8449 -0.2812
  343TIP3    H122520   2.668   4.191   3.509 -0.5612 -1.1333 -2.0190
  343TIP3    H222521   2.684   4.223   3.362  2.3609  0.2794 -1.4686
  344TIP3   OH222522   3.415   2.025   2.088 -0.6153 -0.7594 -0.3470
  344TIP3    H122523   3.350   2.013   2.019  0.2071 -1.1071 -1.0851
  344TIP3    H222524   3.494   1.985   2.053  0.5539  1.3553 -0.3316
  345TIP3   OH222525   3.379   3.447  11.953  0.2966  0.1093 -0.3212
  345TIP3    H122526   3.341   3.527  11.916 -1.3448 -0.7609 -0.6210
  345TIP3    H222527   3.304   3.401  11.991  0.9760 -1.8770 -1.2551
  346TIP3   OH222528   0.000   4.460  11.056  0.5772  0.4772 -0.4362
  346TIP3    H122529  -0.023   4.367  11.059  0.0149  0.6136 -0.5200
  346TIP3    H222530   0.092   4.462  11.081  1.0966 -0.2780 -2.1157
  347TIP3   OH222531   0.373   2.171   1.481 -0.0437 -0.2452 -0.2429
  347TIP3    H122532   0.454   2.138   1.520  0.3529  0.3963 -0.5107
  347TIP3    H222533   0.367   2.262   1.510 -0.2289 -0.0380 -0.9043
  348TIP3   OH222534   2.883   5.659  16.222 -0.2841 -0.5803 -0.2355
  348TIP3    H122535   2.847   5.575  16.251  0.2520 -0.8973 -0.4849
  348TIP3    H222536   2.806   5.709  16.195 -0.5344 -1.2883 -0.8500
  349TIP3   OH222537   1.603   1.967   0.755  0.3529 -0.1368 -0.2980
  349TIP3    H122538   1.552   1.885   0.760  1.0584 -0.5846 -0.4098
  349TIP3    H222539   1.672   1.956   0.821  1.1967 -0.1490 -1.1743
  350TIP3   OH222540   4.899   5.768  11.402 -0.6474 -0.5345  0.4831
  350TIP3    H122541   4.939   5.702  11.459  2.7310 -1.4695 -2.5678
  350TIP3    H222542   4.856   5.718  11.334 -0.0508  0.3773 -0.6051
  351TIP3   OH222543   3.024   3.092  15.407  0.5946  0.3775  0.6033
  351TIP3    H122544   2.962   3.064  15.340  0.1716  1.5944  0.4598
  351TIP3    H222545   2.971   3.103  15.486  1.2806 -2.2313  1.5425
  352TIP3   OH222546   3.292   5.533   1.964 -0.4055  0.0761 -0.0423
  352TIP3    H122547   3.372   5.483   1.950 -0.9685 -0.4878 -1.3942
  352TIP3    H222548   3.224   5.467   1.974 -0.9205  0.5550 -0.3034
  353TIP3   OH222549   4.523   3.032  13.949  0.0271  0.1268  0.0560
  353TIP3    H122550   4.554   2.947  13.981 -2.1538 -1.0384 -0.6993
  353TIP3    H222551   4.537   3.029  13.855  2.3174  1.7266  0.2763
  354TIP3   OH222552   1.852   2.853  13.139  0.5960  0.2753 -0.7515
  354TIP3    H122553   1.822   2.765  13.162  0.6492  0.4820  0.1327
  354TIP3    H222554   1.922   2.839  13.075  0.9615 -0.3448 -0.2234
  355TIP3   OH222555   3.929   5.019   5.139 -0.4500 -0.2402 -0.1083
  355TIP3    H122556   3.871   4.959   5.186  0.3463 -0.4072  0.6851
  355TIP3    H222557   4.004   5.031   5.198 -0.3880  1.1810 -0.4544
  356TIP3   OH222558   3.363   5.278  12.466  0.7791  0.4537 -0.1646
  356TIP3    H122559   3.324   5.194  12.442 -0.5503  1.1842 -0.7009
  356TIP3    H222560   3.298   5.343  12.439  1.3888  1.6101  1.0240
  357TIP3   OH222561   5.484   6.421   4.432  0.3920  0.5092  0.3002
  357TIP3    H122562   5.575   6.438   4.458  1.0247 -0.3158 -1.2526
  357TIP3    H222563   5.488   6.408   4.337 -1.4291  0.9080  0.1302
  358TIP3   OH222564   0.956   4.700  14.851  0.4367 -0.4352 -0.2044
  358TIP3    H122565   1.015   4.764  14.892 -0.1299 -0.8516  1.3643
  358TIP3    H222566   0.909   4.749  14.784 -0.1734  0.8936  1.1439
  359TIP3   OH222567   4.986   1.646  15.655  0.1908  0.0954  0.2688
  359TIP3    H122568   4.969   1.596  15.734 -0.7262  2.0254  1.3798
  359TIP3    H222569   5.068   1.692  15.673 -0.0531  0.5878  0.1634
  360TIP3   OH222570   3.547   2.441   1.138  0.1157 -0.3852 -0.3869
  360TIP3    H122571   3.627   2.421   1.089  0.5220  0.4797 -0.0926
  360TIP3    H222572   3.552   2.384   1.215  0.3975 -0.4025 -0.4166
  361TIP3   OH222573   5.011   5.375  13.516  0.2364 -0.0871  0.6744
  361TIP3    H122574   4.938   5.313  13.522  1.0042 -0.8968  2.0958
  361TIP3    H222575   4.990   5.430  13.440 -1.3792 -0.8973  0.5033
  362TIP3   OH222576   6.067   5.625   6.300 -0.1094  0.3620 -0.1707
  362TIP3    H122577   6.050   5.658   6.211 -1.8147  2.2160  0.7580
  362TIP3    H222578   6.040   5.533   6.296 -1.3406  0.7291 -1.2847
  363TIP3   OH222579   6.065   1.486   2.660  0.8284  0.3353  0.0171
  363TIP3    H122580   6.140   1.438   2.625  0.3643 -0.5488  0.2079
  363TIP3    H222581   6.014   1.420   2.707 -0.4454  0.7751 -0.7057
  364TIP3   OH222582   6.153   6.104  12.684  0.2812 -0.0429 -0.4519
  364TIP3    H122583   6.085   6.086  12.620  1.1302 -2.0544 -0.8501
  364TIP3    H222584   6.224   6.143  12.633  0.9789 -1.6955 -0.7934
  365TIP3   OH222585   3.167   1.908   5.646 -0.0865 -0.0582  0.0482
  365TIP3    H122586   3.212   1.953   5.718 -0.8766 -0.8320  1.0550
  365TIP3    H222587   3.092   1.964   5.626 -0.3978 -0.3128  0.4845
  366TIP3   OH222588   5.437   2.173   6.106 -0.4303  0.6749  0.6661
  366TIP3    H122589   5.350   2.191   6.144 -0.8188  1.1449 -0.3881
  366TIP3    H222590   5.482   2.122   6.173 -1.9776 -0.6939  0.7397
  367TIP3   OH222591   1.625   0.663  13.568 -0.4250 -0.0261 -0.0739
  367TIP3    H122592   1.658   0.752  13.572 -0.0951 -0.0676 -1.3874
  367TIP3    H222593   1.641   0.627  13.655  1.1367  0.6112 -0.0666
  368TIP3   OH222594   6.299   6.486  12.695  0.3560 -0.3790 -0.3266
  368TIP3    H122595   6.310   6.416  12.760 -0.6922  0.2706  0.5927
  368TIP3    H222596   6.211   6.519  12.711  1.1649  1.8171 -0.0551
  369TIP3   OH222597   1.190   4.785   6.321 -0.3639  0.4406 -0.2814
  369TIP3    H122598   1.182   4.753   6.411 -0.7324  1.3822  0.0323
  369TIP3    H222599   1.099   4.803   6.295 -0.1388  1.5372 -0.3286
  370TIP3   OH222600   1.261   0.496   0.172  0.6632 -0.0916 -0.3474
  370TIP3    H122601   1.353   0.471   0.177  0.8847  0.8465  1.2277
  370TIP3    H222602   1.222   0.435   0.109  2.1906 -0.9926 -0.4666
  371TIP3   OH222603   3.094   1.563   3.615  0.1397 -0.1755  0.2026
  371TIP3    H122604   3.182   1.600   3.618 -0.2774  0.7945  1.5479
  371TIP3    H222605   3.036   1.639   3.606 -0.5415 -0.8672 -1.7644
  372TIP3   OH222606   1.023   0.941   4.336  0.0256 -0.6399 -0.2456
  372TIP3    H122607   1.090   0.933   4.268  0.4199 -1.1273  0.1939
  372TIP3    H222608   1.062   0.899   4.413 -1.9199 -3.7184 -0.7800
  373TIP3   OH222609   4.946   6.702   1.987  0.1715 -0.2330  0.1756
  373TIP3    H122610   4.947   6.761   2.062  0.6994 -0.7962  0.6282
  373TIP3    H222611   4.891   6.746   1.923  1.0014  1.0171  0.2787
  374TIP3   OH222612   3.936   5.488   3.961  0.1718  0.1994 -0.4499
  374TIP3    H122613   3.980   5.443   3.888 -0.6697 -1.3429 -0.0571
  374TIP3    H222614   3.876   5.422   3.996  0.4450  0.9660  1.5467
  375TIP3   OH222615   2.287   1.768   6.921 -0.4236  0.8730 -0.7539
  375TIP3    H122616   2.248   1.851   6.950 -0.2013  0.7989 -0.2418
  375TIP3    H222617   2.212   1.710   6.907 -0.5750  1.1344 -1.0368
  376TIP3   OH222618   5.095   0.560   3.195 -0.1923 -0.2670  0.1470
  376TIP3    H122619   5.089   0.534   3.103  1.6994 -1.4735  0.3060
  376TIP3    H222620   5.137   0.485   3.238  0.1325  0.7945  1.7482
  377TIP3   OH222621   1.271   5.604  11.531  0.0704  0.0694  0.2368
  377TIP3    H122622   1.177   5.618  11.515 -0.0347  0.0392  0.8176
  377TIP3    H222623   1.306   5.691  11.547  0.2624  0.1524 -0.5661
  378TIP3   OH222624   4.114   1.096  14.107  0.2357  0.5500  0.1175
  378TIP3    H122625   4.044   1.106  14.171  1.0872 -0.3315  1.2184
  378TIP3    H222626   4.112   1.004  14.082  0.0312  0.8406 -1.0142
  379TIP3   OH222627   5.067   0.311   0.529 -0.3127 -0.1123  0.3608
  379TIP3    H122628   5.111   0.368   0.591  0.0410  1.5198 -1.3355
  379TIP3    H222629   5.097   0.339   0.443 -1.8948 -1.3410 -0.6630
  380TIP3   OH222630   2.960   0.941  12.050  0.5717  0.0835  0.2979
  380TIP3    H122631   2.903   0.969  11.979 -1.4859 -0.2550  1.7221
  380TIP3    H222632   3.001   0.860  12.017  0.9758  0.8151 -1.0846
  381TIP3   OH222633   3.164   1.612  15.949  0.0388 -0.4067 -0.3434
  381TIP3    H122634   3.198   1.596  15.861 -1.7539 -0.0882 -1.1426
  381TIP3    H222635   3.171   1.707  15.960 -0.8126 -0.3052 -0.6260
  382TIP3   OH222636   5.780   2.149  17.116  0.1220 -0.2384 -0.1887
  382TIP3    H122637   5.763   2.234  17.157 -0.4593 -0.2494 -0.3997
  382TIP3    H222638   5.733   2.153  17.032 -0.3668 -0.9727  0.0408
  383TIP3   OH222639   2.282   3.755  17.239  0.4292  0.0613  0.2697
  383TIP3    H122640   2.346   3.727  17.173  0.4978  1.8002 -0.4637
  383TIP3    H222641   2.336   3.784  17.313  0.4384  0.1895  0.2132
  384TIP3   OH222642   5.677   3.334  11.781 -0.0702  0.0398  0.7770
  384TIP3    H122643   5.645   3.251  11.817 -3.7486 -0.0962 -2.1745
  384TIP3    H222644   5.629   3.401  11.829 -1.4148  0.0902 -0.5814
  385TIP3   OH222645   4.359   5.025  13.935  1.3031  0.6839  0.5953
  385TIP3    H122646   4.423   5.096  13.936  2.2770 -0.0003 -2.4322
  385TIP3    H222647   4.294   5.052  13.870  0.1531  0.0192  1.4415
  386TIP3   OH222648   5.632   3.060  13.258 -0.7292 -0.1932 -0.2574
  386TIP3    H122649   5.694   2.988  13.250  0.3372  0.8273 -1.9045
  386TIP3    H222650   5.547   3.018  13.271  0.0527 -1.6815  0.2077
  387TIP3   OH222651   4.489   2.169  16.157 -0.3685 -0.1529  0.8415
  387TIP3    H122652   4.564   2.199  16.208 -0.2793  1.3852 -0.1521
  387TIP3    H222653   4.416   2.169  16.220 -0.7503  3.7776  0.6479
  388TIP3   OH222654   0.891   3.130  17.292 -0.2478 -0.7643  0.7294
  388TIP3    H122655   0.841   3.190  17.237  2.2232 -0.2785 -1.1503
  388TIP3    H222656   0.914   3.057  17.234  2.8632  0.0080  0.8168
  389TIP3   OH222657   2.680   4.925  16.571 -0.6282 -0.6408 -0.1086
  389TIP3    H122658   2.650   4.941  16.661 -0.5661 -2.1566  0.2030
  389TIP3    H222659   2.710   4.834  16.571  2.4167  0.2494 -0.8405
  390TIP3   OH222660   1.906   0.764   2.287  0.4642  0.2442  1.0072
  390TIP3    H122661   1.863   0.777   2.203 -0.6462 -0.6345  1.4152
  390TIP3    H222662   1.896   0.847   2.333 -0.6316  0.1181  1.0120
  391TIP3   OH222663   2.573   6.445  16.690 -0.2510  0.1870 -0.0732
  391TIP3    H122664   2.554   6.469  16.599  1.0907 -2.0716 -1.0339
  391TIP3    H222665   2.503   6.383  16.713 -0.1917  0.2155  0.1848
  392TIP3   OH222666   4.010   0.873  17.253  0.7448  0.7526 -0.3245
  392TIP3    H122667   4.009   0.824  17.336  0.4513  0.4754 -0.4888
  392TIP3    H222668   3.940   0.937  17.262  0.2050  0.2113 -0.6605
  393TIP3   OH222669   6.540   3.905   3.645 -0.0032  0.1727 -0.4438
  393TIP3    H122670   6.558   3.830   3.588  0.6932 -0.1929  0.2334
  393TIP3    H222671   6.526   3.866   3.732  0.1370  0.8066 -0.1305
  394TIP3   OH222672   4.013   4.838  17.207 -0.0688 -0.1677  0.4305
  394TIP3    H122673   4.012   4.934  17.205 -2.4557 -0.1350 -1.2146
  394TIP3    H222674   3.959   4.816  17.284 -0.6302 -0.1534  0.0481
  395TIP3   OH222675   0.477   4.564   4.141 -0.6820 -0.1265  0.1369
  395TIP3    H122676   0.515   4.559   4.053 -2.1283 -0.6525 -0.4854
  395TIP3    H222677   0.404   4.502   4.139 -1.3324  0.5659  1.4048
  396TIP3   OH222678   5.844   2.504   5.863 -0.0866  0.1152 -0.1976
  396TIP3    H122679   5.854   2.493   5.957  0.3399  0.1267 -0.2409
  396TIP3    H222680   5.912   2.449   5.825 -0.2417  0.1291 -0.4963
  397TIP3   OH222681   0.925   4.900  14.314  0.4298 -0.2260 -0.0116
  397TIP3    H122682   0.941   4.825  14.257  1.7455  1.6505 -2.3170
  397TIP3    H222683   0.905   4.972  14.254  1.5603  1.8141  1.9058
  398TIP3   OH222684   5.446   5.176   4.419 -0.1234 -0.0070  0.0353
  398TIP3    H122685   5.374   5.140   4.472 -0.8317  0.8441 -0.3382
  398TIP3    H222686   5.435   5.135   4.333 -0.1170  0.0681 -0.0009
  399TIP3   OH222687   2.410   4.440   4.433 -0.3456 -0.2724  0.1174
  399TIP3    H122688   2.435   4.349   4.416 -0.7114 -0.5109  0.8077
  399TIP3    H222689   2.322   4.434   4.471 -0.1328  0.3211  0.7277
  400TIP3   OH222690   6.763   3.653   1.260  0.4322 -0.6578 -0.3502
  400TIP3    H122691   6.729   3.656   1.171 -0.0315 -1.1773 -0.1959
  400TIP3    H222692   6.697   3.605   1.309  0.6311 -0.2798  0.3012
  401TIP3   OH222693   2.143   6.661   3.135  0.5389  0.3142 -0.2513
  401TIP3    H122694   2.107   6.608   3.206  3.1030  0.2765  1.1241
  401TIP3    H222695   2.157   6.598   3.064  0.2391 -0.1408  0.0859
  402TIP3   OH222696   3.365   0.482  13.407 -0.3134 -0.2771 -0.1384
  402TIP3    H122697   3.340   0.455  13.319  1.6153 -0.6019 -0.6211
  402TIP3    H222698   3.390   0.574  13.398 -2.3461  0.4144  0.5838
  403TIP3   OH222699   0.039   3.116  16.624 -0.4799 -0.1398 -0.9039
  403TIP3    H122700   0.086   3.191  16.586  0.0037  0.2896  0.4946
  403TIP3    H222701  -0.044   3.113  16.576 -0.3017  0.9863 -1.3092
  404TIP3   OH222702   4.727   6.764   1.801  0.2347 -0.1964  0.1853
  404TIP3    H122703   4.648   6.758   1.854 -1.3574  2.6893 -1.6174
  404TIP3    H222704   4.717   6.695   1.735  0.6653 -1.6714  1.5949
  405TIP3   OH222705   6.050   5.072  14.703 -0.4489 -0.0934  0.1208
  405TIP3    H122706   6.010   5.129  14.769 -0.2843 -0.2596  0.3693
  405TIP3    H222707   5.983   5.007  14.684 -1.3587  1.2579 -1.5668
  406TIP3   OH222708   2.023   3.829  15.110  0.1265  0.1270 -0.1599
  406TIP3    H122709   2.045   3.760  15.046  0.6910  0.2125 -0.0612
  406TIP3    H222710   2.052   3.910  15.068  2.4207  0.0063  1.0216
  407TIP3   OH222711   3.680   5.361  13.269 -0.0489  0.0815 -0.1886
  407TIP3    H122712   3.719   5.276  13.288  0.0782  0.4031  1.0642
  407TIP3    H222713   3.641   5.389  13.352 -1.0890  0.7345 -0.8668
  408TIP3   OH222714   3.596   4.258   2.262 -0.6969  0.1526  0.3288
  408TIP3    H122715   3.673   4.271   2.319 -0.5485  1.7841 -0.1851
  408TIP3    H222716   3.526   4.231   2.322 -0.8813  3.0213  1.5738
  409TIP3   OH222717   2.434   3.945  12.824 -0.1983  0.6396  0.1393
  409TIP3    H122718   2.450   3.859  12.784 -1.1851 -0.0681  1.1977
  409TIP3    H222719   2.520   3.972  12.857  0.6790  1.2845 -2.4040
  410TIP3   OH222720   1.771   2.945   4.114 -0.2817  0.3426  0.2112
  410TIP3    H122721   1.758   2.984   4.200 -0.2257  0.5126  0.1416
  410TIP3    H222722   1.684   2.942   4.076 -0.0511  2.1525 -0.5513
  411TIP3   OH222723   6.177   6.559   5.531  0.1865 -0.6372  0.3111
  411TIP3    H122724   6.120   6.505   5.587  1.9477 -0.0733  2.8003
  411TIP3    H222725   6.116   6.614   5.481 -1.5539  0.5640  3.4865
  412TIP3   OH222726   3.464   0.221  12.174 -0.3003 -0.0204 -0.4905
  412TIP3    H122727   3.457   0.151  12.109 -2.9641 -0.7769  0.4500
  412TIP3    H222728   3.494   0.298  12.124  2.2040 -1.6368 -1.6381
  413TIP3   OH222729   5.699   4.612  14.795 -0.3414  0.2840 -0.3804
  413TIP3    H122730   5.647   4.561  14.733 -1.5464  0.9153  0.0729
  413TIP3    H222731   5.753   4.547  14.841 -1.4177 -0.5098 -0.2145
  414TIP3   OH222732   3.704   4.665  12.764 -0.6638  0.1173 -0.2759
  414TIP3    H122733   3.635   4.690  12.702 -0.2070 -0.8270 -1.1920
  414TIP3    H222734   3.751   4.594  12.721 -2.5026 -3.1394  2.5677
  415TIP3   OH222735   1.263   1.575  16.542  0.2709 -0.2744  0.2762
  415TIP3    H122736   1.220   1.640  16.598 -0.6842  0.7702 -1.5667
  415TIP3    H222737   1.333   1.623  16.499 -0.7603 -0.2729 -1.4912
  416TIP3   OH222738   1.789   6.732  11.656  0.2629  0.4756  0.4742
  416TIP3    H122739   1.865   6.778  11.693  2.8040 -2.1828 -1.0221
  416TIP3    H222740   1.826   6.655  11.614 -3.3175 -0.8393 -0.6195
  417TIP3   OH222741   0.259   0.959   1.653 -0.1809  0.1552 -0.2685
  417TIP3    H122742   0.223   0.907   1.581  0.0859  0.3812 -0.5676
  417TIP3    H222743   0.341   0.995   1.619 -0.5001  1.0005 -0.1670
  418TIP3   OH222744   5.896   2.338   3.984  0.1970 -0.3634  0.3602
  418TIP3    H122745   5.818   2.311   4.034  0.0320  1.9435  1.4538
  418TIP3    H222746   5.940   2.401   4.041  1.5932  0.1739 -1.2495
  419TIP3   OH222747   0.712   5.600  12.322 -0.2932  1.1129  0.2365
  419TIP3    H122748   0.626   5.609  12.362 -1.1517  1.6783 -1.6192
  419TIP3    H222749   0.725   5.681  12.273  0.2064  0.0827 -1.4479
  420TIP3   OH222750   6.474   4.025  16.493  0.2034  0.2325 -0.3376
  420TIP3    H122751   6.501   4.103  16.541  0.9518  0.6039 -1.3424
  420TIP3    H222752   6.548   3.964  16.503  0.0119 -0.0010 -0.3354
  421TIP3   OH222753   4.640   1.569  11.488 -0.5788  0.1355  0.2673
  421TIP3    H122754   4.617   1.576  11.581 -0.9060 -0.5242  0.2433
  421TIP3    H222755   4.675   1.655  11.466  1.9792 -0.4326  1.6749
  422TIP3   OH222756   2.442   2.692   3.701  0.4314  0.3429  0.1328
  422TIP3    H122757   2.358   2.733   3.723  0.3565 -0.0608  0.6040
  422TIP3    H222758   2.502   2.766   3.686  0.4021  0.6249  1.3529
  423TIP3   OH222759   4.721   1.890   3.076 -0.1275 -0.4972  0.1598
  423TIP3    H122760   4.723   1.833   3.000 -1.2275 -0.7114  0.2750
  423TIP3    H222761   4.713   1.831   3.151  2.2572 -0.3596  0.5717
  424TIP3   OH222762   5.514   1.029   0.899  0.1096 -0.0168  0.4714
  424TIP3    H122763   5.434   0.991   0.934  0.5837  0.7088  2.4930
  424TIP3    H222764   5.584   0.970   0.927  0.3562 -0.5250 -1.0764
  425TIP3   OH222765   3.745   2.077   1.449  0.1374 -0.1363 -0.3160
  425TIP3    H122766   3.834   2.106   1.469  0.5885 -1.3152 -0.4922
  425TIP3    H222767   3.757   1.990   1.410 -1.1224 -0.4854  0.0374
  426TIP3   OH222768   4.611   2.184  15.704  0.3379  0.7996  0.2592
  426TIP3    H122769   4.634   2.273  15.677  0.5399  0.9992  1.0488
  426TIP3    H222770   4.685   2.130  15.674  1.1098  1.1905  1.3787
  427TIP3   OH222771   4.458   4.931   3.124  0.2778 -0.0552  0.6448
  427TIP3    H122772   4.526   4.873   3.091  0.6569 -0.1197  1.5090
  427TIP3    H222773   4.409   4.958   3.046  1.7109  0.5502 -0.0822
  428TIP3   OH222774   5.159   2.851   1.497  0.0457  0.3166 -0.1036
  428TIP3    H122775   5.127   2.929   1.543  0.6608  0.8642 -0.5937
  428TIP3    H222776   5.124   2.859   1.408  1.2355  0.7450 -0.5477
  429TIP3   OH222777   3.454   5.700  12.023  0.8948  0.8174  0.6202
  429TIP3    H122778   3.468   5.760  11.950 -2.1108  0.9017 -0.0294
  429TIP3    H222779   3.398   5.748  12.084 -1.8280 -1.2582 -0.0273
  430TIP3   OH222780   3.115   1.370  17.067 -0.2883  0.2511 -0.2545
  430TIP3    H122781   3.172   1.447  17.068  1.2446 -0.8167  1.3320
  430TIP3    H222782   3.030   1.403  17.040  0.3672  2.4592  0.1896
  431TIP3   OH222783   5.924   5.006   3.852  0.5448 -0.2796 -0.6088
  431TIP3    H122784   5.896   5.097   3.864  1.5359 -0.0582  0.1543
  431TIP3    H222785   5.951   4.978   3.939  0.0398 -1.3858 -0.7947
  432TIP3   OH222786   3.756   3.596  13.679 -0.4987 -0.7939  0.2250
  432TIP3    H122787   3.662   3.579  13.692 -0.2679 -2.5795 -0.1276
  432TIP3    H222788   3.799   3.523  13.724  0.7587  0.2651  0.7910
  433TIP3   OH222789   3.185   6.141  11.229  0.0072 -0.7876  0.0698
  433TIP3    H122790   3.234   6.144  11.311 -0.0508 -0.7377  0.1033
  433TIP3    H222791   3.098   6.108  11.254  0.3247 -1.8176 -0.1438
  434TIP3   OH222792   2.631   6.475   3.050 -0.7708 -0.0983  0.0081
  434TIP3    H122793   2.640   6.564   3.084 -0.7954 -0.0888 -0.0108
  434TIP3    H222794   2.583   6.486   2.968 -1.7547 -0.2472  0.5582
  435TIP3   OH222795   2.401   4.093   2.368  0.0351 -0.2082  0.1748
  435TIP3    H122796   2.459   4.031   2.414 -0.5929 -0.6533  0.3870
  435TIP3    H222797   2.407   4.067   2.276 -0.7287 -1.0232  0.3430
  436TIP3   OH222798   1.091   6.435  13.847 -0.2153  0.0453  0.0719
  436TIP3    H122799   1.005   6.433  13.804  0.0799  0.5854 -0.5642
  436TIP3    H222800   1.125   6.347  13.837 -1.5010 -0.7447  2.0428
  437TIP3   OH222801   2.818   5.050   5.077 -0.3431  0.9990 -0.2577
  437TIP3    H122802   2.864   4.974   5.113  1.3290  1.6351 -0.9679
  437TIP3    H222803   2.811   5.032   4.983 -3.9108 -0.2465  0.0801
  438TIP3   OH222804   2.938   0.923   4.100 -0.3680 -0.2025  0.2496
  438TIP3    H122805   2.981   0.987   4.155 -1.9854  0.9474  0.2410
  438TIP3    H222806   2.855   0.963   4.076 -0.0714 -0.9562 -2.4095
  439TIP3   OH222807   5.265   0.005   6.301  0.4234  0.4539  0.0400
  439TIP3    H122808   5.227  -0.040   6.225 -0.5389 -0.6290  1.1295
  439TIP3    H222809   5.349  -0.038   6.314  0.0705 -0.1612  0.2969
  440TIP3   OH222810   5.430   0.736   3.612 -0.4216 -0.1441  0.2504
  440TIP3    H122811   5.365   0.803   3.591 -0.9717 -0.4762  0.8665
  440TIP3    H222812   5.481   0.726   3.531 -0.4246  0.9070  0.1015
  441TIP3   OH222813   4.720   6.500  16.430  0.2906 -0.0427  0.1167
  441TIP3    H122814   4.716   6.587  16.469  0.0956  1.6327 -3.2937
  441TIP3    H222815   4.784   6.508  16.359 -1.1478 -2.0955 -1.5427
  442TIP3   OH222816   6.484   4.630  13.632 -0.2041 -0.4187  0.1212
  442TIP3    H122817   6.531   4.573  13.693 -0.4410 -0.1243  0.5803
  442TIP3    H222818   6.451   4.571  13.564 -1.4716 -1.0079  1.2190
  443TIP3   OH222819   0.792   3.924  17.031 -0.3002 -0.4458  0.6774
  443TIP3    H122820   0.847   3.960  16.961  0.3525 -0.9890  0.8979
  443TIP3    H222821   0.768   3.837  16.999 -2.0923  0.2370  0.0207
  444TIP3   OH222822   3.646   2.081   0.160  0.5880 -0.3017 -0.4500
  444TIP3    H122823   3.639   2.150   0.095  0.2742 -0.5716 -0.7035
  444TIP3    H222824   3.639   2.000   0.110  1.1381 -0.5242 -0.1792
  445TIP3   OH222825   5.883   3.919  12.765 -0.4264 -0.3984  0.4177
  445TIP3    H122826   5.906   3.935  12.856  0.6922 -2.1364  0.4914
  445TIP3    H222827   5.865   3.825  12.761  1.7712 -0.8264 -1.5452
  446TIP3   OH222828   0.689   2.401   6.845 -0.3555 -0.3989 -1.0426
  446TIP3    H122829   0.654   2.488   6.864  2.1388  0.1261  1.8330
  446TIP3    H222830   0.784   2.413   6.839  0.1806 -2.9849  0.4382
  447TIP3   OH222831   0.297   2.484   4.488 -0.5536  0.3424 -0.1882
  447TIP3    H122832   0.380   2.531   4.497 -0.1383 -0.3008 -0.5425
  447TIP3    H222833   0.249   2.532   4.421 -0.9776  1.4090  0.8502
  448TIP3   OH222834   1.702   4.965  14.527 -0.4034  0.7637 -0.2117
  448TIP3    H122835   1.797   4.976  14.537 -0.7053  2.7310  0.9843
  448TIP3    H222836   1.684   4.996  14.438  0.2770 -1.6121 -1.2567
  449TIP3   OH222837   6.498   5.173   5.683  0.0341  0.0355 -0.2947
  449TIP3    H122838   6.486   5.207   5.594 -1.4829 -2.0680 -0.9684
  449TIP3    H222839   6.581   5.125   5.679 -0.0009 -0.0072 -0.5597
  450TIP3   OH222840   2.460   6.360  12.737 -0.1750 -0.2537 -0.5480
  450TIP3    H122841   2.485   6.272  12.767 -0.2646  0.4732  1.8775
  450TIP3    H222842   2.443   6.409  12.817 -3.3055  1.1236 -1.8840
  451TIP3   OH222843   3.038   2.093  12.267 -0.0404 -0.0893 -0.3468
  451TIP3    H122844   3.039   1.998  12.278 -2.4720 -0.1183  0.2074
  451TIP3    H222845   3.075   2.127  12.349  0.3237 -0.5459 -0.3208
  452TIP3   OH222846   2.190   5.312  17.223 -0.6310 -0.2292  0.0588
  452TIP3    H122847   2.187   5.312  17.319 -1.4302  0.4089  0.0419
  452TIP3    H222848   2.262   5.252  17.201 -1.3829 -1.5427  1.0223
  453TIP3   OH222849   6.214   3.868  13.970  0.7085 -0.3970 -0.0530
  453TIP3    H122850   6.152   3.906  14.033 -0.4526 -2.0002 -0.1550
  453TIP3    H222851   6.204   3.923  13.892 -0.3021 -0.3830  0.0655
  454TIP3   OH222852   0.019   2.098  16.582 -0.4250 -0.2331  0.0755
  454TIP3    H122853   0.018   2.128  16.491 -0.3939  2.3970  0.8461
  454TIP3    H222854   0.054   2.173  16.631 -2.1494 -0.8848  2.4660
  455TIP3   OH222855   0.619   6.741   6.214  0.3096 -0.0407  0.3977
  455TIP3    H122856   0.551   6.696   6.264  0.8077 -0.9000  0.3142
  455TIP3    H222857   0.694   6.682   6.216  0.9269  0.7205  0.1522
  456TIP3   OH222858   1.458   3.173   2.288 -0.0426  0.1999  0.2630
  456TIP3    H122859   1.389   3.238   2.302 -0.0866 -0.3689  3.1242
  456TIP3    H222860   1.539   3.221   2.302  0.1894  0.6421 -2.1786
  457TIP3   OH222861   4.375   5.722   0.212  0.1980  0.3585 -0.1369
  457TIP3    H122862   4.439   5.686   0.274  1.3613 -0.2880 -1.6439
  457TIP3    H222863   4.304   5.657   0.210  0.3500  0.1834  0.2000
  458TIP3   OH222864   4.037   3.979  13.245  0.3004  0.0433 -0.3861
  458TIP3    H122865   4.059   4.072  13.232  0.2972 -0.1333 -1.7977
  458TIP3    H222866   3.941   3.977  13.242  0.3277 -0.1563 -1.6511
  459TIP3   OH222867   5.500   5.620  12.027  0.1023  0.0370  0.2903
  459TIP3    H122868   5.467   5.677  12.097  0.6365  1.5974 -0.6627
  459TIP3    H222869   5.562   5.562  12.070 -1.1102 -0.4464  1.4479
  460TIP3   OH222870   4.508   6.054   2.923 -0.3255  0.1517  0.6747
  460TIP3    H122871   4.483   5.973   2.878  0.2349  0.7434 -0.7789
  460TIP3    H222872   4.583   6.030   2.977 -0.2940 -0.3564  0.4100
  461TIP3   OH222873   5.271   5.825  13.616  0.2016  0.6213  0.5235
  461TIP3    H122874   5.198   5.885  13.602  0.4546  1.6436  3.0126
  461TIP3    H222875   5.231   5.748  13.656  0.2077  0.1513 -0.3489
  462TIP3   OH222876   3.768   3.885  15.548  0.1108  0.0142 -0.2317
  462TIP3    H122877   3.680   3.909  15.576  0.5813  0.0967  1.2876
  462TIP3    H222878   3.781   3.796  15.579  1.1289  0.5732  1.0335
  463TIP3   OH222879   4.055   3.903  14.022 -0.7024  0.5991  0.1460
  463TIP3    H122880   3.981   3.857  13.983 -0.6968  0.0980  0.7160
  463TIP3    H222881   4.112   3.834  14.056  0.0082  0.9769 -0.2359
  464TIP3   OH222882   2.139   3.930  16.517  0.4809  0.0270 -0.0934
  464TIP3    H122883   2.178   3.846  16.540  0.7197  0.0799 -0.2994
  464TIP3    H222884   2.065   3.907  16.460 -0.7354 -0.1679  1.4906
  465TIP3   OH222885   2.797   3.746   5.298 -0.3143  0.3140  0.5855
  465TIP3    H122886   2.738   3.745   5.222 -0.8969  0.3191  1.0288
  465TIP3    H222887   2.738   3.747   5.373  0.2460 -1.2261  1.0786
  466TIP3   OH222888   1.458   1.360  14.594  0.0586 -0.5385  0.0951
  466TIP3    H122889   1.460   1.356  14.690 -0.4108 -1.7098  0.0833
  466TIP3    H222890   1.377   1.315  14.571 -0.0456  0.1123 -0.8477
  467TIP3   OH222891   3.342   2.204   0.191  0.2767 -0.0106  0.7414
  467TIP3    H122892   3.255   2.211   0.231 -1.5888  0.8871 -3.0080
  467TIP3    H222893   3.383   2.131   0.237 -3.4225 -2.0950  1.1596
  468TIP3   OH222894   3.786   5.665   4.676 -0.2674 -0.4305  0.2433
  468TIP3    H122895   3.735   5.626   4.746  0.1525  0.4953  1.0967
  468TIP3    H222896   3.863   5.702   4.719 -0.3398  0.7800 -0.5850
  469TIP3   OH222897   4.646   0.330   5.254  0.1496  0.2964 -0.0175
  469TIP3    H122898   4.674   0.303   5.341  3.5686  2.9501 -0.0576
  469TIP3    H222899   4.656   0.426   5.254  0.0803  0.4343 -3.2402
  470TIP3   OH222900   0.485   4.991  16.697  0.5070 -0.2647 -0.0695
  470TIP3    H122901   0.535   4.973  16.776  0.2023 -1.1549 -0.0644
  470TIP3    H222902   0.526   5.069  16.659  0.2742  0.5314  1.2638
  471TIP3   OH222903   6.541   5.122  14.679  0.0223  0.5228  0.0671
  471TIP3    H122904   6.475   5.072  14.630 -0.4281  0.9867  0.2006
  471TIP3    H222905   6.564   5.194  14.620  0.3696  0.3971  0.0458
  472TIP3   OH222906   0.247   2.855  15.388 -0.3045  0.4259 -0.2607
  472TIP3    H122907   0.153   2.869  15.375 -0.3779  0.5414  0.3984
  472TIP3    H222908   0.268   2.900  15.469 -0.0586 -1.1752  0.6125
  473TIP3   OH222909   5.003   0.491   0.896  0.3416  0.0831  0.3643
  473TIP3    H122910   4.982   0.567   0.950  0.8786 -0.7057  1.7179
  473TIP3    H222911   5.014   0.419   0.958 -0.4479 -1.1902 -0.8983
  474TIP3   OH222912   4.359   2.615  15.102 -0.3761 -0.1001  0.2911
  474TIP3    H122913   4.383   2.622  15.195  1.2826 -2.1368  0.1079
  474TIP3    H222914   4.314   2.531  15.095 -0.3519 -0.0373 -0.7664
  475TIP3   OH222915   6.619   4.024  11.859 -0.2206 -0.0554 -0.7109
  475TIP3    H122916   6.608   4.013  11.953  1.0821 -0.1677 -0.5431
  475TIP3    H222917   6.579   3.946  11.820 -1.3811  0.3234 -0.3083
  476TIP3   OH222918   4.055   6.075   1.934  0.3542 -0.2355 -0.0962
  476TIP3    H122919   4.038   6.105   2.024 -1.1279  1.3003 -0.8319
  476TIP3    H222920   3.973   6.089   1.888  1.6927  1.0887 -2.2552
  477TIP3   OH222921   2.888   5.356  12.633  0.3325  0.4351  0.6482
  477TIP3    H122922   2.882   5.447  12.604  1.3185  0.0472 -0.8977
  477TIP3    H222923   2.967   5.354  12.688  0.6813  0.3994  0.1551
  478TIP3   OH222924   1.698   1.915  12.481  0.3558 -0.4527  0.1104
  478TIP3    H122925   1.613   1.956  12.465  0.1422 -0.6356  0.7426
  478TIP3    H222926   1.740   1.972  12.547  0.3326 -0.8730  0.4965
  479TIP3   OH222927   1.376   5.904   1.121  0.5432  0.2906  0.4294
  479TIP3    H122928   1.358   5.827   1.175 -0.7272  0.2146 -0.0918
  479TIP3    H222929   1.429   5.871   1.049 -1.0999 -0.3668 -0.5110
  480TIP3   OH222930   2.620   4.852  11.992  0.3684  0.1083 -0.3689
  480TIP3    H122931   2.631   4.797  11.915  1.9935 -1.0358  0.6218
  480TIP3    H222932   2.619   4.791  12.065 -1.0351  1.1813  0.5532
  481TIP3   OH222933   4.454   5.403  14.305 -0.0949 -0.0318 -0.1510
  481TIP3    H122934   4.446   5.498  14.304  1.9234  0.1802  0.1938
  481TIP3    H222935   4.410   5.375  14.385  1.1557  0.8542  0.8853
  482TIP3   OH222936   4.556   5.619   3.625 -0.1055 -0.5129 -0.0744
  482TIP3    H122937   4.556   5.690   3.561 -0.8087 -1.5312 -1.2745
  482TIP3    H222938   4.465   5.587   3.624  0.0998 -1.1410  0.7396
  483TIP3   OH222939   5.511   0.141  16.922 -0.1613  0.1787 -0.1690
  483TIP3    H122940   5.585   0.128  16.863  0.6482 -1.1021  1.0322
  483TIP3    H222941   5.435   0.112  16.873  0.2855  0.5085 -1.0705
  484TIP3   OH222942   0.873   0.398   4.574  0.3158  0.3461 -0.0930
  484TIP3    H122943   0.825   0.433   4.499 -0.2006 -0.0701  0.0363
  484TIP3    H222944   0.814   0.333   4.612 -0.4326  2.1808  2.0874
  485TIP3   OH222945   0.357   6.574  16.443 -0.1360 -0.0997  0.2948
  485TIP3    H122946   0.320   6.658  16.415  0.2899  0.8124  2.2400
  485TIP3    H222947   0.407   6.543  16.368 -1.9520  0.3409 -1.1811
  486TIP3   OH222948   3.805   3.442   0.069 -0.1517 -0.3520 -0.0942
  486TIP3    H122949   3.727   3.496   0.080 -0.6315 -1.0336 -0.0785
  486TIP3    H222950   3.865   3.470   0.139 -0.3221  0.2645 -0.1899
  487TIP3   OH222951   4.801   6.174  15.661 -0.2726 -0.3624 -0.0734
  487TIP3    H122952   4.814   6.267  15.640  0.5916 -0.5454 -0.3632
  487TIP3    H222953   4.864   6.156  15.731 -2.5696  0.0349  2.2622
  488TIP3   OH222954   5.484   2.814   4.436 -0.0502 -0.0600  0.2663
  488TIP3    H122955   5.506   2.854   4.520 -2.0576  1.2028  0.2649
  488TIP3    H222956   5.401   2.770   4.452  0.8512 -2.1071 -0.4188
  489TIP3   OH222957   1.927   5.689  13.774 -0.0511 -0.2123  0.3305
  489TIP3    H122958   2.007   5.739  13.788  0.7949 -1.3539 -0.2165
  489TIP3    H222959   1.856   5.749  13.796  0.6508  2.6732 -4.0850
  490TIP3   OH222960   1.293   5.642   4.387 -0.5201 -0.4217  0.0576
  490TIP3    H122961   1.241   5.636   4.467 -1.9336 -2.9826 -0.9046
  490TIP3    H222962   1.285   5.733   4.359 -1.9361 -0.0293  1.5852
  491TIP3   OH222963   4.229   6.332   1.846 -0.1157 -0.0656  0.0454
  491TIP3    H122964   4.187   6.271   1.906 -0.4194 -0.3459 -0.4459
  491TIP3    H222965   4.158   6.389   1.816  0.4565  1.7770  1.9199
  492TIP3   OH222966   0.682   0.894   1.652 -0.1688  0.5935 -0.1097
  492TIP3    H122967   0.727   0.810   1.648 -0.1547  0.6505 -2.2657
  492TIP3    H222968   0.596   0.874   1.688 -0.8138 -0.6716 -2.2365
  493TIP3   OH222969   1.022   6.481   5.822 -0.5412  0.2189 -0.3241
  493TIP3    H122970   1.110   6.517   5.810 -0.1232 -0.8320 -0.6041
  493TIP3    H222971   0.982   6.536   5.889  0.3858  0.6343 -0.0987
  494TIP3   OH222972   3.624   6.545   3.335  0.3201  0.1548  0.4335
  494TIP3    H122973   3.700   6.557   3.279  1.0691 -0.5492  1.2761
  494TIP3    H222974   3.581   6.467   3.300 -0.4554  0.9686 -0.4983
  495TIP3   OH222975   5.401   0.685  10.857  0.1480 -0.4472  0.9609
  495TIP3    H122976   5.486   0.725  10.875 -0.1138  1.1783 -1.0336
  495TIP3    H222977   5.418   0.591  10.860  2.1455 -0.1698  0.1731
  496TIP3   OH222978   4.533   2.154  12.308  0.1764 -0.5946  0.1213
  496TIP3    H122979   4.555   2.241  12.273 -0.2130 -0.8092 -0.6914
  496TIP3    H222980   4.438   2.158  12.323  0.2902 -0.6076  0.8964
  497TIP3   OH222981   1.045   1.503   6.109 -0.0819 -0.1888  0.1827
  497TIP3    H122982   1.135   1.474   6.120  0.0377 -0.0628 -0.4115
  497TIP3    H222983   1.024   1.547   6.191  0.5495  0.1789  0.1537
  498TIP3   OH222984   4.745   4.770   2.466 -0.4420  0.1403  0.1041
  498TIP3    H122985   4.763   4.864   2.468 -0.4290  0.1483 -0.2453
  498TIP3    H222986   4.664   4.760   2.515  0.4562  0.1189  1.6245
  499TIP3   OH222987   5.100   4.352  15.736  0.0445  0.0881  0.2524
  499TIP3    H122988   5.022   4.316  15.779  0.2235 -1.8234 -0.8939
  499TIP3    H222989   5.159   4.277  15.727  2.0487  1.4929  1.0884
  500TIP3   OH222990   1.916   5.266   4.936 -0.2867 -0.0471  0.0733
  500TIP3    H122991   1.849   5.292   4.872 -0.7994 -4.2861 -1.4778
  500TIP3    H222992   1.997   5.302   4.903 -1.0476  0.6832 -1.0618
  501TIP3   OH222993   4.965   6.561   3.554 -0.1664 -0.2921  0.0798
  501TIP3    H122994   4.932   6.533   3.639  1.7714 -0.8433  0.6979
  501TIP3    H222995   4.916   6.509   3.491 -1.8621  0.3607  0.8032
  502TIP3   OH222996   6.525   1.321   5.047  0.4823  0.0829 -0.0951
  502TIP3    H122997   6.545   1.227   5.040 -0.8897 -0.2415 -0.0883
  502TIP3    H222998   6.441   1.323   5.093 -0.6437  1.1797 -2.0677
  503TIP3   OH222999   2.409   1.081   4.867  0.1748  0.2664 -0.2325
  503TIP3    H123000   2.461   1.090   4.787  1.7038  0.2721  0.7340
  503TIP3    H223001   2.460   1.022   4.922  0.1219  1.7576  1.5072
  504TIP3   OH223002   3.514   0.713   4.578 -0.4734 -0.1301 -0.1684
  504TIP3    H123003   3.526   0.795   4.530  0.8583  1.1870  2.1686
  504TIP3    H223004   3.449   0.734   4.645 -2.1394 -1.8360 -1.1867
  505TIP3   OH223005   1.575   2.565   2.505 -0.4119  0.1508  0.2665
  505TIP3    H123006   1.606   2.525   2.424 -2.1864  0.2395 -0.4916
  505TIP3    H223007   1.616   2.513   2.574  0.7252 -0.2424 -0.6809
  506TIP3   OH223008   0.362   4.410  12.878 -0.1317  0.0037 -0.1039
  506TIP3    H123009   0.295   4.463  12.922  1.8636  1.8597  0.9292
  506TIP3    H223010   0.435   4.409  12.940  2.9156  2.9098 -3.2736
  507TIP3   OH223011   4.097   5.037  11.690 -0.3314  0.0016 -0.0334
  507TIP3    H123012   4.097   5.094  11.767 -0.0606  0.7228 -0.5674
  507TIP3    H223013   4.004   5.024  11.671 -0.4087 -0.4332  0.5881
  508TIP3   OH223014   0.412   6.400  12.501 -0.4753  0.0273  0.3484
  508TIP3    H123015   0.461   6.404  12.582  0.2442 -0.2353 -0.0683
  508TIP3    H223016   0.455   6.332  12.449 -1.3769 -0.3212  0.0414
  509TIP3   OH223017   2.388   2.563  11.965  0.0555  0.1767  0.2528
  509TIP3    H123018   2.401   2.530  12.053 -2.1639 -1.4994  0.0338
  509TIP3    H223019   2.378   2.485  11.911 -2.4494  1.1242 -0.7934
  510TIP3   OH223020   6.185   2.771   0.644  0.1961 -0.3066 -0.7083
  510TIP3    H123021   6.239   2.804   0.573  0.9956 -0.3648 -0.1462
  510TIP3    H223022   6.104   2.742   0.602 -0.0776  1.3281 -1.3484
  511TIP3   OH223023   1.603   3.800   1.103 -0.2270  0.0451 -0.0755
  511TIP3    H123024   1.546   3.876   1.092 -1.1952 -0.7207 -0.5461
  511TIP3    H223025   1.659   3.800   1.025 -0.3105  0.2015 -0.1340
  512TIP3   OH223026   6.512   1.675  10.997  0.4817  0.3389  0.1787
  512TIP3    H123027   6.424   1.638  11.010  0.2314  1.2662  1.2006
  512TIP3    H223028   6.511   1.758  11.043  2.0609  0.1478  0.6341
  513TIP3   OH223029   5.092   2.358  17.296  0.0812  0.0605 -0.2963
  513TIP3    H123030   5.121   2.267  17.283  1.2208  0.6945 -2.6564
  513TIP3    H223031   5.160   2.396  17.352 -0.1310 -0.3860  0.2797
  514TIP3   OH223032   5.912   6.246   5.422 -0.1798  0.0588  0.1293
  514TIP3    H123033   5.875   6.199   5.348  3.3313 -1.3121 -0.9896
  514TIP3    H223034   5.907   6.338   5.398 -0.6677 -0.2533 -0.9934
  515TIP3   OH223035   5.777   3.509  11.344  0.4129 -0.0443 -0.4340
  515TIP3    H123036   5.731   3.551  11.416 -1.9617 -1.7359 -0.8219
  515TIP3    H223037   5.761   3.566  11.269 -1.0489 -0.5280 -0.5304
  516TIP3   OH223038   3.313   0.390   0.034 -0.1728 -0.1760  1.1312
  516TIP3    H123039   3.340   0.397   0.125  1.4879 -2.2369  0.8756
  516TIP3    H223040   3.393   0.404  -0.016 -1.2063  1.7792 -0.1150
  517TIP3   OH223041   4.916   2.656  12.192  0.0510  0.1838 -0.6369
  517TIP3    H123042   4.963   2.734  12.220 -1.8813  0.9650  0.6895
  517TIP3    H223043   4.951   2.586  12.247 -1.1243  0.9962  1.2286
  518TIP3   OH223044   2.175   0.338  12.297  0.2103 -0.6367  0.4795
  518TIP3    H123045   2.138   0.426  12.291  0.2453 -0.5922  0.8844
  518TIP3    H223046   2.255   0.342  12.244  0.6345 -0.1965  1.1447
  519TIP3   OH223047   1.107   0.194   0.310  0.1064  0.1533  0.4682
  519TIP3    H123048   1.061   0.241   0.241  1.3270  0.8057  0.0717
  519TIP3    H223049   1.070   0.228   0.391  1.1032  1.9856  0.1987
  520TIP3   OH223050   1.094   3.678   0.818  0.5528 -0.1178  0.6196
  520TIP3    H123051   1.029   3.747   0.802 -1.0826 -1.8215 -0.4659
  520TIP3    H223052   1.155   3.685   0.744 -0.2712 -0.5419 -0.1116
  521TIP3   OH223053   0.966   1.164   3.612  0.5963  0.4930  0.1244
  521TIP3    H123054   0.966   1.124   3.699  1.2462  0.0984 -0.0446
  521TIP3    H223055   0.940   1.254   3.626 -0.1950  0.1996  0.6105
  522TIP3   OH223056   1.062   4.234   0.322 -1.0601  0.1119 -0.3589
  522TIP3    H123057   1.076   4.204   0.232 -0.5638 -0.0524 -0.2324
  522TIP3    H223058   1.134   4.296   0.337 -0.4418 -0.7471  0.3169
  523TIP3   OH223059   5.561   1.987   0.805 -0.7202  0.3223 -0.1110
  523TIP3    H123060   5.534   2.040   0.880  2.3263  0.0954  1.2887
  523TIP3    H223061   5.611   2.047   0.750  1.5670 -0.6342  0.7921
  524TIP3   OH223062   3.956   0.183  11.310  0.2799 -0.2009 -0.3643
  524TIP3    H123063   3.926   0.248  11.246 -0.3485 -0.9982 -0.8978
  524TIP3    H223064   3.992   0.112  11.257  1.0102 -0.2699  0.2144
  525TIP3   OH223065   3.740   4.433  11.696 -0.4134 -0.6276 -0.0296
  525TIP3    H123066   3.660   4.477  11.725  1.4977  3.2953 -0.0171
  525TIP3    H223067   3.746   4.455  11.603 -0.1493 -2.3019 -0.4267
  526TIP3   OH223068   1.352   1.449  12.577  0.0796  0.4396 -0.2794
  526TIP3    H123069   1.260   1.430  12.598 -0.0778  0.7020 -0.7056
  526TIP3    H223070   1.347   1.512  12.505  0.5647  2.7303  1.5586
  527TIP3   OH223071   1.134   2.806  13.649  0.0187 -0.4323 -0.3974
  527TIP3    H123072   1.066   2.770  13.593 -1.9169  2.0226  0.1641
  527TIP3    H223073   1.200   2.737  13.655 -2.0772 -2.6883 -1.5420
  528TIP3   OH223074   3.000   3.161  14.927  0.6020  0.1840 -0.1123
  528TIP3    H123075   2.972   3.220  14.996  1.0893  1.3731 -0.8990
  528TIP3    H223076   3.079   3.119  14.962 -0.6026 -1.2282  1.0652
  529TIP3   OH223077   5.687   4.239  17.430 -0.2856  0.4722  0.0403
  529TIP3    H123078   5.616   4.232  17.495 -1.1601  4.5600 -0.2319
  529TIP3    H223079   5.656   4.187  17.356 -2.1643  0.6345  0.6522
  530TIP3   OH223080   1.744   6.081   5.886  0.3195  0.4307  0.4544
  530TIP3    H123081   1.827   6.127   5.900  0.9356 -0.9201  1.5049
  530TIP3    H223082   1.690   6.143   5.838  1.9309  1.3476 -0.2440
  531TIP3   OH223083   2.476   0.772   0.527  0.5975 -0.4867 -0.0548
  531TIP3    H123084   2.381   0.775   0.514  0.6063 -1.4674 -0.3962
  531TIP3    H223085   2.505   0.861   0.507 -0.1726 -0.3592 -0.6596
  532TIP3   OH223086   2.606   4.822   0.358 -0.5614  0.2848 -0.4768
  532TIP3    H123087   2.511   4.836   0.359 -0.2809  2.7870 -1.0659
  532TIP3    H223088   2.632   4.831   0.450 -0.9630 -1.3416 -0.1778
  533TIP3   OH223089   2.400   0.489  15.978 -0.7396 -0.3597  0.5631
  533TIP3    H123090   2.464   0.553  15.948  1.2737 -2.0594  1.0084
  533TIP3    H223091   2.410   0.487  16.073 -4.0690  1.8977  1.1394
  534TIP3   OH223092   3.112   2.511   0.376  0.1285 -0.6244  0.2852
  534TIP3    H123093   3.080   2.445   0.315  0.8936 -0.6893 -0.0646
  534TIP3    H223094   3.171   2.565   0.323 -1.8167  1.4554  0.1032
  535TIP3   OH223095   4.868   5.025   1.249 -0.0495 -0.4236 -0.4418
  535TIP3    H123096   4.839   5.040   1.159  0.8524 -3.4173 -1.3327
  535TIP3    H223097   4.963   5.029   1.244 -0.0083  0.1132  0.5698
  536TIP3   OH223098   3.966   2.438   4.667  0.1354 -1.3062 -0.2672
  536TIP3    H123099   4.047   2.489   4.674 -0.7956  0.1486  0.4833
  536TIP3    H223100   3.933   2.458   4.580  0.9639 -2.5290 -0.8787
  537TIP3   OH223101   5.359   2.889  14.756 -0.1751  0.1619 -0.2074
  537TIP3    H123102   5.394   2.977  14.772 -0.4884 -0.0068  1.6500
  537TIP3    H223103   5.402   2.861  14.676  1.2694  1.3420  0.1024
  538TIP3   OH223104   5.859   5.640  11.236  0.1243  0.8275  0.0336
  538TIP3    H123105   5.950   5.646  11.205 -0.3976  0.0521 -1.8061
  538TIP3    H223106   5.835   5.549  11.220 -0.3495  0.4562  2.4980
  539TIP3   OH223107   2.347   0.234   0.989  0.0585  0.2779  0.3264
  539TIP3    H123108   2.308   0.174   0.925  1.3831  0.8708 -1.1177
  539TIP3    H223109   2.330   0.194   1.074 -0.4217 -1.3443 -0.5008
  540TIP3   OH223110   5.276   0.797  12.057  0.2188 -0.2850  0.0617
  540TIP3    H123111   5.355   0.848  12.075 -0.6746  1.8352 -1.5435
  540TIP3    H223112   5.292   0.758  11.971  0.1857 -1.2702  0.4959
  541TIP3   OH223113   0.928   2.005  12.188  0.0791  0.3877  0.2518
  541TIP3    H123114   0.932   1.956  12.270 -0.1779  2.5390  1.6199
  541TIP3    H223115   1.010   2.054  12.185  0.3926 -0.1656 -1.1517
  542TIP3   OH223116   5.573   4.472   2.520 -0.0801  0.1608 -0.3442
  542TIP3    H123117   5.642   4.484   2.456  0.4634 -0.4319  0.1160
  542TIP3    H223118   5.588   4.542   2.585  0.0508  0.0697 -0.2763
  543TIP3   OH223119   6.136   1.731  12.755 -0.0273  0.6923  0.1796
  543TIP3    H123120   6.119   1.810  12.806 -1.2305  0.9041 -0.5160
  543TIP3    H223121   6.149   1.662  12.820  0.5956  1.3649  0.7838
  544TIP3   OH223122   0.845   2.950  12.459  0.5767  0.7206 -0.0702
  544TIP3    H123123   0.856   2.935  12.553 -1.1069  2.1713  0.4108
  544TIP3    H223124   0.769   3.007  12.453  0.8701  0.9485 -2.3113
  545TIP3   OH223125   5.049   4.978   5.850  0.1346  0.4294 -0.0557
  545TIP3    H123126   5.131   4.965   5.899  1.2369 -1.2467 -2.1619
  545TIP3    H223127   5.069   5.050   5.790  0.7530 -1.1364 -1.8080
  546TIP3   OH223128   0.160   5.485   4.269  0.2938  0.1435  0.1304
  546TIP3    H123129   0.112   5.446   4.196  0.4657  1.6399 -0.8306
  546TIP3    H223130   0.108   5.560   4.295  0.7336  0.1905  0.8969
  547TIP3   OH223131   5.232   1.632  10.830  0.1895  0.1106  0.4083
  547TIP3    H123132   5.189   1.547  10.822  0.3069  0.1991 -1.8545
  547TIP3    H223133   5.167   1.695  10.800  1.0485  0.4858 -0.7308
  548TIP3   OH223134   4.479   2.073   1.336 -0.3065  0.2132  0.5810
  548TIP3    H123135   4.445   2.156   1.371  0.3591  0.7178  0.0768
  548TIP3    H223136   4.526   2.034   1.410  1.4650  1.4818  0.2144
  549TIP3   OH223137   5.688   1.225  15.407  0.2721  0.1056 -0.8959
  549TIP3    H123138   5.642   1.218  15.323  0.2798  0.0780 -0.8980
  549TIP3    H223139   5.643   1.163  15.464  2.0682 -2.0159 -1.6775
  550TIP3   OH223140   4.544   3.939  16.110  0.2285 -0.2648 -0.6562
  550TIP3    H123141   4.551   3.853  16.070 -1.4062 -0.8918  0.3104
  550TIP3    H223142   4.567   3.925  16.202 -2.1512 -0.1754  0.0128
  551TIP3   OH223143   5.260   3.237   1.395 -0.2110  0.3577 -0.9264
  551TIP3    H123144   5.326   3.178   1.360  1.3889  0.5583  1.5473
  551TIP3    H223145   5.262   3.222   1.490 -2.7213  1.4073 -0.6302
  552TIP3   OH223146   3.930   3.835  11.774  0.0137 -0.4341 -0.4076
  552TIP3    H123147   3.971   3.758  11.814 -0.1812  0.6155  2.0202
  552TIP3    H223148   3.999   3.902  11.775 -0.5570  0.1541 -0.1033
  553TIP3   OH223149   0.728   4.090   1.237 -0.4608  0.0313 -0.2156
  553TIP3    H123150   0.766   4.036   1.168 -1.3778  1.9527 -2.3305
  553TIP3    H223151   0.634   4.079   1.227 -0.6125 -0.7004  1.6601
  554TIP3   OH223152   0.558   4.246   5.557 -0.4258  0.1996  0.3463
  554TIP3    H123153   0.519   4.160   5.543  1.2499 -0.5829  0.2184
  554TIP3    H223154   0.493   4.295   5.607 -0.8963 -1.5546  1.5065
  555TIP3   OH223155   1.379   3.540  14.895 -0.1549  0.3047  0.2474
  555TIP3    H123156   1.381   3.540  14.799  1.9965  0.4116  0.2560
  555TIP3    H223157   1.422   3.621  14.921  0.0023 -0.0981  1.3158
  556TIP3   OH223158   0.072   6.432  11.603 -0.5017  0.2966  0.2359
  556TIP3    H123159   0.054   6.420  11.510  0.9446  1.3622 -0.2016
  556TIP3    H223160  -0.012   6.462  11.639 -1.3437 -1.0277 -0.5082
  557TIP3   OH223161   4.092   5.042  15.101  0.5585 -0.1869  0.2490
  557TIP3    H123162   4.120   5.114  15.157 -0.1518  1.0630 -0.9260
  557TIP3    H223163   3.997   5.041  15.108  0.4502 -0.0051 -0.8746
  558TIP3   OH223164   5.108   1.485  11.768 -0.2582  0.3222 -0.2604
  558TIP3    H123165   5.045   1.546  11.807  0.2093  0.9896 -0.5321
  558TIP3    H223166   5.181   1.540  11.742 -0.1601 -0.2509 -1.2250
  559TIP3   OH223167   4.572   5.106   4.892 -0.0138 -0.0429 -0.1777
  559TIP3    H123168   4.503   5.141   4.836  0.5188 -0.3807 -1.0658
  559TIP3    H223169   4.561   5.152   4.975 -2.6265 -1.5532  0.4507
  560TIP3   OH223170   3.552   0.258   3.987 -0.1741 -0.1475 -0.2194
  560TIP3    H123171   3.579   0.319   3.919 -1.1403  0.7777  0.2006
  560TIP3    H223172   3.472   0.295   4.023 -0.1108 -1.0149  0.9036
  561TIP3   OH223173   3.766   4.967  15.191  0.7343  0.2649 -0.1071
  561TIP3    H123174   3.681   4.927  15.208  0.7552  0.3720  0.2511
  561TIP3    H223175   3.753   5.017  15.110  0.4684  0.2508 -0.0727
  562TIP3   OH223176   5.915   6.709  12.048  0.3150 -0.1052 -0.4856
  562TIP3    H123177   5.893   6.728  12.140  0.6241 -1.4304 -0.1012
  562TIP3    H223178   5.856   6.637  12.025  2.0898 -1.6469 -0.4137
  563TIP3   OH223179   2.927   4.071   1.185 -0.1088 -0.2467  0.2931
  563TIP3    H123180   2.910   4.165   1.179  0.4846 -0.1851 -0.7476
  563TIP3    H223181   2.953   4.057   1.275 -0.3235  0.5694  0.4950
  564TIP3   OH223182   3.194   6.512  11.359  0.0256  0.2563 -0.6027
  564TIP3    H123183   3.226   6.511  11.268  0.7149 -0.0478 -0.3636
  564TIP3    H223184   3.100   6.525  11.351 -0.2886 -2.1007 -1.4672
  565TIP3   OH223185   6.180   0.848  15.110  0.4941  0.2966 -0.5078
  565TIP3    H123186   6.136   0.880  15.188 -0.8872  1.4779 -1.7224
  565TIP3    H223187   6.186   0.753  15.123 -0.7771  0.3317  0.4979
  566TIP3   OH223188   3.041   0.981   3.017  0.4591  0.2216  0.4802
  566TIP3    H123189   2.994   1.030   3.086  0.3220  0.4185  0.2508
  566TIP3    H223190   3.031   0.889   3.042  0.1108  0.2732  0.5376
  567TIP3   OH223191   4.665   2.453   5.165 -0.3821  0.5200  0.0811
  567TIP3    H123192   4.577   2.487   5.179 -1.5806 -2.3679  0.2767
  567TIP3    H223193   4.655   2.388   5.095  2.0292  1.5591 -1.3484
  568TIP3   OH223194   2.748   1.143  11.891 -0.2718  0.2741  0.5009
  568TIP3    H123195   2.760   1.129  11.985 -0.4616  1.5065  0.7248
  568TIP3    H223196   2.804   1.219  11.871  1.9822 -1.6262 -0.9487
  569TIP3   OH223197   0.606   4.029   1.520 -0.0409  0.1710 -0.4194
  569TIP3    H123198   0.659   4.101   1.553 -0.7036  0.4184  0.1256
  569TIP3    H223199   0.640   4.012   1.432  1.1849  0.0693  0.0670
  570TIP3   OH223200   4.005   0.497   6.674 -0.0353  0.2693  0.4274
  570TIP3    H123201   4.029   0.428   6.612  1.2447 -0.0291  1.2051
  570TIP3    H223202   3.913   0.482   6.693  0.2407 -1.2789  0.6277
  571TIP3   OH223203   2.799   2.054   1.098  0.1117  0.9555 -0.0390
  571TIP3    H123204   2.856   2.111   1.046 -0.1350  1.7845  0.5681
  571TIP3    H223205   2.718   2.105   1.110 -0.0085  0.5992  0.7539
  572TIP3   OH223206   4.003   0.022  12.796  0.5644  0.4328  1.0267
  572TIP3    H123207   3.932   0.084  12.779  0.4275  0.0799  0.2842
  572TIP3    H223208   4.074   0.051  12.740  0.0831 -0.7808 -0.2773
  573TIP3   OH223209   0.544   1.029  12.788 -0.2908  0.2906 -0.0293
  573TIP3    H123210   0.579   0.962  12.730  0.5091  0.1525  0.6032
  573TIP3    H223211   0.618   1.086  12.808 -0.3487 -0.1208  1.4787
  574TIP3   OH223212   5.223   5.253  14.464 -0.1799  0.1905  0.1763
  574TIP3    H123213   5.188   5.289  14.545 -0.4808  0.5369 -0.1051
  574TIP3    H223214   5.287   5.187  14.492 -0.3584  0.2371  0.6920
  575TIP3   OH223215   6.140   6.322  13.525 -0.2474 -0.3100 -0.7483
  575TIP3    H123216   6.120   6.384  13.455  0.3124 -0.5779 -1.1516
  575TIP3    H223217   6.091   6.356  13.601 -1.6462 -0.5582 -1.5006
  576TIP3   OH223218   3.844   0.554   5.946 -0.6744  0.2979 -0.0772
  576TIP3    H123219   3.905   0.490   5.982  0.1712  0.4545 -1.1662
  576TIP3    H223220   3.883   0.581   5.863 -1.7657  1.1098 -0.3626
  577TIP3   OH223221   2.646   1.579   2.069  0.3425  0.2533 -0.1439
  577TIP3    H123222   2.611   1.516   2.133  0.5876 -1.1706 -1.3531
  577TIP3    H223223   2.569   1.628   2.040 -0.0060 -0.1309  0.1165
  578TIP3   OH223224   3.276   3.368   5.270  0.3879 -0.5538  0.2470
  578TIP3    H123225   3.275   3.411   5.355  0.0818  2.1163 -1.0003
  578TIP3    H223226   3.369   3.346   5.256  0.8013  1.0442  0.3351
  579TIP3   OH223227   6.534   4.915   3.751  0.4778 -0.0434  0.7495
  579TIP3    H123228   6.602   4.880   3.694  1.9378  0.5411  2.0913
  579TIP3    H223229   6.462   4.936   3.691  1.5711 -0.3719 -0.7364
  580TIP3   OH223230   5.144   2.600   6.000 -0.2352  0.2344 -0.4212
  580TIP3    H123231   5.210   2.657   6.040  0.4366  0.7394 -2.1447
  580TIP3    H223232   5.177   2.583   5.912 -0.9957 -1.9344 -0.3449
  581TIP3   OH223233   3.122   4.444   1.224  0.3667  0.0910  0.3807
  581TIP3    H123234   3.199   4.399   1.257 -0.1679 -0.3168  1.1060
  581TIP3    H223235   3.155   4.524   1.184  1.3084 -0.7735 -0.6379
  582TIP3   OH223236   4.259   2.427   1.907 -0.4095  0.5326 -0.0381
  582TIP3    H123237   4.302   2.353   1.863 -0.0918  0.5229  0.2798
  582TIP3    H223238   4.217   2.476   1.837 -0.2499  0.2922 -0.3043
  583TIP3   OH223239   2.129   0.064  16.681  0.6308 -0.2224 -0.3371
  583TIP3    H123240   2.083   0.138  16.641  0.2189 -0.2570  0.0605
  583TIP3    H223241   2.221   0.090  16.683  0.5107  0.2068 -0.3508
  584TIP3   OH223242   3.380   6.621   1.927  0.4656 -0.2920 -0.0971
  584TIP3    H123243   3.347   6.555   1.988 -0.5071  0.4212  0.1777
  584TIP3    H223244   3.302   6.661   1.889  1.0399 -0.9263 -2.0776
  585TIP3   OH223245   3.443   0.437   1.327  0.8209 -0.0868 -0.4114
  585TIP3    H123246   3.463   0.358   1.376  0.2942  0.0792  0.0814
  585TIP3    H223247   3.431   0.504   1.394 -1.4432 -0.1938 -0.6510
  586TIP3   OH223248   1.328   6.442   4.519 -0.8757 -0.4125  0.0268
  586TIP3    H123249   1.347   6.373   4.456 -0.5021  0.8694 -1.3296
  586TIP3    H223250   1.236   6.429   4.543 -1.4868 -0.0413 -1.9784
  587TIP3   OH223251   0.679   0.641  14.849  0.0844 -0.5681  0.0299
  587TIP3    H123252   0.775   0.650  14.853  0.2535 -1.2348 -1.6817
  587TIP3    H223253   0.648   0.679  14.931  1.6301  2.3084 -0.5493
  588TIP3   OH223254   1.843   3.080   2.398  0.0079  0.3362 -0.3972
  588TIP3    H123255   1.785   3.152   2.422  0.0275  0.4281 -0.6249
  588TIP3    H223256   1.810   3.050   2.313 -2.3651 -2.3501  1.2862
  589TIP3   OH223257   6.389   5.339   1.863 -0.3208 -0.0992 -0.2144
  589TIP3    H123258   6.368   5.263   1.917 -1.7458  0.4726  0.0944
  589TIP3    H223259   6.451   5.307   1.798 -0.5685 -1.4167  0.1813
  590TIP3   OH223260   1.793   4.328  14.019  0.0331 -0.1222 -0.6365
  590TIP3    H123261   1.877   4.326  14.066 -0.0036  1.1006 -0.4675
  590TIP3    H223262   1.791   4.414  13.978 -1.0641 -0.2034 -0.7892
  591TIP3   OH223263   1.982   0.918  14.385  0.5452 -0.3538 -0.1252
  591TIP3    H123264   1.930   0.999  14.393 -0.9361 -1.2402 -0.3897
  591TIP3    H223265   2.067   0.948  14.354 -0.2680  1.0407 -1.1637
  592TIP3   OH223266   3.409   2.965  16.027  0.3113 -0.0064 -0.0860
  592TIP3    H123267   3.323   2.942  15.991 -0.6147  1.4381  1.0755
  592TIP3    H223268   3.419   2.905  16.102 -1.4412  2.1412  2.0465
  593TIP3   OH223269   1.049   0.830   1.523 -0.0473 -0.0961 -0.7085
  593TIP3    H123270   1.008   0.744   1.513 -1.4040  0.5794 -1.3365
  593TIP3    H223271   0.978   0.892   1.504  1.1963  1.1512 -1.4775
  594TIP3   OH223272   0.644   6.391   1.195 -0.5916 -0.1244 -0.0660
  594TIP3    H123273   0.588   6.313   1.189  1.2285 -1.6288  1.0671
  594TIP3    H223274   0.726   6.358   1.231  0.3213  2.3311  0.2980
  595TIP3   OH223275   3.508   3.097   4.249 -0.0239 -0.4669 -0.1793
  595TIP3    H123276   3.456   3.169   4.285  0.0386 -0.6305  0.2410
  595TIP3    H223277   3.452   3.020   4.256  0.2126 -0.6138  0.1261
  596TIP3   OH223278   2.037   0.215  17.337  1.0187 -0.1505  0.7895
  596TIP3    H123279   1.971   0.165  17.288  0.3280  2.7341 -1.5320
  596TIP3    H223280   2.111   0.155  17.345 -0.2038 -1.9764 -0.6454
  597TIP3   OH223281   2.684   2.824  13.047  0.2738  0.0835 -0.4543
  597TIP3    H123282   2.715   2.907  13.010 -0.5569  0.4617 -0.3417
  597TIP3    H223283   2.685   2.763  12.973 -1.0384  0.7436 -1.0553
  598TIP3   OH223284   1.067   1.039  10.616 -0.4153  0.2003  0.2677
  598TIP3    H123285   1.022   1.123  10.615 -2.8413 -0.9904  0.0586
  598TIP3    H223286   1.119   1.040  10.696  0.4238  2.2452 -0.2498
  599TIP3   OH223287   2.205   5.460   3.498 -0.5318  0.4000 -0.1307
  599TIP3    H123288   2.216   5.543   3.452 -2.2123  0.8316  0.2026
  599TIP3    H223289   2.173   5.484   3.585 -0.2192 -0.5633  0.2651
  600TIP3   OH223290   0.922   0.956   5.771  0.0928 -0.2799 -0.0400
  600TIP3    H123291   0.830   0.965   5.744  0.4000  2.6235 -0.5092
  600TIP3    H223292   0.971   1.003   5.704  1.6935  0.1280  1.3445
  601TIP3   OH223293   5.063   2.955  14.078 -0.7576  0.0551  0.0122
  601TIP3    H123294   5.039   2.955  13.985 -0.2679 -0.3795 -0.1202
  601TIP3    H223295   4.980   2.956  14.125 -1.0508 -1.7439 -0.4234
  602TIP3   OH223296   0.541   1.029  13.430 -0.0424  0.6726 -0.0871
  602TIP3    H123297   0.629   1.022  13.394 -0.1118 -1.1955 -0.0232
  602TIP3    H223298   0.486   1.052  13.355  0.3465  0.7545 -0.3524
  603TIP3   OH223299   1.206   2.428   2.570 -0.5314  0.5658  0.1873
  603TIP3    H123300   1.288   2.384   2.589 -1.3705 -2.2860 -2.1757
  603TIP3    H223301   1.231   2.507   2.523  0.8999  1.4857  2.3193
  604TIP3   OH223302   6.212   1.723  14.625 -0.1641  0.0056 -0.6125
  604TIP3    H123303   6.234   1.788  14.558  0.2931  1.5353  0.9209
  604TIP3    H223304   6.240   1.639  14.589 -0.4593  0.6943 -2.5429
  605TIP3   OH223305   6.535   0.930  13.029  0.4735  0.1139  0.0166
  605TIP3    H123306   6.607   0.993  13.016 -0.3738  2.0550  3.4392
  605TIP3    H223307   6.457   0.978  13.003  0.0792 -0.6019 -0.1286
  606TIP3   OH223308   3.125   6.617  16.261  0.7897  0.4019  0.7178
  606TIP3    H123309   3.057   6.630  16.327  1.1888 -1.1786  1.4919
  606TIP3    H223310   3.200   6.667  16.294  1.3599 -1.2605  2.1187
  607TIP3   OH223311   1.207   3.958   2.015  0.1954 -0.4606  0.2929
  607TIP3    H123312   1.118   3.982   2.044  0.7908  1.1528  0.9015
  607TIP3    H223313   1.235   4.031   1.961  1.3920 -0.6527  0.6289
  608TIP3   OH223314   0.690   2.017   5.690 -0.0180  0.1186  0.3681
  608TIP3    H123315   0.662   1.926   5.680 -1.6407  0.7165 -1.0956
  608TIP3    H223316   0.655   2.044   5.774 -0.4154 -0.3038  0.3438
  609TIP3   OH223317   1.806   0.081  17.224  0.2302  0.2203 -0.0332
  609TIP3    H123318   1.764   0.057  17.142 -1.6422  0.1071  0.8910
  609TIP3    H223319   1.814  -0.002  17.272 -0.6764  0.5729  0.7457
  610TIP3   OH223320   1.382   5.015  11.600  0.2817 -0.2443  1.1098
  610TIP3    H123321   1.374   4.965  11.681 -1.1869 -1.8507  0.0499
  610TIP3    H223322   1.292   5.022  11.567  0.7296  1.1941  0.0809
  611TIP3   OH223323   3.909   3.537  17.015 -0.1060 -0.5167 -0.0304
  611TIP3    H123324   3.936   3.593  16.943 -2.0905  0.2367 -0.2564
  611TIP3    H223325   3.952   3.453  16.998  0.2096 -0.0654 -1.5477
  612TIP3   OH223326   6.042   2.795  13.611  0.0889  0.1208 -0.2332
  612TIP3    H123327   5.964   2.826  13.658  1.4652 -0.5185  2.7242
  612TIP3    H223328   6.113   2.850  13.644  1.0680  0.0970 -2.1904
  613TIP3   OH223329   6.068   0.490  15.399  0.0554  0.0997 -0.1902
  613TIP3    H123330   6.057   0.548  15.474  1.2060 -1.6773  1.4410
  613TIP3    H223331   6.156   0.455  15.409  0.2431 -0.1918 -2.4193
  614TIP3   OH223332   2.954   6.633  14.484  0.1187  0.2326 -0.0113
  614TIP3    H123333   2.883   6.610  14.544 -0.4078 -0.3089 -0.8196
  614TIP3    H223334   2.968   6.553  14.432  0.3512  0.7879 -0.8204
  615TIP3   OH223335   5.557   3.963   0.451 -0.0621  0.5032  0.1162
  615TIP3    H123336   5.469   3.935   0.423  0.3528 -2.1939  1.2597
  615TIP3    H223337   5.574   4.041   0.398 -1.5447 -1.1146 -3.0769
  616TIP3   OH223338   5.397   5.419   6.125 -0.0652 -0.2105  0.2728
  616TIP3    H123339   5.385   5.365   6.047  0.8423 -0.0588  0.0074
  616TIP3    H223340   5.411   5.356   6.196  2.2359 -0.3862 -0.2435
  617TIP3   OH223341   4.192   0.097   2.467 -0.1976 -0.0312 -0.3850
  617TIP3    H123342   4.227   0.074   2.553  1.7289  1.7430 -0.6304
  617TIP3    H223343   4.269   0.120   2.415 -1.4418  0.2953 -2.1782
  618TIP3   OH223344   6.099   2.235   3.803 -0.2340  0.3880  0.5867
  618TIP3    H123345   6.039   2.277   3.864 -1.0897 -2.4537  1.8669
  618TIP3    H223346   6.051   2.232   3.720 -0.7477  0.5782  0.8768
  619TIP3   OH223347   1.607   1.942  16.011 -0.1047  1.0595 -0.1012
  619TIP3    H123348   1.642   1.869  15.961 -1.0778  0.6976 -0.2627
  619TIP3    H223349   1.519   1.915  16.035  0.3561  1.1752  1.9023
  620TIP3   OH223350   3.532   5.511   5.506  0.2633 -0.3594 -0.3819
  620TIP3    H123351   3.534   5.528   5.600  0.4079  0.2862 -0.4994
  620TIP3    H223352   3.552   5.595   5.466 -1.9244 -0.0786 -1.0489
  621TIP3   OH223353   3.230   3.923   6.254 -0.1088  0.3564  0.2352
  621TIP3    H123354   3.302   3.880   6.208  0.3429 -0.3239  1.5142
  621TIP3    H223355   3.274   3.982   6.316 -0.6257 -0.2572  1.2078
  622TIP3   OH223356   2.834   2.473   4.186  0.4491  0.6510  0.1563
  622TIP3    H123357   2.795   2.458   4.100 -0.1411 -1.6903  0.7499
  622TIP3    H223358   2.760   2.487   4.244  0.5250 -1.5200  0.8806
  623TIP3   OH223359   0.710   6.723   2.164 -0.5617  0.1355 -0.5614
  623TIP3    H123360   0.702   6.643   2.112  0.9892 -3.2290  3.6907
  623TIP3    H223361   0.800   6.753   2.148 -0.8127  0.4840 -1.3880
  624TIP3   OH223362   3.575   6.445   4.087  0.7581  0.3309  0.2797
  624TIP3    H123363   3.577   6.494   4.006 -0.7405  1.7568  1.0319
  624TIP3    H223364   3.491   6.399   4.085  0.3768  0.9455  1.3032
  625TIP3   OH223365   6.181   1.273   5.796  0.0495  0.5839 -0.5715
  625TIP3    H123366   6.119   1.231   5.856  0.1052  1.4173  0.0978
  625TIP3    H223367   6.267   1.250   5.832  0.1251 -0.1824 -1.2271
  626TIP3   OH223368   4.825   3.816   3.518 -0.0998  0.1576 -0.4810
  626TIP3    H123369   4.834   3.762   3.596  1.3270  1.0989  0.0519
  626TIP3    H223370   4.813   3.905   3.551  1.5312  0.7197 -1.2944
  627TIP3   OH223371   5.179   5.907  16.766  0.0163  0.4168 -0.3657
  627TIP3    H123372   5.245   5.968  16.797  0.5948  0.0844 -0.9135
  627TIP3    H223373   5.101   5.960  16.750 -0.2835  0.6094  1.5492
  628TIP3   OH223374   2.813   0.116   2.308 -0.1769  0.1263  0.3301
  628TIP3    H123375   2.874   0.169   2.257 -1.0743  0.8722 -0.0136
  628TIP3    H223376   2.804   0.035   2.258 -0.9772  0.8128 -0.6897
  629TIP3   OH223377   3.957   5.683  11.730 -0.3853  0.7966  0.2763
  629TIP3    H123378   3.888   5.617  11.737 -0.5988  1.0229  0.3299
  629TIP3    H223379   3.962   5.704  11.637  1.5552 -1.2620 -0.1554
  630TIP3   OH223380   4.161   5.243   5.377 -0.2663 -0.3173 -0.0393
  630TIP3    H123381   4.235   5.255   5.437 -0.6522  1.6747  0.1185
  630TIP3    H223382   4.162   5.150   5.355  1.4773 -0.5796  0.9939
  631TIP3   OH223383   1.269   5.798   5.374 -0.0302  0.6954 -0.1974
  631TIP3    H123384   1.232   5.858   5.310  0.1218  1.7047  0.6401
  631TIP3    H223385   1.207   5.798   5.446 -0.1817 -0.4096 -0.3027
  632TIP3   OH223386   0.360   4.311  16.530 -0.3239  0.3186  0.4393
  632TIP3    H123387   0.442   4.267  16.507 -0.0039  0.2469  1.6338
  632TIP3    H223388   0.357   4.388  16.473 -1.4845 -1.7664 -2.5756
  633TIP3   OH223389   2.476   3.142  15.530 -0.1734 -0.1377 -0.7183
  633TIP3    H123390   2.443   3.192  15.456  0.4753  0.5436 -0.5580
  633TIP3    H223391   2.473   3.203  15.604  1.1292 -0.1389 -0.6349
  634TIP3   OH223392   0.312   2.848   3.379  0.5402  0.4749 -0.3212
  634TIP3    H123393   0.259   2.897   3.442 -0.3351 -0.8284 -0.0067
  634TIP3    H223394   0.314   2.759   3.413 -0.7654 -0.5140 -2.5784
  635TIP3   OH223395   4.883   6.272  11.232  0.2588 -0.3208  0.2051
  635TIP3    H123396   4.821   6.199  11.235 -0.8185  0.5927  1.5544
  635TIP3    H223397   4.829   6.348  11.213  1.0682  0.4093  0.7626
  636TIP3   OH223398   2.877   1.623   2.325 -0.0497 -0.5488 -0.5428
  636TIP3    H123399   2.817   1.697   2.324  0.8329  0.2435  0.9776
  636TIP3    H223400   2.943   1.646   2.259 -1.0880 -1.1880 -1.8553
  637TIP3   OH223401   1.402   6.198   4.385 -0.3238 -0.0113 -0.5641
  637TIP3    H123402   1.355   6.130   4.337 -0.3117 -0.5002  0.0986
  637TIP3    H223403   1.494   6.178   4.371 -0.2513 -1.8651  1.9066
  638TIP3   OH223404   5.075   5.899  15.237 -0.0623  0.1776  0.7371
  638TIP3    H123405   5.082   5.820  15.182 -0.3927  0.8937 -0.3586
  638TIP3    H223406   5.120   5.967  15.187 -0.3102  0.8269  1.3858
  639TIP3   OH223407   3.241   1.566  17.392  0.0798 -0.3031 -0.0221
  639TIP3    H123408   3.168   1.506  17.404  0.6327 -0.9665  0.1537
  639TIP3    H223409   3.271   1.550  17.303  1.3152 -1.5796  0.5780
  640TIP3   OH223410   4.230   2.992   0.215  0.1542 -0.3878  1.1249
  640TIP3    H123411   4.144   3.033   0.228 -0.3088 -0.9379 -0.0564
  640TIP3    H223412   4.274   3.048   0.151 -0.6937 -1.9411 -0.9235
  641TIP3   OH223413   1.478   5.811   0.876 -0.3414  0.1092  0.9780
  641TIP3    H123414   1.558   5.761   0.866 -0.1157  0.6722 -0.2776
  641TIP3    H223415   1.411   5.759   0.832 -0.5819 -0.1330  1.6123
  642TIP3   OH223416   6.176   2.904  12.093  0.4350 -0.5807 -0.0935
  642TIP3    H123417   6.233   2.909  12.016 -0.0143 -1.9356 -0.5398
  642TIP3    H223418   6.126   2.985  12.091  2.7977  1.0372  0.7250
  643TIP3   OH223419   3.731   5.991   0.743 -0.0899  0.5168  0.4865
  643TIP3    H123420   3.639   5.963   0.751 -0.8362  2.5324 -0.3963
  643TIP3    H223421   3.763   5.945   0.666 -0.5493  0.2884  0.4251
  644TIP3   OH223422   3.508   1.400   2.751  0.6265  0.2513  0.7003
  644TIP3    H123423   3.532   1.452   2.827 -1.7948  1.2077  0.8890
  644TIP3    H223424   3.479   1.316   2.787  1.9182 -0.2700  0.5916
  645TIP3   OH223425   0.425   1.739  17.092  0.3728 -0.3362  0.0168
  645TIP3    H123426   0.441   1.652  17.130 -0.6128 -0.3270  0.4867
  645TIP3    H223427   0.386   1.722  17.007  1.1806 -0.3466 -0.3635
  646TIP3   OH223428   4.197   0.124   5.732  0.2601  0.3038  0.2080
  646TIP3    H123429   4.185   0.185   5.659 -0.9228  0.4245  0.4808
  646TIP3    H223430   4.243   0.174   5.799 -1.3067  1.1374  0.7013
  647TIP3   OH223431   0.527   1.098  12.427 -0.3105  0.1723  0.2727
  647TIP3    H123432   0.585   1.160  12.471 -0.4332  0.5509 -0.0845
  647TIP3    H223433   0.439   1.125  12.453 -0.3153 -0.6301  1.1076
  648TIP3   OH223434   2.865   0.429  10.728 -0.2252  0.6999  0.9573
  648TIP3    H123435   2.944   0.375  10.726 -1.1077 -0.6493 -1.0418
  648TIP3    H223436   2.897   0.518  10.742  1.8975  0.5356 -1.9169
  649TIP3   OH223437   2.242   2.100  14.131  0.0764 -0.3582  0.6886
  649TIP3    H123438   2.335   2.120  14.137 -0.3839  2.3141  0.3887
  649TIP3    H223439   2.223   2.099  14.037 -0.5129  1.0593  0.7721
  650TIP3   OH223440   6.162   0.231   4.636  0.0385 -0.3919 -0.2970
  650TIP3    H123441   6.159   0.151   4.583  0.2517 -0.5289 -0.1041
  650TIP3    H223442   6.242   0.223   4.687 -1.3172 -1.4193  1.8481
  651TIP3   OH223443   1.054   1.354   3.028 -0.3836  0.6872 -0.3776
  651TIP3    H123444   1.112   1.368   2.953  2.3949 -0.0992  1.4504
  651TIP3    H223445   1.040   1.442   3.064  0.6084  0.7931 -0.2273
  652TIP3   OH223446   3.923   3.438   5.352  0.3615 -0.9127  0.2514
  652TIP3    H123447   3.933   3.382   5.429 -1.9648 -1.7019  0.0563
  652TIP3    H223448   3.955   3.385   5.279  1.5034 -0.5898  0.4956
  653TIP3   OH223449   5.916   3.910  12.330  0.2979  0.3031 -0.0282
  653TIP3    H123450   5.984   3.917  12.398  2.8370  0.5320 -2.4030
  653TIP3    H223451   5.908   3.816  12.314  1.4254  0.3441 -0.9568
  654TIP3   OH223452   4.272   4.447   0.197  0.3871 -0.5864  0.4166
  654TIP3    H123453   4.278   4.351   0.189 -0.0973 -0.6042  0.2650
  654TIP3    H223454   4.180   4.464   0.218  0.1195 -0.0480 -1.1148
  655TIP3   OH223455   0.787   2.511   0.621 -0.0814 -0.2102 -0.5790
  655TIP3    H123456   0.790   2.591   0.672  0.4316  0.2457 -1.2976
  655TIP3    H223457   0.748   2.537   0.537  1.8714 -0.2471 -1.5655
  656TIP3   OH223458   2.212   1.393   1.556  0.0444 -0.3444 -0.6922
  656TIP3    H123459   2.270   1.438   1.617 -1.6831 -0.3079  1.0238
  656TIP3    H223460   2.263   1.320   1.523  1.2862  0.0767  0.2364
  657TIP3   OH223461   1.687   1.335   5.104 -0.2663 -0.1624  0.2335
  657TIP3    H123462   1.669   1.255   5.154  0.1138 -0.0075  0.6194
  657TIP3    H223463   1.626   1.399   5.139 -0.8944 -0.3983 -0.3924
  658TIP3   OH223464   1.935   5.790  14.628 -0.0739 -0.3024  0.0560
  658TIP3    H123465   1.993   5.720  14.658  0.5476 -0.1221 -0.6944
  658TIP3    H223466   1.883   5.813  14.705  1.5671  0.2482  1.0505
  659TIP3   OH223467   0.156   4.014  14.782 -0.0073  0.4704 -0.3508
  659TIP3    H123468   0.080   3.959  14.800 -1.0573  2.4870  2.0865
  659TIP3    H223469   0.124   4.103  14.796  2.8077  1.3932  0.8740
  660TIP3   OH223470   6.437   5.078  12.865  0.7437 -0.2866 -0.1242
  660TIP3    H123471   6.437   5.106  12.956  1.9737 -3.4280  0.9971
  660TIP3    H223472   6.508   5.127  12.824  1.6811 -0.4548  1.2366
  661TIP3   OH223473   1.810   6.441  11.838 -0.2500 -0.7803  0.0207
  661TIP3    H123474   1.723   6.480  11.841  0.8294  1.9265  3.6903
  661TIP3    H223475   1.832   6.437  11.745 -2.1621  3.7835 -0.8845
  662TIP3   OH223476   6.541   2.456  16.102  0.2033 -0.1453 -0.1768
  662TIP3    H123477   6.526   2.487  16.192 -0.3276 -1.6121  0.2654
  662TIP3    H223478   6.525   2.362  16.106  2.2543 -0.5866 -1.3719
  663TIP3   OH223479   1.551   5.883  16.185  0.0040 -0.2450 -0.0863
  663TIP3    H123480   1.580   5.798  16.154 -1.3908 -1.1069  0.8642
  663TIP3    H223481   1.511   5.925  16.109  0.5100 -0.5002 -0.5002
  664TIP3   OH223482   5.593   3.619  13.631 -0.6944 -0.4464  0.1089
  664TIP3    H123483   5.661   3.557  13.603 -0.3095 -0.6544  1.4498
  664TIP3    H223484   5.514   3.565  13.638 -0.5537 -0.6184  0.4237
  665TIP3   OH223485   1.372   2.619   1.931  0.2326  0.4820 -0.6686
  665TIP3    H123486   1.304   2.559   1.963  0.3468 -0.1618 -1.6137
  665TIP3    H223487   1.403   2.663   2.010  2.5755 -3.1507  0.7011
  666TIP3   OH223488   6.720   0.168  11.239 -0.0374 -0.1134 -0.2980
  666TIP3    H123489   6.630   0.142  11.216 -0.2827  0.5413 -0.1068
  666TIP3    H223490   6.742   0.236  11.175  0.2160 -0.0694 -0.1641
  667TIP3   OH223491   5.145   2.237   3.620  0.2517  0.0540 -0.1675
  667TIP3    H123492   5.102   2.235   3.706  0.3788 -0.0319 -0.1056
  667TIP3    H223493   5.164   2.330   3.606  0.9569 -0.0158  0.2625
  668TIP3   OH223494   2.045   3.831  13.044  0.0304  0.3076  0.4794
  668TIP3    H123495   1.980   3.834  13.114 -0.4867  1.0926 -0.0091
  668TIP3    H223496   2.036   3.916  12.999  0.6519  0.0004 -0.2549
  669TIP3   OH223497   3.624   6.031  11.692  0.6482 -0.0356  0.0872
  669TIP3    H123498   3.667   6.093  11.751  0.2684  0.9884 -0.6845
  669TIP3    H223499   3.587   6.085  11.623  1.4892 -1.2390 -1.3654
  670TIP3   OH223500   2.364   1.317  15.970 -0.0502  0.1202  0.1117
  670TIP3    H123501   2.348   1.287  16.060  0.4426  0.2370  0.2395
  670TIP3    H223502   2.428   1.387  15.979 -1.2836  1.3319 -0.1673
  671TIP3   OH223503   2.901   6.322   4.594  0.0308  0.7059  0.4792
  671TIP3    H123504   2.809   6.307   4.613  0.1906  0.4387  1.0870
  671TIP3    H223505   2.945   6.243   4.627  0.5037  0.9516  0.4429
  672TIP3   OH223506   5.078   4.527  10.886  0.0396 -0.0213  0.0769
  672TIP3    H123507   5.139   4.600  10.882 -1.0927  1.0908  1.8350
  672TIP3    H223508   4.993   4.567  10.904 -0.4855 -1.7714  1.9530
  673TIP3   OH223509   1.623   3.599  14.443 -0.6741 -0.3516  0.4615
  673TIP3    H123510   1.599   3.667  14.380 -1.1624 -0.8322  0.1238
  673TIP3    H223511   1.717   3.610  14.456 -0.0699 -1.7503 -2.1662
  674TIP3   OH223512   1.432   6.212   6.064  0.0497  0.1748  0.3369
  674TIP3    H123513   1.483   6.271   6.009  0.0610  0.0562  0.2194
  674TIP3    H223514   1.396   6.147   6.004 -2.5649  1.8360 -0.0278
  675TIP3   OH223515   3.035   0.451  11.357 -0.0270 -0.5874  0.6246
  675TIP3    H123516   2.962   0.391  11.342 -1.4047  0.4972  2.5391
  675TIP3    H223517   3.109   0.411  11.312 -1.4089 -2.5566 -0.0271
  676TIP3   OH223518   1.324   3.991   2.846 -0.4597  0.1488 -0.2329
  676TIP3    H123519   1.268   3.997   2.923 -0.5614 -0.6452 -0.2328
  676TIP3    H223520   1.338   4.081   2.819 -2.4454  0.3699 -0.7233
  677TIP3   OH223521   2.830   5.483  12.903  0.6472  0.4477 -0.3382
  677TIP3    H123522   2.780   5.458  12.826 -0.8136  2.3396 -0.0820
  677TIP3    H223523   2.845   5.401  12.950 -1.4859 -0.3220 -0.8857
  678TIP3   OH223524   3.813   5.846   5.255  0.0122  0.3785 -0.7692
  678TIP3    H123525   3.902   5.825   5.229  0.6691  1.3112  0.5623
  678TIP3    H223526   3.819   5.935   5.291 -1.0601 -0.2277  1.0822
  679TIP3   OH223527   5.645   4.625  13.133  0.1316  0.5314  0.1563
  679TIP3    H123528   5.730   4.596  13.099  0.3245 -0.5912  1.4999
  679TIP3    H223529   5.591   4.546  13.132 -0.6505  1.0527  0.0825
  680TIP3   OH223530   1.517   5.948  12.827 -0.0608  0.0057 -0.0313
  680TIP3    H123531   1.555   5.876  12.878  1.0346  0.2193 -0.5043
  680TIP3    H223532   1.503   5.910  12.740 -0.4586  0.0734  0.0050
  681TIP3   OH223533   2.796   0.229  17.422  0.0426  0.0718  0.4179
  681TIP3    H123534   2.883   0.213  17.458 -0.3310 -2.5873  0.3278
  681TIP3    H223535   2.812   0.249  17.330  0.5478 -0.3467  0.4130
  682TIP3   OH223536   4.535   1.015   0.851  0.4557  0.3851  0.4239
  682TIP3    H123537   4.609   0.954   0.855  0.4762  0.4855  2.6683
  682TIP3    H223538   4.468   0.976   0.906  0.0038  1.7676  0.8994
  683TIP3   OH223539   1.453   5.358  12.321 -0.3183  0.0716  0.1220
  683TIP3    H123540   1.530   5.333  12.270 -0.2142  0.1257  0.2501
  683TIP3    H223541   1.490   5.399  12.400 -0.4919  1.1162 -0.3285
  684TIP3   OH223542   4.727   4.074  15.655 -0.6396 -0.2844 -0.6474
  684TIP3    H123543   4.672   4.062  15.578 -3.1360 -1.5087  1.1755
  684TIP3    H223544   4.763   3.987  15.673  1.9481  0.4694 -1.7375
  685TIP3   OH223545   1.485   1.002   3.145 -0.5996 -0.2822 -0.0216
  685TIP3    H123546   1.496   0.907   3.140 -1.0718 -0.2810 -1.8739
  685TIP3    H223547   1.478   1.021   3.238 -0.5023 -2.0678  0.3790
  686TIP3   OH223548   3.281   1.894  14.485 -1.0296 -0.1898  0.8182
  686TIP3    H123549   3.213   1.885  14.551 -2.2192  2.9873  0.1608
  686TIP3    H223550   3.239   1.941  14.413  1.2117 -0.3197 -0.6717
  687TIP3   OH223551   3.969   5.174   5.891 -0.2236  0.3879  0.2036
  687TIP3    H123552   3.914   5.190   5.814 -0.7155 -0.9374  0.2571
  687TIP3    H223553   3.915   5.120   5.949  0.0334  1.5916  1.6315
  688TIP3   OH223554   4.312   2.132   4.460  0.1618  0.3559 -0.0709
  688TIP3    H123555   4.239   2.118   4.401  1.1647 -0.2410 -1.2068
  688TIP3    H223556   4.274   2.124   4.548 -1.1997  0.4876 -0.6337
  689TIP3   OH223557   0.678   4.211  14.566 -0.5585 -0.4943 -0.1355
  689TIP3    H123558   0.698   4.118  14.556 -1.1540 -0.6839  0.3808
  689TIP3    H223559   0.724   4.237  14.646 -1.3539 -0.6384  0.3781
  690TIP3   OH223560   2.194   5.380  14.610  0.2153  0.7234 -0.3249
  690TIP3    H123561   2.224   5.332  14.688  3.3839  0.6552 -1.4229
  690TIP3    H223562   2.159   5.312  14.552  3.3314 -0.2504 -1.2678
  691TIP3   OH223563   5.825   1.720  11.895 -0.4873 -0.4302  0.5434
  691TIP3    H123564   5.844   1.814  11.887 -0.3255 -0.3951  1.2942
  691TIP3    H223565   5.775   1.699  11.816  0.6174 -0.0026 -0.3029
  692TIP3   OH223566   4.306   2.394   3.321  0.2529  0.4839 -0.2114
  692TIP3    H123567   4.391   2.380   3.363  0.2814 -0.5565 -0.6087
  692TIP3    H223568   4.242   2.367   3.387  0.1270  2.8336  0.7357
  693TIP3   OH223569   2.942   6.583   4.661 -0.1183  0.4220  0.1337
  693TIP3    H123570   2.896   6.589   4.745 -0.0879 -0.0851  0.1903
  693TIP3    H223571   2.936   6.491   4.637  0.9370  0.3264  0.1806
  694TIP3   OH223572   0.958   0.213  15.740  0.6651  0.2652  0.0701
  694TIP3    H123573   1.047   0.242  15.762  1.0376 -1.5910  1.2819
  694TIP3    H223574   0.968   0.160  15.662  0.8979 -1.1125  0.9951
  695TIP3   OH223575   4.969   1.330  17.363 -0.0229  0.4269 -0.3220
  695TIP3    H123576   4.980   1.382  17.283 -0.0345 -1.1408 -1.3790
  695TIP3    H223577   4.880   1.295  17.357 -0.0979  0.4615  0.4961
  696TIP3   OH223578   0.934   6.320   1.554  0.0780 -0.1943  0.9047
  696TIP3    H123579   0.881   6.264   1.612 -1.1936  0.4952  0.4456
  696TIP3    H223580   0.907   6.294   1.466 -0.3355  0.9443  0.6872
  697TIP3   OH223581   2.998   2.818   2.793 -0.3210 -0.5341  0.4175
  697TIP3    H123582   3.089   2.791   2.780 -0.1120  0.2158  0.2855
  697TIP3    H223583   2.950   2.778   2.720  0.5444  2.1650 -1.8177
  698TIP3   OH223584   2.655   1.755  15.322  0.1378  0.5709  0.1390
  698TIP3    H123585   2.691   1.702  15.251  1.6045 -0.5466  1.6560
  698TIP3    H223586   2.560   1.749  15.309  0.1715 -2.8568  0.4648
  699TIP3   OH223587   5.725   4.776   2.227 -0.4310  0.1059 -0.7641
  699TIP3    H123588   5.796   4.713   2.239  0.1939  0.9677  0.1632
  699TIP3    H223589   5.689   4.755   2.141 -0.1932 -1.4634 -0.5069
  700TIP3   OH223590   3.337   3.004   0.208 -0.2683 -0.0065  0.0790
  700TIP3    H123591   3.266   3.042   0.156 -0.3978  0.2032  0.4084
  700TIP3    H223592   3.415   3.051   0.179 -0.0127 -1.1740 -1.2858
  701TIP3   OH223593   1.149   1.970  15.127 -0.4520 -0.2413 -0.0582
  701TIP3    H123594   1.159   1.875  15.133 -0.8365 -0.2724  0.1016
  701TIP3    H223595   1.113   1.997  15.211  0.3671  0.1471  0.1737
  702TIP3   OH223596   1.786   6.721   5.916 -0.1121 -0.3055 -0.0689
  702TIP3    H123597   1.874   6.750   5.940 -1.3675  2.3624  1.8620
  702TIP3    H223598   1.744   6.699   6.000 -1.6025 -0.4829 -0.8199
  703TIP3   OH223599   0.468   0.835  16.784  0.0344  0.2443  0.0175
  703TIP3    H123600   0.538   0.783  16.823  0.5844 -1.2201 -2.6319
  703TIP3    H223601   0.499   0.925  16.788  0.9453 -0.1008  1.0652
  704TIP3   OH223602   3.861   1.162  15.909 -0.0683  0.2568 -0.5602
  704TIP3    H123603   3.896   1.219  15.841 -0.0157  0.2379 -0.5489
  704TIP3    H223604   3.767   1.156  15.889 -0.2795  1.2153  0.0508
  705TIP3   OH223605   6.093   6.487  12.931 -0.5200 -0.4635 -0.8799
  705TIP3    H123606   6.016   6.448  12.889  0.1155 -1.5021 -1.1227
  705TIP3    H223607   6.151   6.413  12.947  0.3623  0.2864 -0.5410
  706TIP3   OH223608   5.526   4.399   3.977 -0.1452 -0.2466 -0.1209
  706TIP3    H123609   5.607   4.365   3.940  0.4606  0.0729  0.8685
  706TIP3    H223610   5.540   4.493   3.985 -1.4604  0.1621 -1.9730
  707TIP3   OH223611   5.242   3.114   4.711 -0.3234  0.2688  0.1329
  707TIP3    H123612   5.284   3.043   4.760 -0.8612  1.1417  1.9248
  707TIP3    H223613   5.293   3.191   4.734 -1.3838  0.9172  0.3338
  708TIP3   OH223614   0.912   5.241  16.619  0.0438  0.6334 -0.0337
  708TIP3    H123615   0.855   5.226  16.695 -1.0870  0.7365 -0.8359
  708TIP3    H223616   0.900   5.163  16.565 -0.1023  1.0941 -0.6772
  709TIP3   OH223617   2.084   1.554  11.620 -0.2797  0.1304  0.6056
  709TIP3    H123618   2.024   1.567  11.547  0.5736  1.5382  0.1298
  709TIP3    H223619   2.156   1.615  11.604  1.2525 -1.4468  1.2199
  710TIP3   OH223620   3.305   5.185  12.976  0.0331 -0.6506 -0.5149
  710TIP3    H123621   3.367   5.144  12.915  0.8618  1.0971 -0.9218
  710TIP3    H223622   3.220   5.171  12.935  0.5754  0.5593 -2.2039
  711TIP3   OH223623   4.427   4.364   1.024 -0.1604  0.0154  0.0983
  711TIP3    H123624   4.494   4.304   1.056 -0.6222 -0.5799 -0.0308
  711TIP3    H223625   4.454   4.384   0.934  2.6284  3.8154  1.5511
  712TIP3   OH223626   1.061   3.505  12.783  0.2847 -0.1761 -0.2719
  712TIP3    H123627   0.986   3.495  12.842  0.8778 -1.3072  0.3190
  712TIP3    H223628   1.023   3.503  12.695 -0.2491 -2.6842 -0.0558
  713TIP3   OH223629   6.102   3.644   1.730  0.6960 -0.1532 -0.9069
  713TIP3    H123630   6.046   3.568   1.717  1.2040 -0.8127  0.5856
  713TIP3    H223631   6.041   3.716   1.744  0.2234 -0.4389 -1.4319
  714TIP3   OH223632   5.693   0.998  14.508  0.1359  0.1751 -0.2014
  714TIP3    H123633   5.729   1.043  14.431  1.8755 -0.5645  0.1278
  714TIP3    H223634   5.599   1.013  14.503  0.5408  3.4364 -0.3663
  715TIP3   OH223635   4.283   0.989  15.359 -0.2934 -0.1856  0.1333
  715TIP3    H123636   4.377   0.977  15.346 -0.3176  0.6228 -0.9261
  715TIP3    H223637   4.273   0.992  15.454  1.4629  4.3578  0.4727
  716TIP3   OH223638   1.199   1.308  12.911  0.1189 -0.3221 -0.2575
  716TIP3    H123639   1.109   1.343  12.915  0.3060  0.5111 -2.3520
  716TIP3    H223640   1.197   1.244  12.840  1.3962  0.4530 -1.0326
  717TIP3   OH223641   2.408   2.113  11.150  0.1717 -0.1317 -0.3326
  717TIP3    H123642   2.372   2.028  11.127  0.6623 -0.2738 -0.5934
  717TIP3    H223643   2.489   2.119  11.100  1.6049 -0.7058  1.7778
  718TIP3   OH223644   3.285   3.223   1.943  0.1193  1.0716 -0.0765
  718TIP3    H123645   3.378   3.241   1.929  0.5927 -0.6723  0.5000
  718TIP3    H223646   3.258   3.175   1.864  0.3078 -0.3363  0.6782
  719TIP3   OH223647   3.968   5.806  13.368 -0.0372 -0.3216  0.3103
  719TIP3    H123648   3.992   5.728  13.319  0.0569 -0.6613  0.8819
  719TIP3    H223649   3.883   5.832  13.333  0.4787  0.0359 -0.7225
  720TIP3   OH223650   5.677   5.975  17.055  0.4670 -0.1082  0.1191
  720TIP3    H123651   5.644   6.026  16.982  0.5278 -0.5659 -0.2373
  720TIP3    H223652   5.603   5.967  17.115  0.0290 -0.8084 -0.4939
  721TIP3   OH223653   4.275   3.541  16.750  0.0146  0.2987 -0.2755
  721TIP3    H123654   4.305   3.589  16.673  1.6556 -0.5390 -0.2185
  721TIP3    H223655   4.331   3.574  16.821  0.6244 -1.0907 -0.0829
  722TIP3   OH223656   2.613   4.269  16.585 -0.1289  0.0132 -0.0986
  722TIP3    H123657   2.591   4.237  16.498 -1.9025 -0.8870  0.6332
  722TIP3    H223658   2.608   4.192  16.641 -0.1232  0.7766  0.9818
  723TIP3   OH223659   5.439   1.591  16.604  0.5158  0.4097 -0.3819
  723TIP3    H123660   5.463   1.516  16.550  0.7387  2.2575 -3.0617
  723TIP3    H223661   5.521   1.620  16.644  0.3638 -0.9238  0.9778
  724TIP3   OH223662   6.264   3.545   2.837 -0.2759 -0.1502 -0.0896
  724TIP3    H123663   6.273   3.632   2.875  0.4683  0.3060 -1.2328
  724TIP3    H223664   6.349   3.528   2.796 -0.7553 -0.9576 -0.7941
  725TIP3   OH223665   4.914   0.484  14.440  0.6921  0.2980 -0.0122
  725TIP3    H123666   4.871   0.472  14.525  2.3596  1.0379  0.9791
  725TIP3    H223667   4.931   0.578  14.434  1.7103  0.0914 -0.5935
  726TIP3   OH223668   3.356   2.145   5.204 -0.1268  0.4318  0.2842
  726TIP3    H123669   3.369   2.051   5.192  2.0850  0.8526 -1.2677
  726TIP3    H223670   3.277   2.165   5.154 -0.6622 -0.6123  0.6975
  727TIP3   OH223671   6.551   4.456  11.397  0.8456  0.5619 -0.8349
  727TIP3    H123672   6.484   4.513  11.358  0.2084  0.3378 -0.0904
  727TIP3    H223673   6.541   4.468  11.491  0.0438 -1.4897 -0.5988
  728TIP3   OH223674   3.992   4.579  11.723 -0.2453 -0.0269 -0.6096
  728TIP3    H123675   3.943   4.498  11.708 -0.6363  0.2735 -0.9771
  728TIP3    H223676   3.930   4.636  11.769  0.3952 -0.3330  0.6918
  729TIP3   OH223677   0.522   4.695  11.367  0.3583  0.0118 -0.0703
  729TIP3    H123678   0.583   4.734  11.429  0.1244  0.6850 -0.2648
  729TIP3    H223679   0.553   4.724  11.281  0.0405 -0.0342 -0.2008
  730TIP3   OH223680   3.493   0.654  13.126 -0.2353 -0.2080 -0.3674
  730TIP3    H123681   3.498   0.708  13.048 -1.4435  0.2774 -0.1435
  730TIP3    H223682   3.551   0.580  13.109  0.4121  0.4796 -1.2278
  731TIP3   OH223683   1.350   1.605   5.849  0.3731  0.0882  0.0237
  731TIP3    H123684   1.387   1.519   5.830  1.8520  1.0941 -2.0405
  731TIP3    H223685   1.346   1.650   5.765 -1.3783  1.6939  0.8706
  732TIP3   OH223686   1.369   6.093  14.459  0.1061 -0.5933 -0.1739
  732TIP3    H123687   1.326   6.036  14.396 -0.2069  0.6563 -1.1419
  732TIP3    H223688   1.298   6.127  14.513  0.0411  0.2364 -0.7531
  733TIP3   OH223689   3.482   2.337  13.730 -0.6168  0.4882  0.5836
  733TIP3    H123690   3.570   2.352  13.764 -0.3145  0.0266  0.0310
  733TIP3    H223691   3.492   2.345  13.635 -0.4846 -2.7306  0.2317
  734TIP3   OH223692   1.561   1.595  14.216  0.3159  0.2261 -0.3724
  734TIP3    H123693   1.580   1.527  14.281  2.0204 -0.1939 -1.2583
  734TIP3    H223694   1.505   1.657  14.263  2.6577  0.7176  2.0299
  735TIP3   OH223695   4.613   4.477   1.923  0.5176  0.7003  0.2452
  735TIP3    H123696   4.626   4.572   1.924 -3.2151  1.3801  0.4388
  735TIP3    H223697   4.584   4.459   1.833  0.6209 -0.1694  0.3804
  736TIP3   OH223698   2.814   3.911   4.614 -0.1691 -0.1201 -0.2290
  736TIP3    H123699   2.850   3.823   4.621  0.4905  0.1290 -0.3020
  736TIP3    H223700   2.892   3.967   4.608 -0.5407  0.2504 -2.8555
  737TIP3   OH223701   2.992   0.643  10.815 -0.3364  0.6300 -0.3663
  737TIP3    H123702   2.930   0.716  10.811 -0.1964  0.8445  1.1055
  737TIP3    H223703   3.069   0.679  10.859  0.4346  0.0694 -1.2226
  738TIP3   OH223704   4.583   2.877  14.424 -0.3757 -0.1126 -0.0069
  738TIP3    H123705   4.499   2.907  14.389 -0.8567  0.3998  1.4931
  738TIP3    H223706   4.606   2.941  14.491  0.7192 -0.7868  0.2957
  739TIP3   OH223707   0.472   4.231   3.587  0.3940  0.8971 -0.0123
  739TIP3    H123708   0.533   4.237   3.513 -0.8091  0.5110 -1.0619
  739TIP3    H223709   0.526   4.203   3.661  1.0434 -2.2999 -1.5433
  740TIP3   OH223710   6.536   5.205   1.675 -0.3058  0.1567 -0.6549
  740TIP3    H123711   6.630   5.189   1.677 -0.5840 -1.8703  2.0603
  740TIP3    H223712   6.500   5.129   1.628 -0.7539 -1.0384  1.4821
  741TIP3   OH223713   1.238   4.515  14.596  0.2061  0.0599 -0.1189
  741TIP3    H123714   1.296   4.500  14.522 -0.1293  0.3295 -0.4394
  741TIP3    H223715   1.152   4.487  14.566  0.1954 -0.5075  0.4153
  742TIP3   OH223716   5.905   6.765  14.387  0.7387 -0.2854 -0.5042
  742TIP3    H123717   5.880   6.795  14.475 -0.5381  0.3917 -1.0741
  742TIP3    H223718   5.920   6.671  14.398 -0.1815 -0.3634  0.2942
  743TIP3   OH223719   3.525   0.969   2.587 -0.0381  0.0682 -0.1907
  743TIP3    H123720   3.560   0.985   2.499  1.8652  1.5532  0.7668
  743TIP3    H223721   3.439   1.011   2.587  0.5175  1.2713 -0.9656
  744TIP3   OH223722   0.028   6.126  15.385 -0.0966  0.1303  0.4197
  744TIP3    H123723  -0.067   6.109  15.390 -0.0632 -0.0092  0.5793
  744TIP3    H223724   0.035   6.203  15.328 -0.2757 -0.1393  0.0273
  745TIP3   OH223725   3.071   2.593  14.140 -0.3745  0.6526  0.4235
  745TIP3    H123726   3.039   2.683  14.148  1.1861  1.1275  1.9737
  745TIP3    H223727   3.000   2.546  14.095 -1.8382  2.3124  0.8840
  746TIP3   OH223728   4.895   3.112  17.288  0.1277 -0.4176 -0.3562
  746TIP3    H123729   4.882   3.054  17.213 -0.0472 -1.8552  0.7197
  746TIP3    H223730   4.836   3.077  17.355  1.1891  0.0329  0.8508
  747TIP3   OH223731   5.594   0.207   5.096  0.5552 -0.2921  0.0759
  747TIP3    H123732   5.554   0.257   5.167 -3.2523 -1.4523 -1.0091
  747TIP3    H223733   5.648   0.270   5.049 -0.0877  1.4998  1.6324
  748TIP3   OH223734   6.073   1.407   6.482 -0.1836  0.8979 -0.1968
  748TIP3    H123735   5.985   1.423   6.516  0.8630  1.7269  2.3949
  748TIP3    H223736   6.093   1.485   6.429 -0.8739  0.8342 -0.5612
  749TIP3   OH223737   4.971   1.993  14.140  0.6793  0.0119 -0.1293
  749TIP3    H123738   4.932   2.071  14.102  0.6599 -0.1191 -0.3803
  749TIP3    H223739   4.981   2.014  14.233 -1.0975 -0.3830  0.1968
  750TIP3   OH223740   4.342   6.203   0.607  0.1823 -0.0917  0.2402
  750TIP3    H123741   4.251   6.228   0.624  0.0376 -0.9453  0.7953
  750TIP3    H223742   4.367   6.253   0.529 -0.7497  0.1680  0.0985
  751TIP3   OH223743   2.743   4.220   4.434  0.0062 -0.0409 -0.3000
  751TIP3    H123744   2.729   4.206   4.528  0.6006 -1.8815 -0.4414
  751TIP3    H223745   2.773   4.310   4.427 -1.0595  0.4642  1.1594
  752TIP3   OH223746   1.468   3.882   4.049 -0.1351 -0.2596 -0.3680
  752TIP3    H123747   1.538   3.828   4.086  0.3349 -0.4137 -1.4517
  752TIP3    H223748   1.415   3.821   3.998 -0.0664  0.1654 -0.9481
  753TIP3   OH223749   5.284   5.488   0.278 -0.7491  0.0876 -0.2053
  753TIP3    H123750   5.310   5.580   0.277 -0.9222  0.1492  0.5766
  753TIP3    H223751   5.304   5.458   0.366  0.8225 -1.0841 -0.9068
  754TIP3   OH223752   6.753   4.654  11.482 -0.0892 -0.1276 -0.4045
  754TIP3    H123753   6.842   4.691  11.477  0.8320 -1.9032  1.4507
  754TIP3    H223754   6.762   4.566  11.447 -0.6110 -1.0483  1.6336
  755TIP3   OH223755   1.500   3.558   1.224  0.4149  0.5760 -0.2584
  755TIP3    H123756   1.426   3.564   1.163 -0.3403 -0.2490  0.5480
  755TIP3    H223757   1.551   3.637   1.207  0.0604  0.5133 -1.7394
  756TIP3   OH223758   2.273   4.505  14.159  0.3076  0.6270 -0.0899
  756TIP3    H123759   2.178   4.504  14.148  0.0699 -1.1049  1.6237
  756TIP3    H223760   2.296   4.417  14.187  1.9655  1.7841  2.7037
  757TIP3   OH223761   1.251   6.517  16.606  0.0306 -0.1683  0.0229
  757TIP3    H123762   1.298   6.443  16.566  0.1407 -0.3494  0.4866
  757TIP3    H223763   1.280   6.593  16.555  0.5945 -0.3216  0.1024
  758TIP3   OH223764   5.025   0.566  11.294 -0.2233  0.5859 -0.3018
  758TIP3    H123765   5.109   0.531  11.265 -0.9474  0.0152 -1.8036
  758TIP3    H223766   5.007   0.522  11.377 -0.0450 -0.9612 -1.0429
  759TIP3   OH223767   6.531   5.430  16.305 -0.2211  0.0801  0.0846
  759TIP3    H123768   6.601   5.402  16.247  0.3528 -0.6907  1.0980
  759TIP3    H223769   6.484   5.349  16.327 -1.7697  0.6367 -0.9634
  760TIP3   OH223770   0.415   3.079   0.162  0.2732 -0.0452 -0.1374
  760TIP3    H123771   0.366   3.145   0.211  0.4503 -0.0806  0.0902
  760TIP3    H223772   0.470   3.037   0.227 -0.5746 -1.1191 -0.0862
  761TIP3   OH223773   2.093   3.929   3.462 -0.9822 -0.7672 -0.2314
  761TIP3    H123774   2.011   3.973   3.486 -0.6164 -0.2617  0.1205
  761TIP3    H223775   2.132   3.905   3.545 -0.3995 -0.3043 -0.3616
  762TIP3   OH223776   5.684   1.070  11.851 -0.2538 -0.4321  0.0438
  762TIP3    H123777   5.690   1.115  11.935  0.6086 -0.8014  0.1918
  762TIP3    H223778   5.686   1.140  11.786 -0.0637 -0.1889  0.3080
  763TIP3   OH223779   4.127   2.392   4.269 -0.6099 -0.0678 -0.1116
  763TIP3    H123780   4.076   2.339   4.207  0.5877 -2.3907  0.7618
  763TIP3    H223781   4.216   2.357   4.262  0.2471  1.8577  0.5683
  764TIP3   OH223782   3.611   2.112   5.076  0.1705  0.7383 -0.1251
  764TIP3    H123783   3.696   2.151   5.097  0.7432 -1.2859  1.6726
  764TIP3    H223784   3.549   2.156   5.135  0.3043  0.9072 -0.1105
  765TIP3   OH223785   0.026   6.567   3.051 -0.3373 -0.6863  0.0063
  765TIP3    H123786   0.119   6.544   3.052 -0.0978  0.2412  0.2267
  765TIP3    H223787  -0.019   6.489   3.083  0.5021 -0.5689  1.5768
  766TIP3   OH223788   5.137   0.009  15.415  0.1727 -0.4533  0.0799
  766TIP3    H123789   5.201  -0.061  15.421  0.1314 -0.4075  1.3447
  766TIP3    H223790   5.104   0.019  15.505 -1.3698 -0.2677 -0.4794
  767TIP3   OH223791   4.947   1.495  14.037  0.5430 -0.5236  0.1787
  767TIP3    H123792   4.986   1.568  14.086 -1.6846 -0.1897  1.5844
  767TIP3    H223793   4.944   1.423  14.100  1.2544 -1.3842 -0.7257
  768TIP3   OH223794   4.859   1.472  11.025 -0.6143  0.4843 -0.3272
  768TIP3    H123795   4.790   1.529  10.991 -1.8758 -0.5703  0.3954
  768TIP3    H223796   4.817   1.387  11.037  0.6852 -0.0641  0.5917
  769TIP3   OH223797   2.033   4.773   2.092  0.1255 -0.2842 -0.2057
  769TIP3    H123798   2.111   4.820   2.062  0.9713 -0.9247  0.9224
  769TIP3    H223799   1.960   4.816   2.047  0.9134  1.7789  0.3934
  770TIP3   OH223800   5.815   2.740   6.133  0.3401  0.7240 -0.3483
  770TIP3    H123801   5.723   2.718   6.144  0.5039  0.8926  1.6019
  770TIP3    H223802   5.863   2.667   6.171  1.0255  0.7032 -1.2063
  771TIP3   OH223803   0.436   0.421  11.861  0.4730 -0.2365 -0.1064
  771TIP3    H123804   0.526   0.406  11.833  0.7413 -2.0216  1.5066
  771TIP3    H223805   0.435   0.512  11.890  1.8822 -0.3188  0.2807
  772TIP3   OH223806   3.379   1.694  15.106  0.0919 -0.3851 -0.7150
  772TIP3    H123807   3.414   1.614  15.067 -0.3031 -0.4048 -1.0286
  772TIP3    H223808   3.287   1.696  15.078 -0.4230 -0.8017  0.8241
  773TIP3   OH223809   2.826   1.396   1.492  0.2346 -0.3225  0.2901
  773TIP3    H123810   2.851   1.312   1.451  1.0320 -0.8820  1.8303
  773TIP3    H223811   2.888   1.459   1.456  0.5375 -0.6833  0.1674
  774TIP3   OH223812   2.276   1.067   0.540  0.0481  0.4293  0.0654
  774TIP3    H123813   2.206   1.132   0.538 -0.1731  0.2075  0.4512
  774TIP3    H223814   2.232   0.984   0.523  0.1480  0.2365  0.6934
  775TIP3   OH223815   3.562   3.582   4.231 -0.3462  0.1179 -0.3848
  775TIP3    H123816   3.543   3.516   4.298 -1.5608  0.3957 -0.4476
  775TIP3    H223817   3.638   3.546   4.183 -2.8654 -2.8833 -2.5335
  776TIP3   OH223818   4.072   2.836  13.080 -0.4236 -0.1866  0.6960
  776TIP3    H123819   4.004   2.878  13.133 -0.3355  1.4211 -0.3861
  776TIP3    H223820   4.121   2.909  13.043  2.1495 -1.2913  1.7063
  777TIP3   OH223821   4.701   6.558  13.670  0.1835 -0.4972  0.3797
  777TIP3    H123822   4.647   6.531  13.596  1.0786  2.0629 -1.3556
  777TIP3    H223823   4.783   6.509  13.659  0.6992  0.5996 -1.0037
  778TIP3   OH223824   5.445   3.993   3.301 -0.0253 -0.3116 -0.1836
  778TIP3    H123825   5.350   3.980   3.296 -0.3918  0.5342  2.7974
  778TIP3    H223826   5.475   3.922   3.358  1.1690 -0.5513 -1.0774
  779TIP3   OH223827   6.160   5.470  13.701 -0.1359  0.1296 -0.7369
  779TIP3    H123828   6.092   5.421  13.746  0.2304 -1.9744 -2.2945
  779TIP3    H223829   6.113   5.526  13.639 -0.5044  0.1205 -0.4649
  780TIP3   OH223830   2.545   1.649  17.387 -0.1369 -0.1723 -0.3436
  780TIP3    H123831   2.567   1.558  17.366 -0.1603  0.1157 -1.7026
  780TIP3    H223832   2.490   1.678  17.314 -1.6647  0.3847  0.9609
  781TIP3   OH223833   5.463   0.704   5.705 -0.3835 -0.3304 -0.1575
  781TIP3    H123834   5.513   0.644   5.650 -0.2547  0.1157 -0.5300
  781TIP3    H223835   5.511   0.787   5.700 -1.1819  0.1136 -0.5446
  782TIP3   OH223836   5.652   2.453  16.253 -0.2207  0.1879  0.5743
  782TIP3    H123837   5.628   2.411  16.335 -0.4764 -0.2492  0.2845
  782TIP3    H223838   5.631   2.388  16.186  1.4277 -0.0623  0.2616
  783TIP3   OH223839   4.319   1.867   5.727 -0.0923  0.5604 -0.5491
  783TIP3    H123840   4.380   1.794   5.729 -0.1777  0.4973  1.5833
  783TIP3    H223841   4.260   1.852   5.801 -1.5286  1.6100 -1.4153
  784TIP3   OH223842   6.252   1.901  11.212 -0.1458  0.3755  0.5522
  784TIP3    H123843   6.275   1.880  11.303 -1.4012 -2.3413  0.3402
  784TIP3    H223844   6.336   1.906  11.167  0.4476 -2.0287  1.2060
  785TIP3   OH223845   1.526   0.623  12.214 -0.4723 -0.0718  0.7973
  785TIP3    H123846   1.475   0.543  12.199 -1.1828  0.3072  1.1470
  785TIP3    H223847   1.577   0.605  12.292 -1.5225  0.2296  1.5698
  786TIP3   OH223848   4.452   0.441  16.865 -0.0616 -0.0152 -0.8077
  786TIP3    H123849   4.403   0.508  16.817 -0.8668 -0.5373 -0.7245
  786TIP3    H223850   4.537   0.482  16.881 -0.9629  1.5076  0.3857
  787TIP3   OH223851   6.670   1.777  14.827 -0.4672 -0.1359  0.5718
  787TIP3    H123852   6.597   1.727  14.863 -1.7092  0.9463 -0.3295
  787TIP3    H223853   6.748   1.732  14.859 -1.5135 -1.1627  1.8068
  788TIP3   OH223854   3.307   3.679  11.773 -0.1678 -0.6376 -0.1691
  788TIP3    H123855   3.338   3.764  11.804  0.6611 -0.2825 -1.8468
  788TIP3    H223856   3.220   3.697  11.738  0.4305 -0.2076 -1.5113
  789TIP3   OH223857   2.031   5.244   3.213  0.3562  0.7594 -0.3974
  789TIP3    H123858   1.973   5.261   3.139 -1.1048 -0.3436  0.4563
  789TIP3    H223859   2.077   5.163   3.188 -0.6136  0.0229  0.1532
  790TIP3   OH223860   4.828   1.666   0.862 -0.4884  0.0847  0.3120
  790TIP3    H123861   4.837   1.674   0.956 -0.3856 -0.5034  0.3595
  790TIP3    H223862   4.884   1.734   0.825 -0.4091  0.2128  0.6750
  791TIP3   OH223863   0.075   4.431  11.918  0.3429  0.1683 -0.5908
  791TIP3    H123864   0.112   4.412  11.832  0.8361  0.3368 -0.4169
  791TIP3    H223865  -0.008   4.474  11.899  0.3507  0.0138 -0.9830
  792TIP3   OH223866   0.867   3.918   3.966 -0.2670 -0.0268 -0.2575
  792TIP3    H123867   0.826   3.980   4.027  0.2238 -0.3967  0.4663
  792TIP3    H223868   0.961   3.925   3.985 -0.0881 -0.0407 -1.0830
  793TIP3   OH223869   1.183   5.806  12.690 -0.0531  0.1959  0.0508
  793TIP3    H123870   1.270   5.823  12.652 -0.6527  0.2716 -1.3705
  793TIP3    H223871   1.137   5.757  12.622 -1.5836  1.3234  0.2243
  794TIP3   OH223872   0.498   5.455   5.264 -0.4362  0.2737 -0.0424
  794TIP3    H123873   0.447   5.411   5.196 -1.0461 -1.3130  1.4065
  794TIP3    H223874   0.433   5.488   5.326  0.2217 -0.9661  1.3495
  795TIP3   OH223875   3.281   3.263  14.752 -0.5201  0.3375 -0.1474
  795TIP3    H123876   3.329   3.183  14.731 -1.0307 -0.1959  0.7008
  795TIP3    H223877   3.347   3.332  14.743 -0.4403  0.0633 -2.4728
  796TIP3   OH223878   4.917   5.180  15.465  0.1127 -0.1245 -0.2208
  796TIP3    H123879   4.886   5.100  15.509 -1.8775  1.2487  1.0655
  796TIP3    H223880   4.845   5.203  15.405  0.4903  0.8877 -0.3012
  797TIP3   OH223881   6.053   6.202   2.121  0.5777  0.4061  0.7217
  797TIP3    H123882   5.993   6.197   2.046  1.5875 -0.5363 -0.0564
  797TIP3    H223883   6.062   6.112   2.151  1.9781  0.4447  0.4988
  798TIP3   OH223884   6.184   0.885   1.159  0.1968 -0.3877  0.0107
  798TIP3    H123885   6.277   0.904   1.156  0.0811  0.3119  0.5186
  798TIP3    H223886   6.147   0.952   1.217 -1.2324  1.9379 -3.2520
  799TIP3   OH223887   3.628   0.654  11.708  0.1492 -0.1944 -0.7806
  799TIP3    H123888   3.560   0.632  11.772 -2.3492  1.1667 -2.7770
  799TIP3    H223889   3.646   0.747  11.723 -0.0943  0.0092 -1.7255
  800TIP3   OH223890   5.331   3.070   4.415 -0.5134  0.1255 -0.3505
  800TIP3    H123891   5.345   3.092   4.507  0.2736 -1.5152 -0.0396
  800TIP3    H223892   5.350   2.976   4.409 -0.0419  0.2923 -2.2881
  801TIP3   OH223893   0.195   5.554  16.980 -0.5316 -0.0392  0.4051
  801TIP3    H123894   0.187   5.493  17.054 -0.4742  1.0637  1.3382
  801TIP3    H223895   0.217   5.638  17.020 -2.3042  1.0047 -0.7064
  802TIP3   OH223896   3.783   1.791   1.422 -0.1393 -0.1888 -0.2553
  802TIP3    H123897   3.802   1.747   1.339  1.5297  0.3556 -0.1801
  802TIP3    H223898   3.852   1.763   1.481 -0.7673  0.1963  0.6861
  803TIP3   OH223899   1.938   3.510   3.082  0.1699 -0.5123  0.3247
  803TIP3    H123900   1.932   3.532   3.175 -2.5507  0.6733 -0.0510
  803TIP3    H223901   1.907   3.420   3.077  1.7525 -1.1058  0.6972
  804TIP3   OH223902   5.009   6.056   0.177 -0.5202  0.3402  0.3409
  804TIP3    H123903   4.956   6.136   0.175 -0.0944  0.8003  2.9459
  804TIP3    H223904   4.968   6.003   0.246  0.7938 -0.4811  0.5212
  805TIP3   OH223905   5.719   4.329   4.437  0.2819  0.1430  0.1731
  805TIP3    H123906   5.648   4.302   4.378  1.0362  1.0364 -1.1873
  805TIP3    H223907   5.755   4.408   4.397  1.0283  0.6041  1.6884
  806TIP3   OH223908   3.464   6.728   3.995  0.2301  0.4555 -0.7573
  806TIP3    H123909   3.428   6.746   4.082 -1.7051 -0.6220 -1.2720
  806TIP3    H223910   3.515   6.806   3.973  1.2614  0.4926  1.5714
  807TIP3   OH223911   0.053   5.925   6.447 -0.4401  0.4350 -0.0432
  807TIP3    H123912  -0.001   5.876   6.510 -0.0240 -0.8364 -0.6414
  807TIP3    H223913   0.035   5.884   6.363 -1.0259  2.1523 -0.8052
  808TIP3   OH223914   2.886   2.948  10.762 -0.5624  0.4219  0.3088
  808TIP3    H123915   2.844   3.034  10.761 -1.3366  0.0616  1.0538
  808TIP3    H223916   2.821   2.890  10.801 -0.0395 -0.5021 -0.1770
  809TIP3   OH223917   2.223   2.963  13.959 -0.5402  0.4448 -0.7345
  809TIP3    H123918   2.237   2.895  14.024 -0.6682  0.2361 -0.9204
  809TIP3    H223919   2.129   2.981  13.964 -0.3738  1.1880 -0.1209
  810TIP3   OH223920   2.836   5.921   1.980 -0.5194  0.0455 -0.0637
  810TIP3    H123921   2.783   5.860   1.928  0.4723 -1.1742  0.3305
  810TIP3    H223922   2.922   5.881   1.984  0.5912  2.1791 -0.9969
  811TIP3   OH223923   0.012   5.341   0.284 -0.3501  0.2842 -0.0997
  811TIP3    H123924  -0.078   5.356   0.256 -0.9204 -1.0098  0.9266
  811TIP3    H223925   0.036   5.257   0.243  0.2735  0.4514 -0.0897
  812TIP3   OH223926   4.854   0.587   5.329 -0.2321  0.1519  0.0829
  812TIP3    H123927   4.844   0.626   5.242 -1.0006 -1.0813 -0.4130
  812TIP3    H223928   4.797   0.639   5.386 -0.7368  0.1600 -0.4229
  813TIP3   OH223929   5.234   6.624  12.385  0.5638  0.1288  0.2572
  813TIP3    H123930   5.241   6.675  12.466 -2.5668  2.4173 -0.7321
  813TIP3    H223931   5.187   6.544  12.412 -0.8356  1.0631  0.7101
  814TIP3   OH223932   1.609   6.276   0.933  0.1330 -0.0395 -0.0556
  814TIP3    H123933   1.564   6.220   0.869 -2.2964  1.1649  0.4586
  814TIP3    H223934   1.619   6.359   0.888 -1.6157  0.8273  1.0456
  815TIP3   OH223935   5.756   5.409  15.814  0.6349  0.1146  0.2736
  815TIP3    H123936   5.850   5.422  15.826  1.0695 -0.7622 -1.7795
  815TIP3    H223937   5.736   5.453  15.731 -0.3693 -1.2812 -0.2536
  816TIP3   OH223938   4.848   6.323   2.987  0.4542  0.1900  0.4164
  816TIP3    H123939   4.880   6.234   3.005  3.4445  1.3002  1.1422
  816TIP3    H223940   4.825   6.321   2.894 -0.8927 -1.6821  0.7267
  817TIP3   OH223941   4.053   5.836  12.239  0.3394 -0.0217 -0.4651
  817TIP3    H123942   3.992   5.910  12.244 -1.4581 -1.4897  3.7137
  817TIP3    H223943   4.113   5.850  12.313  1.5734 -1.4555 -1.1489
  818TIP3   OH223944   2.672   4.691   6.089 -0.0655 -0.3777 -0.3023
  818TIP3    H123945   2.734   4.764   6.090 -0.8751  0.3209 -0.5808
  818TIP3    H223946   2.695   4.639   6.166 -0.6104  1.1355  0.9215
  819TIP3   OH223947   5.842   0.037   5.548  0.2675 -0.2564 -0.2271
  819TIP3    H123948   5.754   0.042   5.587  0.0484  1.4603 -0.8652
  819TIP3    H223949   5.884   0.119   5.572  0.9136 -0.1024 -1.7810
  820TIP3   OH223950   2.854   2.102  14.994  0.1825  0.1861 -0.0801
  820TIP3    H123951   2.888   2.016  14.969 -3.1990 -1.4342  0.3214
  820TIP3    H223952   2.856   2.152  14.912  1.1570 -0.6169 -0.5872
  821TIP3   OH223953   0.465   4.016  14.121 -0.3457 -0.6140 -0.0665
  821TIP3    H123954   0.524   4.076  14.166 -1.4503 -0.2530  0.9197
  821TIP3    H223955   0.384   4.019  14.170 -1.0096 -1.5769 -1.0442
  822TIP3   OH223956   0.903   6.384  14.177  0.1309  0.1803 -0.2505
  822TIP3    H123957   0.925   6.405  14.268  0.1677 -0.3949 -0.1227
  822TIP3    H223958   0.883   6.468  14.137  0.1993  0.4464  0.2705
  823TIP3   OH223959   5.812   5.945   1.476 -0.0323  0.2128  0.1028
  823TIP3    H123960   5.840   5.864   1.434  3.4012  0.8931  0.7751
  823TIP3    H223961   5.856   5.945   1.561 -0.7858  2.3152  0.5684
  824TIP3   OH223962   2.599   0.834   0.792 -0.2524 -1.2338  0.0459
  824TIP3    H123963   2.562   0.919   0.818  0.6231 -1.0976  0.8717
  824TIP3    H223964   2.541   0.804   0.722  0.0006  0.5378 -1.0083
  825TIP3   OH223965   2.858   4.098  14.466  0.5145 -0.0207 -0.1629
  825TIP3    H123966   2.891   4.009  14.453 -2.0248 -0.9981 -0.3341
  825TIP3    H223967   2.815   4.120  14.384 -2.6074 -0.3810  1.2462
  826TIP3   OH223968   3.276   3.005   6.866  0.0206 -0.4401  0.9922
  826TIP3    H123969   3.258   2.924   6.913 -0.8758  0.0217  1.4671
  826TIP3    H223970   3.298   3.068   6.934  0.0659 -0.1145  0.6777
  827TIP3   OH223971   1.239   4.298   4.226  0.7597  0.6156 -0.1412
  827TIP3    H123972   1.306   4.241   4.188 -0.7395  0.2622 -2.4430
  827TIP3    H223973   1.284   4.344   4.297  2.7323 -1.4476  0.0583
  828TIP3   OH223974   6.176   5.178  13.625 -0.4022  0.1192  0.8382
  828TIP3    H123975   6.128   5.237  13.683 -0.3774  2.1232 -1.0607
  828TIP3    H223976   6.116   5.163  13.551  0.4065 -0.5226  0.2964
  829TIP3   OH223977   1.649   1.180  12.563  0.7898 -0.0847  0.4093
  829TIP3    H123978   1.630   1.088  12.580  2.5056 -0.8941 -1.6410
  829TIP3    H223979   1.580   1.208  12.502  0.1172  0.0929  1.2346
  830TIP3   OH223980   2.261   2.690   5.983  0.0185 -0.4810  0.4719
  830TIP3    H123981   2.230   2.632   6.052 -0.9244 -0.3498  0.1734
  830TIP3    H223982   2.276   2.774   6.027 -1.3600 -0.1641  0.4025
  831TIP3   OH223983   3.551   0.034  14.641 -0.4342  0.4342  0.0206
  831TIP3    H123984   3.491   0.086  14.588 -1.4214 -1.4007 -0.7519
  831TIP3    H223985   3.598  -0.021  14.578  0.2789  0.0947  0.8300
  832TIP3   OH223986   1.075   5.327   0.784  0.2847  0.0056 -0.1219
  832TIP3    H123987   0.981   5.310   0.790  0.3469 -0.4842 -0.4328
  832TIP3    H223988   1.086   5.373   0.701  0.4662 -1.1483 -0.7721
  833TIP3   OH223989   3.158   4.685   3.280  0.0927  0.1871 -0.4282
  833TIP3    H123990   3.070   4.664   3.249 -0.1092 -1.4233  1.1035
  833TIP3    H223991   3.148   4.695   3.375  1.8862 -2.0897  0.0669
  834TIP3   OH223992   3.235   2.279  14.450 -0.0583  0.4793 -0.8736
  834TIP3    H123993   3.242   2.343  14.379 -0.5616  1.2493 -0.2563
  834TIP3    H223994   3.173   2.214  14.418 -1.9504  1.9571 -0.3483
  835TIP3   OH223995   3.786   2.890   1.502 -0.2293 -0.0030 -0.1101
  835TIP3    H123996   3.751   2.953   1.439  1.2511  0.9541 -0.0292
  835TIP3    H223997   3.818   2.943   1.575  1.1569 -0.8016 -0.0891
  836TIP3   OH223998   4.926   3.530   1.870  0.1738 -0.0549  0.9437
  836TIP3    H123999   4.891   3.453   1.825 -1.8092  0.0629  2.1891
  836TIP3    H224000   4.880   3.604   1.829  0.3318  0.2685  1.3457
  837TIP3   OH224001   0.794   5.187   5.140  0.1368  0.5786  0.0834
  837TIP3    H124002   0.881   5.206   5.177  0.9861 -1.3543 -0.7739
  837TIP3    H224003   0.737   5.178   5.217  1.6991 -2.6207  1.0386
  838TIP3   OH224004   5.842   6.760   1.616 -0.0056 -0.2782 -0.3329
  838TIP3    H124005   5.753   6.786   1.592  0.3378 -0.2052 -1.5416
  838TIP3    H224006   5.844   6.770   1.712 -0.9967  0.6476 -0.3870
  839TIP3   OH224007   5.533   2.732  15.079  0.2987  0.1226  0.0942
  839TIP3    H124008   5.443   2.757  15.060 -0.2396 -2.8374 -1.8193
  839TIP3    H224009   5.543   2.645  15.040  3.1907 -0.8372  2.5870
  840TIP3   OH224010   4.734   4.872   3.047 -0.2374  0.1969 -0.0597
  840TIP3    H124011   4.748   4.793   3.099 -0.8525 -0.4083 -0.7887
  840TIP3    H224012   4.723   4.841   2.958  0.9220  1.2375 -0.5949
  841TIP3   OH224013   3.057   3.175   2.089 -0.1816  0.2793 -0.1102
  841TIP3    H124014   3.051   3.080   2.088 -0.2892  0.2882 -0.3457
  841TIP3    H224015   3.151   3.193   2.090 -0.1570  0.1674  0.6797
  842TIP3   OH224016   4.564   1.365   1.421 -0.1022  0.1963  0.2665
  842TIP3    H124017   4.562   1.400   1.331  1.0607  2.6665  1.1146
  842TIP3    H224018   4.519   1.431   1.473  1.9398  0.3863  1.9279
  843TIP3   OH224019   2.920   2.725   0.627 -0.4718  0.4566  0.0244
  843TIP3    H124020   2.829   2.731   0.596 -0.0130  0.9613 -1.2830
  843TIP3    H224021   2.935   2.808   0.673 -0.4036  0.7421 -0.5127
  844TIP3   OH224022   6.097   2.020   4.068 -0.5098  0.2506 -0.5551
  844TIP3    H124023   6.044   1.948   4.037 -0.0616 -0.7116  0.8282
  844TIP3    H224024   6.039   2.071   4.125 -0.7535  0.8585 -1.3298
  845TIP3   OH224025   3.346   1.696  12.679  0.2577 -0.3058 -0.0584
  845TIP3    H124026   3.253   1.687  12.659  0.2794 -1.1419  0.1560
  845TIP3    H224027   3.357   1.789  12.701 -0.5282 -0.1991 -0.0724
  846TIP3   OH224028   3.196   1.384   5.551  0.4719 -0.2160  0.0693
  846TIP3    H124029   3.180   1.477   5.569  0.9486  0.3930 -2.3342
  846TIP3    H224030   3.110   1.349   5.528  0.1789 -0.5641  1.5938
  847TIP3   OH224031   6.265   3.356  16.723 -0.1994 -0.5649 -0.5314
  847TIP3    H124032   6.343   3.323  16.678  0.3920  0.6861 -0.4933
  847TIP3    H224033   6.207   3.281  16.729  1.1463 -1.6296 -0.2470
  848TIP3   OH224034   6.435   3.984  12.595  0.0596 -0.3356 -0.5894
  848TIP3    H124035   6.367   3.920  12.616  0.8402 -0.8835  0.3288
  848TIP3    H224036   6.486   3.994  12.675  0.3364  0.9912 -0.8960
  849TIP3   OH224037   0.068   4.780  16.731  0.3982 -0.5210  0.0143
  849TIP3    H124038   0.082   4.754  16.822  0.4798  1.3740  0.5776
  849TIP3    H224039  -0.002   4.722  16.700  0.8072 -1.6055  1.0829
  850TIP3   OH224040   3.221   3.286   1.300 -0.6731  0.4307  0.5326
  850TIP3    H124041   3.197   3.372   1.267 -0.1259  0.2637 -0.3345
  850TIP3    H224042   3.197   3.226   1.229 -2.5251 -0.3440  1.7281
  851TIP3   OH224043   5.486   2.562  11.712  0.4563  0.2519  0.2454
  851TIP3    H124044   5.392   2.560  11.698  0.1737 -1.2681  1.9999
  851TIP3    H224045   5.517   2.478  11.681  0.8252 -0.2809  1.9484
  852TIP3   OH224046   5.559   5.045   1.518  0.1169 -0.3526  0.2384
  852TIP3    H124047   5.464   5.043   1.531 -0.1543 -1.8622 -1.4755
  852TIP3    H224048   5.586   4.954   1.528  1.4997  0.1438  1.2640
  853TIP3   OH224049   5.058   0.862   0.119 -0.2016 -0.2281 -0.0402
  853TIP3    H124050   5.101   0.785   0.157 -0.8725 -0.7075 -0.2296
  853TIP3    H224051   5.130   0.921   0.096  0.3118 -0.7366  0.2424
  854TIP3   OH224052   5.148   6.571  13.564  0.3879  0.7483  0.3549
  854TIP3    H124053   5.137   6.647  13.507  0.1143 -0.2061 -0.8877
  854TIP3    H224054   5.202   6.510  13.513  1.3375  0.4422  1.6696
  855TIP3   OH224055   1.745   4.282   1.212  0.0730 -0.2444  0.3427
  855TIP3    H124056   1.738   4.344   1.140 -0.1379  1.9523  2.1610
  855TIP3    H224057   1.836   4.253   1.211 -0.4052 -1.9683 -2.0647
  856TIP3   OH224058   2.940   3.929  12.245 -0.5348  0.0422 -0.0381
  856TIP3    H124059   2.940   3.955  12.152  1.0295 -0.2166 -0.1335
  856TIP3    H224060   2.960   4.010  12.292  1.3425 -0.3451 -0.1281
  857TIP3   OH224061   4.002   1.913  17.281 -0.5060  0.0283 -0.4409
  857TIP3    H124062   3.978   1.823  17.306  0.6429 -0.3166 -0.5533
  857TIP3    H224063   3.927   1.965  17.311  0.4658 -0.4139  3.3460
  858TIP3   OH224064   5.690   3.418  16.665 -0.2876 -0.2449  0.1164
  858TIP3    H124065   5.627   3.350  16.688 -1.0182 -0.9320 -3.4389
  858TIP3    H224066   5.762   3.371  16.622  0.2764  1.0229 -0.3660
  859TIP3   OH224067   3.538   1.453  17.352  0.1041  0.1393 -0.1546
  859TIP3    H124068   3.618   1.402  17.367  0.6752  1.2712  0.9053
  859TIP3    H224069   3.511   1.431  17.263  3.2008  1.7956 -1.7011
  860TIP3   OH224070   1.024   3.232   1.352 -0.0253 -0.5495  0.2453
  860TIP3    H124071   1.058   3.146   1.327  2.3510  1.0268 -2.6875
  860TIP3    H224072   0.938   3.238   1.310  1.1999 -0.3922 -2.4481
  861TIP3   OH224073   5.407   3.807  13.035 -0.2124 -0.1645 -0.0077
  861TIP3    H124074   5.313   3.828  13.038 -0.1498  0.2078 -0.5068
  861TIP3    H224075   5.422   3.778  12.945  0.2674  0.3391 -0.0931
  862TIP3   OH224076   0.910   3.241  13.228  0.1960  0.7414 -0.4155
  862TIP3    H124077   0.899   3.267  13.319  1.1970  1.7730 -0.5605
  862TIP3    H224078   0.931   3.148  13.231 -0.0415  0.7096  0.3832
  863TIP3   OH224079   5.774   3.665  15.300  0.4686 -0.4293  0.1264
  863TIP3    H124080   5.759   3.684  15.208 -0.3263 -1.0375  0.1210
  863TIP3    H224081   5.728   3.582  15.316  0.4663 -0.2579  1.1024
  864TIP3   OH224082   0.602   6.580  11.865 -0.8175 -1.0906  0.5972
  864TIP3    H124083   0.646   6.637  11.929  2.0279 -3.2865  0.7821
  864TIP3    H224084   0.618   6.491  11.897 -2.8016 -2.1421 -1.0985
  865TIP3   OH224085   5.447   5.610   3.374  0.1045  0.0531  0.4282
  865TIP3    H124086   5.506   5.542   3.406  0.8004  0.4847  0.0730
  865TIP3    H224087   5.398   5.637   3.452  2.2030  1.5233  1.3311
  866TIP3   OH224088   4.584   3.031   3.124 -0.7463  0.2559  0.0909
  866TIP3    H124089   4.599   2.989   3.039 -0.3229  0.9048 -0.1609
  866TIP3    H224090   4.567   2.958   3.184 -0.2831 -0.2577 -0.3893
  867TIP3   OH224091   6.000   3.323   0.897 -0.0647 -0.1142  0.2019
  867TIP3    H124092   6.063   3.336   0.967 -0.6158 -0.2381  0.7249
  867TIP3    H224093   5.921   3.293   0.941 -0.2166 -0.8219 -0.5359
  868TIP3   OH224094   0.875   4.357  15.745 -0.0594 -0.4888  0.1773
  868TIP3    H124095   0.941   4.323  15.684 -0.4789 -1.8364  0.4424
  868TIP3    H224096   0.885   4.303  15.823 -0.1457  0.6233  0.9844
  869TIP3   OH224097   5.142   0.307   3.337 -0.4570 -0.1367 -0.3381
  869TIP3    H124098   5.062   0.278   3.382 -0.3980 -0.2979 -0.3366
  869TIP3    H224099   5.212   0.256   3.379 -0.1344  1.2293  0.8551
  870TIP3   OH224100   3.559   4.842  11.534  0.6517  0.4613  0.2928
  870TIP3    H124101   3.541   4.749  11.517  1.5542  0.1830  0.7752
  870TIP3    H224102   3.611   4.870  11.458 -0.8720  0.9939 -0.5984
  871TIP3   OH224103   1.066   0.990   0.981  0.3524 -0.4445 -0.2205
  871TIP3    H124104   1.076   1.073   1.027  0.4054 -1.9588  2.6984
  871TIP3    H224105   0.997   1.006   0.917  0.4379  1.8334  0.1865
  872TIP3   OH224106   5.095   0.503  14.897  0.3899 -0.6354  0.0789
  872TIP3    H124107   5.130   0.425  14.940  1.4982 -0.4935 -0.5037
  872TIP3    H224108   5.131   0.577  14.947  1.9926 -0.4619 -1.2242
  873TIP3   OH224109   3.796   5.942   6.513 -0.3909 -0.1630  0.6059
  873TIP3    H124110   3.707   5.913   6.533 -0.6310  1.3842  1.9979
  873TIP3    H224111   3.786   6.031   6.479  0.6626  0.4797  1.8734
  874TIP3   OH224112   0.877   3.639  14.542 -0.2960  0.0444  0.0344
  874TIP3    H124113   0.840   3.710  14.490 -0.2641 -0.5025 -0.7419
  874TIP3    H224114   0.971   3.653  14.539 -0.3390  0.6397  0.8725
  875TIP3   OH224115   4.234   2.685   1.738 -0.0148 -0.6593 -0.4861
  875TIP3    H124116   4.278   2.662   1.656 -0.5514 -2.0700 -0.3882
  875TIP3    H224117   4.157   2.734   1.710  0.9907  0.8802 -0.7020
  876TIP3   OH224118   6.222   1.351   6.193  0.1137 -0.4712  0.3556
  876TIP3    H124119   6.193   1.274   6.145 -2.5999  0.0531  0.9647
  876TIP3    H224120   6.200   1.333   6.284 -0.6068  0.9636  0.5091
  877TIP3   OH224121   4.641   4.987  14.660 -0.5315  0.4017  0.5372
  877TIP3    H124122   4.550   5.016  14.664 -0.4003  0.9813 -0.5209
  877TIP3    H224123   4.648   4.923  14.731 -2.1798 -0.7923 -0.2994
  878TIP3   OH224124   0.734   4.687   3.952  0.2514  0.2081  0.2917
  878TIP3    H124125   0.680   4.766   3.945 -0.7067 -0.5189 -0.9108
  878TIP3    H224126   0.824   4.720   3.953 -0.1400  1.3371  0.2441
  879TIP3   OH224127   6.152   0.882  14.470  0.4252  0.2057 -0.1851
  879TIP3    H124128   6.179   0.888  14.562 -0.4014 -1.9338  0.2569
  879TIP3    H224129   6.206   0.812  14.433 -0.8579 -0.5800 -0.6630
  880TIP3   OH224130   2.258   4.181   4.473  0.2960 -0.0176 -0.5859
  880TIP3    H124131   2.336   4.164   4.420  1.5439 -1.0472  1.4407
  880TIP3    H224132   2.195   4.114   4.447  0.4739  0.1597 -1.4978
  881TIP3   OH224133   2.964   5.444   0.865  0.2391  0.1518  0.3469
  881TIP3    H124134   3.007   5.361   0.842  1.4521  1.3517 -2.2057
  881TIP3    H224135   3.035   5.509   0.859 -0.4260  1.2959  3.3686
  882TIP3   OH224136   6.357   3.661  13.771 -0.5940  0.6054  0.0212
  882TIP3    H124137   6.368   3.755  13.784  1.8890  0.0263  3.3263
  882TIP3    H224138   6.303   3.632  13.844  0.0606 -0.7530 -0.0086
  883TIP3   OH224139   3.618   5.034   4.672 -0.2204 -0.0932  0.1851
  883TIP3    H124140   3.693   4.974   4.664 -2.3598 -2.9916  0.3776
  883TIP3    H224141   3.578   5.033   4.585  0.0320  1.6137  0.0183
  884TIP3   OH224142   5.852   5.269   3.939 -0.3977  0.0179 -0.2795
  884TIP3    H124143   5.832   5.362   3.929 -2.9731 -0.5091 -0.5241
  884TIP3    H224144   5.768   5.225   3.932  0.6615 -2.3024  0.5766
  885TIP3   OH224145   1.452   3.440   2.439 -0.1307  0.3536 -0.6196
  885TIP3    H124146   1.445   3.525   2.395 -0.1109  0.3307 -0.6673
  885TIP3    H224147   1.367   3.427   2.480  0.5244  1.3509  1.1479
  886TIP3   OH224148   2.616   3.347  11.710  0.0859 -0.0738 -0.0542
  886TIP3    H124149   2.609   3.256  11.738  1.6541 -0.0615  0.4804
  886TIP3    H224150   2.676   3.387  11.772  0.3709  1.0200 -0.9914
  887TIP3   OH224151   0.175   5.903   4.356 -0.2931 -0.0215  0.5554
  887TIP3    H124152   0.165   5.808   4.360  1.0099 -0.2152 -0.1611
  887TIP3    H224153   0.119   5.936   4.426 -1.2963 -1.2664  0.3762
  888TIP3   OH224154   5.797   6.559   0.370 -0.7436  0.0431  0.1738
  888TIP3    H124155   5.768   6.600   0.289 -1.3624 -0.1838  0.2720
  888TIP3    H224156   5.721   6.565   0.429 -0.8941 -1.3017  0.1592
  889TIP3   OH224157   6.476   4.786   0.068 -0.5912 -0.0852  0.0113
  889TIP3    H124158   6.435   4.728   0.132 -1.0024  1.6555  1.3933
  889TIP3    H224159   6.529   4.846   0.120  1.4199 -0.4413 -1.5373
  890TIP3   OH224160   4.395   4.830   3.362  0.3419  0.0961 -0.1327
  890TIP3    H124161   4.443   4.839   3.279 -0.8524  1.3472 -0.7250
  890TIP3    H224162   4.317   4.884   3.351  1.0633  1.8647  2.4944
  891TIP3   OH224163   5.977   0.298   3.021  0.0107  0.4700 -0.4009
  891TIP3    H124164   5.902   0.247   2.990  0.5122  0.6183 -1.9730
  891TIP3    H224165   5.991   0.364   2.952 -0.4559  2.6045  1.4187
  892TIP3   OH224166   4.934   4.767  15.413  0.1991  0.3556 -0.1350
  892TIP3    H124167   4.911   4.813  15.332  0.6815  1.5681  0.3800
  892TIP3    H224168   4.887   4.815  15.481 -0.7547 -1.0746  0.2575
  893TIP3   OH224169   4.952   3.254   5.028  0.2341 -0.3886  0.2870
  893TIP3    H124170   4.861   3.253   5.059  0.0296  0.5167 -0.2505
  893TIP3    H224171   4.953   3.321   4.960  1.2571 -0.5650  0.1181
  894TIP3   OH224172   1.664   2.622  11.691 -0.0616  0.5814 -0.1348
  894TIP3    H124173   1.579   2.599  11.653 -0.2986  0.9826  0.1466
  894TIP3    H224174   1.708   2.538  11.705 -1.0251  0.2677  1.1424
  895TIP3   OH224175   6.401   3.475  17.215  0.2503 -0.4517  0.5129
  895TIP3    H124176   6.353   3.542  17.262 -1.6009 -0.7193 -0.8817
  895TIP3    H224177   6.355   3.393  17.235 -1.4183 -0.4310 -2.5524
  896TIP3   OH224178   3.363   3.940   5.736 -0.3466  0.2587  0.3073
  896TIP3    H124179   3.456   3.936   5.755 -0.2292  2.3500  0.3945
  896TIP3    H224180   3.356   3.997   5.660 -1.5420 -0.1726  0.0562
  897TIP3   OH224181   4.847   6.476   3.801  0.7612  0.0081 -0.4352
  897TIP3    H124182   4.785   6.405   3.791  0.4224  0.1685  0.5171
  897TIP3    H224183   4.801   6.542   3.852  1.5084  0.3765 -0.2212
  898TIP3   OH224184   3.284   3.334  12.402  0.2515 -0.3095 -0.1339
  898TIP3    H124185   3.299   3.425  12.428  3.4049 -0.7999  0.1286
  898TIP3    H224186   3.316   3.329  12.312  0.9594 -1.3255  0.1585
  899TIP3   OH224187   1.020   5.220  13.064  0.6618  0.1143 -0.0695
  899TIP3    H124188   0.973   5.298  13.033  1.3211  0.0217 -1.3594
  899TIP3    H224189   1.112   5.242  13.055  0.8865 -0.2182  1.1652
  900TIP3   OH224190   2.306   6.228   4.488  0.2935 -0.4630  0.2472
  900TIP3    H124191   2.400   6.210   4.484  0.3886  0.0169  0.2938
  900TIP3    H224192   2.294   6.306   4.435 -0.2731 -1.2211 -0.7885
  901TIP3   OH224193   3.770   6.389   1.504 -0.4606 -0.1891  0.4646
  901TIP3    H124194   3.695   6.350   1.460 -0.6548  1.2523 -0.5576
  901TIP3    H224195   3.743   6.479   1.522  0.2221 -0.2807  2.1110
  902TIP3   OH224196   3.321   3.786   1.759  0.4030  0.1267  0.0411
  902TIP3    H124197   3.304   3.749   1.845  0.7388 -0.3558 -0.1002
  902TIP3    H224198   3.411   3.762   1.739 -0.2339 -1.3733 -1.2342
  903TIP3   OH224199   1.947   2.864   5.693  0.0089  0.0984  0.1824
  903TIP3    H124200   1.988   2.810   5.761  0.2311 -1.1499 -0.9095
  903TIP3    H224201   1.897   2.930   5.742  0.8466 -0.2292  1.5447
  904TIP3   OH224202   1.605   5.178  13.614 -0.2955  0.3456  0.0584
  904TIP3    H124203   1.526   5.222  13.647 -1.0464  0.3225 -1.6090
  904TIP3    H224204   1.663   5.173  13.690 -2.2914 -0.5544  1.6454
  905TIP3   OH224205   6.233   2.494  12.122 -0.8094 -0.1766 -0.6848
  905TIP3    H124206   6.137   2.497  12.127 -0.8733 -2.4011  0.9092
  905TIP3    H224207   6.251   2.427  12.056 -0.3783 -0.5930 -0.1479
  906TIP3   OH224208   3.098   3.321  16.113  0.4258 -0.3358  0.1586
  906TIP3    H124209   3.121   3.337  16.022 -1.4328  1.5508 -0.0543
  906TIP3    H224210   3.079   3.408  16.149  0.3586 -1.1088  2.1272
  907TIP3   OH224211   3.817   0.380   1.121  0.3396  0.2339  0.2526
  907TIP3    H124212   3.849   0.318   1.056 -0.5270 -0.1989  0.2258
  907TIP3    H224213   3.856   0.463   1.096  0.2426  0.0161 -0.6668
  908TIP3   OH224214   5.615   1.482   3.493 -0.5065 -0.2069 -0.0170
  908TIP3    H124215   5.667   1.428   3.552 -0.9318 -2.1540 -1.3087
  908TIP3    H224216   5.531   1.493   3.537 -0.6847 -1.3080 -0.0575
  909TIP3   OH224217   0.055   3.213   3.937  0.0495 -0.2494 -0.0548
  909TIP3    H124218   0.098   3.286   3.894  0.5728 -1.4113 -1.5931
  909TIP3    H224219   0.126   3.155   3.964 -0.4224 -0.9215 -0.2267
  910TIP3   OH224220   0.358   4.451   0.150  0.1967  0.3755 -0.2593
  910TIP3    H124221   0.368   4.529   0.094 -0.6235 -0.1667 -1.1937
  910TIP3    H224222   0.266   4.427   0.141  0.5604 -1.0272 -0.4344
  911TIP3   OH224223   5.134   0.784   5.715 -0.0552 -0.0427  0.2182
  911TIP3    H124224   5.225   0.765   5.737 -0.6306 -0.1561  2.9510
  911TIP3    H224225   5.107   0.848   5.782 -1.3004  1.9566 -2.0353
  912TIP3   OH224226   4.548   6.488   3.069  0.0584 -0.1646  0.5421
  912TIP3    H124227   4.495   6.450   2.998 -0.0942  1.8319 -0.4707
  912TIP3    H224228   4.624   6.525   3.025 -0.4235  1.8108  1.2604
  913TIP3   OH224229   3.935   6.769   5.720  0.2604  0.7832 -0.0052
  913TIP3    H124230   4.004   6.833   5.705 -0.0518  1.3331  0.8288
  913TIP3    H224231   3.872   6.814   5.777  0.9312 -0.8193  2.1654
  914TIP3   OH224232   6.768   5.807   5.885  0.2174 -0.0643 -0.3282
  914TIP3    H124233   6.725   5.761   5.813  0.1364  0.0445 -0.3494
  914TIP3    H224234   6.824   5.741   5.926 -2.6777 -1.2796  1.9918
  915TIP3   OH224235   6.227   2.480   3.549 -0.1824  0.9153  0.0858
  915TIP3    H124236   6.287   2.512   3.481 -1.4737  3.3648 -0.0243
  915TIP3    H224237   6.141   2.486   3.509 -0.8601  1.1865  1.5320
  916TIP3   OH224238   2.049   1.131   5.526 -0.0582  0.5103  0.3101
  916TIP3    H124239   2.082   1.059   5.473 -0.1607 -0.0103  0.9347
  916TIP3    H224240   2.014   1.089   5.605 -1.1399  1.1482  0.1867
  917TIP3   OH224241   5.502   3.916   0.928 -0.2022 -0.6461  1.1009
  917TIP3    H124242   5.562   3.905   1.003  0.5819  1.5654  0.8524
  917TIP3    H224243   5.434   3.975   0.960  0.7747  1.2737 -0.2241
  918TIP3   OH224244   1.753   2.436   5.984  0.3725  0.4081  0.6165
  918TIP3    H124245   1.830   2.380   5.999  1.0083  1.1501  0.1941
  918TIP3    H224246   1.784   2.525   6.001 -0.2245  0.7791 -0.1850
  919TIP3   OH224247   5.940   5.540  12.658  0.2396  0.0921 -0.1758
  919TIP3    H124248   6.016   5.491  12.688  1.5898  2.9343  1.5204
  919TIP3    H224249   5.971   5.591  12.584 -0.2499  0.6227 -0.0262
  920TIP3   OH224250   6.347   6.401   1.066  0.0410  0.2196 -0.6392
  920TIP3    H124251   6.256   6.402   1.094 -0.0478  2.2026 -0.8484
  920TIP3    H224252   6.396   6.379   1.146 -0.6358 -2.7234 -0.9096
  921TIP3   OH224253   5.202   0.583   2.686 -0.3941  0.0441 -0.1357
  921TIP3    H124254   5.189   0.678   2.696  0.4208  0.0921  0.6575
  921TIP3    H224255   5.231   0.554   2.773 -1.2011 -1.0462 -0.2031
  922TIP3   OH224256   6.569   1.215  16.126 -0.0889  0.4369 -0.3884
  922TIP3    H124257   6.617   1.199  16.207 -1.8339  1.7687  0.9927
  922TIP3    H224258   6.609   1.156  16.062  1.1124 -0.9142  1.5133
  923TIP3   OH224259   3.993   2.252   3.763 -0.5596  0.3395  0.0453
  923TIP3    H124260   4.073   2.274   3.811  0.1542 -0.0587 -0.9109
  923TIP3    H224261   3.927   2.311   3.797  0.8475  2.7784 -1.1551
  924TIP3   OH224262   5.090   4.975  12.599  0.0040  0.0253  0.2422
  924TIP3    H124263   5.151   4.903  12.613 -0.9933 -1.4401 -2.4058
  924TIP3    H224264   5.077   4.979  12.505 -2.1920  1.8369  0.5226
  925TIP3   OH224265   1.486   4.078   4.368  0.1129 -0.6872  0.0091
  925TIP3    H124266   1.522   4.012   4.309  0.9096 -0.3848  0.1435
  925TIP3    H224267   1.563   4.128   4.398 -0.4067 -0.1118  0.4050
  926TIP3   OH224268   6.689   4.483   5.153 -0.2398 -0.0285  0.2644
  926TIP3    H124269   6.725   4.471   5.240 -0.6548  0.1453  0.4618
  926TIP3    H224270   6.663   4.576   5.150 -0.2221 -0.0316 -0.0443
  927TIP3   OH224271   6.670   3.123   0.638  0.2126 -0.6218 -0.5695
  927TIP3    H124272   6.635   3.165   0.560  2.1228  0.4851 -0.9017
  927TIP3    H224273   6.692   3.034   0.611 -0.4765 -0.6914 -0.8950
  928TIP3   OH224274   4.752   1.300   0.567 -0.2780  0.3448 -0.2373
  928TIP3    H124275   4.772   1.280   0.476 -0.7199 -0.0318 -0.2542
  928TIP3    H224276   4.711   1.387   0.564  0.6837  0.8173 -0.2730
  929TIP3   OH224277   1.407   5.437   3.023 -0.1233 -0.0641  0.0861
  929TIP3    H124278   1.317   5.438   3.056  0.6363  0.4980  2.3079
  929TIP3    H224279   1.414   5.517   2.970 -0.5176  0.6848  1.1407
  930TIP3   OH224280   0.856   0.057  15.949  0.0211  0.1659 -0.2990
  930TIP3    H124281   0.822  -0.007  15.886  1.8576  0.8970 -2.1386
  930TIP3    H224282   0.886   0.131  15.895 -0.6104  1.9292  1.6446
  931TIP3   OH224283   2.792   1.205  12.826  0.0479  0.2322  0.2118
  931TIP3    H124284   2.706   1.234  12.794  0.7485  1.8707 -0.2914
  931TIP3    H224285   2.795   1.235  12.917  0.4096  0.9594 -0.0312
  932TIP3   OH224286   0.967   4.838  16.947 -0.2858  0.3436 -0.7251
  932TIP3    H124287   1.056   4.840  16.982  0.4328  0.5654 -2.4849
  932TIP3    H224288   0.915   4.885  17.013  0.5064 -1.3507  1.2400
  933TIP3   OH224289   3.055   1.063  13.029 -0.5298  0.0446 -0.7190
  933TIP3    H124290   2.989   1.107  12.976 -0.8470  1.3787  0.6798
  933TIP3    H224291   3.044   1.101  13.117  1.2214 -0.6572 -0.1410
  934TIP3   OH224292   4.048   0.616  17.078 -0.1310 -0.3474  0.5179
  934TIP3    H124293   4.015   0.697  17.116 -0.6379 -0.0031 -0.6408
  934TIP3    H224294   4.135   0.639  17.045 -0.9804  0.2592 -1.4581
  935TIP3   OH224295   3.203   2.316   2.069  0.0412  0.4847 -0.1797
  935TIP3    H124296   3.108   2.307   2.078  0.1981 -0.8676  0.3803
  935TIP3    H224297   3.219   2.299   1.976 -0.3393  1.5554 -0.4473
  936TIP3   OH224298   0.468   5.205  12.754  0.4911 -0.0303  0.2579
  936TIP3    H124299   0.458   5.281  12.696 -1.1123 -0.0226  0.4902
  936TIP3    H224300   0.443   5.238  12.840  0.7484 -0.5758  0.5409
  937TIP3   OH224301   0.087   4.438  13.867 -0.0440  0.7176 -0.7147
  937TIP3    H124302   0.095   4.370  13.934  0.1856  0.8123 -0.6453
  937TIP3    H224303   0.098   4.521  13.915 -3.1486  0.9874 -0.2897
  938TIP3   OH224304   2.400   6.451  12.997  0.3090 -0.1336 -0.4794
  938TIP3    H124305   2.322   6.506  12.990 -0.7679 -1.4807  0.5793
  938TIP3    H224306   2.405   6.428  13.090  0.4327 -2.2380 -0.9713
  939TIP3   OH224307   2.679   5.271  14.652  0.4251  0.0887 -0.1857
  939TIP3    H124308   2.636   5.321  14.722 -1.7339  0.3486 -1.6273
  939TIP3    H224309   2.656   5.317  14.572 -0.0191 -2.1119 -1.3934
  940TIP3   OH224310   4.701   6.625  13.290  0.5706 -0.0160  0.3728
  940TIP3    H124311   4.612   6.613  13.322  0.2083 -1.6104 -1.0866
  940TIP3    H224312   4.747   6.545  13.316  1.2390  0.2675  0.0870
  941TIP3   OH224313   2.054   2.777  15.981 -0.3466  0.2906 -0.3453
  941TIP3    H124314   2.116   2.833  16.029  1.1741 -1.8343  0.3104
  941TIP3    H224315   1.973   2.783  16.031 -0.1267  1.6562 -0.1148
  942TIP3   OH224316   0.065   3.510   5.683  0.1481 -0.3520 -0.0076
  942TIP3    H124317   0.142   3.462   5.655  0.5135  0.4779 -0.4606
  942TIP3    H224318   0.100   3.586   5.730 -0.4024 -0.2779  0.2935
  943TIP3   OH224319   2.884   2.814  14.315  0.1848 -0.3432  0.1261
  943TIP3    H124320   2.835   2.779  14.389  1.3597 -0.0100  1.0864
  943TIP3    H224321   2.820   2.818  14.244 -0.9694 -0.6609  1.1163
  944TIP3   OH224322   3.307   6.739   2.280 -0.3046  0.4646 -0.5099
  944TIP3    H124323   3.227   6.770   2.322 -0.5031 -1.8690  0.9971
  944TIP3    H224324   3.286   6.651   2.250  0.9389  0.7694 -2.4649
  945TIP3   OH224325   1.795   2.528  16.277 -0.2309  0.0153 -0.2283
  945TIP3    H124326   1.852   2.507  16.203 -0.8783 -0.9834 -0.4645
  945TIP3    H224327   1.824   2.614  16.306 -0.1407  0.5595 -1.8245
  946TIP3   OH224328   1.224   0.503  11.884 -0.2838 -0.3945 -0.2506
  946TIP3    H124329   1.192   0.586  11.850  0.3366 -0.3544 -0.7555
  946TIP3    H224330   1.314   0.496  11.850  0.1341 -0.6519  0.8494
  947TIP3   OH224331   2.022   1.908   6.862 -0.0329 -0.2535 -0.2099
  947TIP3    H124332   2.029   1.849   6.787  0.0938 -0.4773 -0.0234
  947TIP3    H224333   1.928   1.923   6.871 -0.0124  0.2436 -0.7743
  948TIP3   OH224334   2.137   6.235  15.785  0.2130 -0.1991  0.2103
  948TIP3    H124335   2.060   6.219  15.840 -0.5669 -1.5041 -1.1843
  948TIP3    H224336   2.110   6.208  15.698  1.4637  1.6935 -0.8254
  949TIP3   OH224337   4.287   5.244  12.587  0.0497  0.3853 -0.0301
  949TIP3    H124338   4.192   5.253  12.590 -0.0347 -0.2286 -0.5823
  949TIP3    H224339   4.320   5.329  12.614 -0.6312  0.1525  1.6806
  950TIP3   OH224340   1.503   0.921   3.747  0.8619  0.1671 -0.1317
  950TIP3    H124341   1.435   0.855   3.752 -0.8413  1.8561  0.1404
  950TIP3    H224342   1.558   0.893   3.673 -1.3355 -0.1892 -1.7408
  951TIP3   OH224343   3.901   1.069  13.845 -0.6510  0.0468  0.2748
  951TIP3    H124344   3.868   0.979  13.833 -0.1003 -0.1737  0.3797
  951TIP3    H224345   3.838   1.109  13.905  0.1367 -0.8774  1.7764
  952TIP3   OH224346   2.710   4.699  15.706  0.1513 -0.4330 -0.2123
  952TIP3    H124347   2.757   4.782  15.695  0.8174 -0.5178  1.5913
  952TIP3    H224348   2.624   4.726  15.740  0.7295 -0.4785  1.3819
  953TIP3   OH224349   1.067   0.403  12.588  0.1049 -0.2846 -0.6242
  953TIP3    H124350   1.121   0.458  12.532  0.8448  0.9607  1.2196
  953TIP3    H224351   1.127   0.371  12.655 -1.2591  0.5361  1.0610
  954TIP3   OH224352   2.595   0.089   1.222  0.3498  0.0724  0.4237
  954TIP3    H124353   2.643   0.068   1.302  2.7649 -0.9533 -1.1485
  954TIP3    H224354   2.616   0.181   1.205  1.7343 -0.3276 -0.1701
  955TIP3   OH224355   3.389   2.025  16.846 -0.4888  0.2901  0.5992
  955TIP3    H124356   3.386   2.025  16.750  0.3179 -0.4332  0.5621
  955TIP3    H224357   3.373   2.116  16.870 -1.0525  0.4226 -0.2006
  956TIP3   OH224358   3.079   2.437   2.751  0.6015 -0.0320  0.4503
  956TIP3    H124359   3.026   2.383   2.809  0.9715 -0.2918  0.5525
  956TIP3    H224360   3.138   2.375   2.708 -0.2675  0.0287 -0.8792
  957TIP3   OH224361   1.056   3.594   2.118 -0.1313  0.1682  0.0928
  957TIP3    H124362   1.086   3.657   2.184  0.6479  0.5579 -0.6104
  957TIP3    H224363   0.998   3.646   2.061 -1.8018 -0.4528  1.1366
  958TIP3   OH224364   2.327   4.641   0.350 -0.2702 -0.1423 -0.3006
  958TIP3    H124365   2.248   4.695   0.344 -0.5864 -0.1692  2.4337
  958TIP3    H224366   2.342   4.630   0.444  2.8221 -0.4282 -0.7248
  959TIP3   OH224367   6.252   6.254  12.082  0.1619 -0.0416 -0.2352
  959TIP3    H124368   6.244   6.195  12.007  0.5243 -0.1836 -0.1639
  959TIP3    H224369   6.223   6.201  12.157 -0.1954  0.0980 -0.2756
  960TIP3   OH224370   4.263   2.658  15.424  0.2855 -0.1121  0.0294
  960TIP3    H124371   4.339   2.683  15.370 -1.4001  0.9147 -2.0305
  960TIP3    H224372   4.254   2.731  15.486 -0.9068  1.5212 -1.9155
  961TIP3   OH224373   5.252   4.763  12.567  0.0338 -0.3561 -0.5614
  961TIP3    H124374   5.279   4.673  12.586 -0.6850 -0.2499  1.1572
  961TIP3    H224375   5.315   4.794  12.502  0.7113 -1.8731 -0.6631
  962TIP3   OH224376   5.593   3.300   5.748 -0.8518 -0.4008  0.0619
  962TIP3    H124377   5.640   3.274   5.668  0.8159 -1.8135  1.4341
  962TIP3    H224378   5.509   3.335   5.715 -1.4125 -3.4237 -2.2449
  963TIP3   OH224379   3.372   3.405  14.234  0.0961  0.3510 -0.1024
  963TIP3    H124380   3.385   3.324  14.282 -1.2762 -0.7436 -1.4649
  963TIP3    H224381   3.455   3.421  14.190  0.8456  0.5149  1.3075
  964TIP3   OH224382   5.340   0.843  16.673  0.4442  0.0511  0.0286
  964TIP3    H124383   5.405   0.866  16.739  1.7812 -1.4148 -0.7010
  964TIP3    H224384   5.300   0.926  16.648  2.9693  1.2133 -0.4221
  965TIP3   OH224385   1.981   3.741  11.276 -0.2094 -0.1940 -0.5766
  965TIP3    H124386   1.982   3.775  11.187 -0.2931 -0.0244 -0.5148
  965TIP3    H224387   2.026   3.808  11.328  2.6947 -1.7059 -0.9542
  966TIP3   OH224388   4.104   1.893   4.931  0.4273 -0.2086  0.1537
  966TIP3    H124389   4.100   1.873   4.837 -1.8865  0.7910 -0.0446
  966TIP3    H224390   4.013   1.909   4.955  0.9276 -0.8741  2.7008
  967TIP3   OH224391   2.475   6.759  13.731 -0.6913 -0.0921  0.4671
  967TIP3    H124392   2.500   6.743  13.822  2.1075  1.9195  0.1884
  967TIP3    H224393   2.470   6.672  13.692 -0.1411 -0.9060  2.1115
  968TIP3   OH224394   5.503   5.214   0.464  0.1976  0.1969  0.1539
  968TIP3    H124395   5.585   5.179   0.499  0.4518 -0.1479 -0.7636
  968TIP3    H224396   5.514   5.309   0.464 -0.4692  0.3556  2.6048
  969TIP3   OH224397   4.314   6.654   5.231  0.3776  0.3503  0.5295
  969TIP3    H124398   4.320   6.559   5.219  0.8345  0.5099 -0.7110
  969TIP3    H224399   4.373   6.673   5.303 -0.8257 -0.4623  1.7721
  970TIP3   OH224400   1.857   0.152  12.060 -0.1912  0.6353 -0.4556
  970TIP3    H124401   1.904   0.135  12.142 -1.1362 -1.7166 -0.3341
  970TIP3    H224402   1.819   0.239  12.072  1.6906  1.3776  0.5816
  971TIP3   OH224403   5.203   1.183  14.884  0.1401 -0.3451 -0.1195
  971TIP3    H124404   5.120   1.215  14.921  1.5400 -0.4537  3.5583
  971TIP3    H224405   5.249   1.262  14.857  0.1246  0.0195  0.8802
  972TIP3   OH224406   3.543   1.707   0.861 -0.7478 -0.5981  0.4232
  972TIP3    H124407   3.588   1.790   0.877 -1.3915  0.0259 -0.9081
  972TIP3    H224408   3.504   1.684   0.946  0.2498 -0.0569  1.0484
  973TIP3   OH224409   0.404   4.737  11.793 -0.5355  0.0377 -0.6517
  973TIP3    H124410   0.312   4.739  11.769 -0.3834  1.8832 -1.2846
  973TIP3    H224411   0.444   4.805  11.738  0.7141  1.1042  1.4569
  974TIP3   OH224412   2.240   6.512   2.912 -0.0254 -0.5765 -0.3621
  974TIP3    H124413   2.233   6.591   2.858 -0.5709  0.2707  0.9032
  974TIP3    H224414   2.308   6.460   2.869 -1.1872 -0.4689 -2.4879
  975TIP3   OH224415   6.437   5.575  13.316 -0.2853 -0.4823  0.2114
  975TIP3    H124416   6.365   5.635  13.335  1.7961  2.3497 -0.1698
  975TIP3    H224417   6.430   5.507  13.382 -1.1541  1.7286  2.5670
  976TIP3   OH224418   4.074   0.078   1.200  1.0805  0.1518 -0.1743
  976TIP3    H124419   4.043   0.133   1.127  0.9467  0.5024  0.1422
  976TIP3    H224420   4.077   0.138   1.274  3.4848  0.3945 -0.4007
  977TIP3   OH224421   4.177   3.119   1.106 -0.7252  0.7797 -0.4292
  977TIP3    H124422   4.199   3.046   1.048 -1.5853  0.2392 -0.0864
  977TIP3    H224423   4.177   3.081   1.194 -2.3263  0.8939 -0.3457
  978TIP3   OH224424   0.590   5.686  11.730  0.3570 -0.1008  0.2907
  978TIP3    H124425   0.648   5.682  11.806 -0.5137  0.9144  1.0495
  978TIP3    H224426   0.631   5.750  11.671 -0.0599  0.7755  0.9219
  979TIP3   OH224427   5.902   0.056   4.497  0.2487  0.2229  0.4314
  979TIP3    H124428   5.958  -0.022   4.503 -0.6516 -1.1193 -4.3965
  979TIP3    H224429   5.945   0.112   4.432 -1.7407  1.2261 -0.1041
  980TIP3   OH224430   5.486   4.506  14.662 -0.0214  0.4350  0.0477
  980TIP3    H124431   5.472   4.422  14.618  1.1437 -0.6052  1.5698
  980TIP3    H224432   5.427   4.503  14.737 -0.5694  1.3582 -0.3263
  981TIP3   OH224433   4.424   4.629  17.060 -0.3030 -0.7366  0.0904
  981TIP3    H124434   4.364   4.565  17.022  0.4422 -1.7811  0.6459
  981TIP3    H224435   4.415   4.617  17.154  0.2437 -0.3947  0.1886
  982TIP3   OH224436   5.449   0.436  16.629  0.0202 -0.0883 -0.6088
  982TIP3    H124437   5.465   0.342  16.627 -0.9989 -0.2544 -1.4857
  982TIP3    H224438   5.518   0.471  16.685  1.5878 -1.1245 -1.8113
  983TIP3   OH224439   2.163   2.193  11.286  0.6718  0.3396 -0.1461
  983TIP3    H124440   2.255   2.175  11.269  1.4726  2.7392  1.2266
  983TIP3    H224441   2.157   2.203  11.381 -0.5950  2.0900 -0.3532
  984TIP3   OH224442   6.649   3.003   1.074 -0.2421  0.6095  0.1354
  984TIP3    H124443   6.633   2.918   1.034  0.7228 -0.1075  1.2336
  984TIP3    H224444   6.705   3.049   1.011 -1.5890  0.8585 -0.9375
  985TIP3   OH224445   0.399   3.801  11.868  0.1985  0.0998  0.3739
  985TIP3    H124446   0.372   3.826  11.780  0.2099 -0.9453  0.0692
  985TIP3    H224447   0.324   3.824  11.923 -0.3852 -0.5757 -0.1217
  986TIP3   OH224448   1.795   0.221   6.198 -0.3282 -0.0856  0.3982
  986TIP3    H124449   1.834   0.245   6.114 -0.2747 -0.3673  0.3444
  986TIP3    H224450   1.703   0.204   6.178  0.3055 -3.4710 -0.2528
  987TIP3   OH224451   2.245   0.998  14.316 -0.0504 -0.5298  0.1994
  987TIP3    H124452   2.300   1.052  14.372 -1.4486  1.0634  0.1040
  987TIP3    H224453   2.297   0.986  14.236  0.1413  1.0324  0.0686
  988TIP3   OH224454   2.633   5.417  12.711  0.1004  0.9750  0.2192
  988TIP3    H124455   2.557   5.407  12.653 -0.1575  0.8182  0.5815
  988TIP3    H224456   2.700   5.361  12.672 -0.2583  0.4220  0.3866
  989TIP3   OH224457   1.112   2.726  11.759  0.8120 -0.0607  0.6108
  989TIP3    H124458   1.204   2.750  11.746  0.7458  0.4329  1.0377
  989TIP3    H224459   1.093   2.665  11.687  1.1291  0.7621 -0.1895
  990TIP3   OH224460   1.420   6.092  11.250 -0.6987 -0.0641  0.3969
  990TIP3    H124461   1.487   6.132  11.194 -0.6051 -1.6756 -0.7391
  990TIP3    H224462   1.360   6.163  11.272  0.1574  0.9448 -0.4365
  991TIP3   OH224463   1.636   1.720  14.914 -0.0883 -0.0770 -0.5992
  991TIP3    H124464   1.572   1.791  14.906 -0.3465 -0.2538 -0.1179
  991TIP3    H224465   1.720   1.765  14.924 -0.0783  0.1562 -1.6057
  992TIP3   OH224466   4.258   5.519  16.913 -0.4527  0.4040  0.1956
  992TIP3    H124467   4.301   5.439  16.882 -0.4796  0.3322  0.3453
  992TIP3    H224468   4.280   5.524  17.006  1.8881  2.0368 -0.3421
  993TIP3   OH224469   2.353   0.739  13.773  0.1430  0.6102 -0.9733
  993TIP3    H124470   2.439   0.726  13.732  1.6728  3.1649  1.1146
  993TIP3    H224471   2.361   0.697  13.859 -0.2761  1.7921 -0.3365
  994TIP3   OH224472   3.043   3.252   5.065  0.0436  0.3365 -0.4939
  994TIP3    H124473   3.094   3.216   5.137  0.0166 -0.4077 -0.8399
  994TIP3    H224474   2.978   3.185   5.045 -0.2920  0.7582 -0.8631
  995TIP3   OH224475   6.005   1.994  13.186  0.4460  0.1076  0.0712
  995TIP3    H124476   5.987   1.923  13.248 -1.4285 -0.0127 -0.5132
  995TIP3    H224477   6.033   1.949  13.106 -0.6043 -0.0148 -0.2535
  996TIP3   OH224478   6.151   2.924  17.145  0.3898 -0.0052 -0.4188
  996TIP3    H124479   6.219   2.869  17.106 -0.1024 -0.1284 -1.1144
  996TIP3    H224480   6.135   2.993  17.080  0.5231  0.5779  0.1548
  997TIP3   OH224481   1.862   4.494   5.749 -0.4235 -0.5638 -0.4116
  997TIP3    H124482   1.858   4.442   5.829 -0.7555  1.1608  0.7549
  997TIP3    H224483   1.874   4.430   5.679 -3.2900 -2.4628  0.6404
  998TIP3   OH224484   2.545   5.533  13.531  0.6495  0.8417  0.2256
  998TIP3    H124485   2.617   5.491  13.484 -0.6660 -0.5405 -0.6589
  998TIP3    H224486   2.585   5.566  13.611  1.8926 -1.7531  0.7784
  999TIP3   OH224487   0.899   5.700  14.895  0.7367  0.4983 -0.0081
  999TIP3    H124488   0.837   5.645  14.848 -1.2198  3.7076 -1.5335
  999TIP3    H224489   0.955   5.638  14.941 -0.5250 -2.7331 -2.4074
 1000TIP3   OH224490   4.857   2.667  17.455 -0.9325 -0.2174 -0.1576
 1000TIP3    H124491   4.928   2.603  17.462 -0.8273 -0.3007 -1.6222
 1000TIP3    H224492   4.889   2.731  17.392 -1.5453  0.6033  0.3477
 1001TIP3   OH224493   2.021   4.925   1.620 -0.0471 -0.0578 -0.2207
 1001TIP3    H124494   1.993   4.857   1.559  0.0707 -0.7953  0.5145
 1001TIP3    H224495   2.042   5.000   1.565 -0.4792 -0.5113 -1.0306
 1002TIP3   OH224496   2.434   0.308   2.649 -0.1667 -0.5075  0.6033
 1002TIP3    H124497   2.461   0.326   2.739  0.8135 -1.0217  0.4268
 1002TIP3    H224498   2.492   0.238   2.620 -0.8389 -0.7316 -0.2499
 1003TIP3   OH224499   1.622   5.211   3.384  0.3736  0.8001  0.0374
 1003TIP3    H124500   1.551   5.271   3.402 -0.3207 -0.8272  3.6691
 1003TIP3    H224501   1.580   5.133   3.346  0.7810  1.1613 -1.2199
 1004TIP3   OH224502   2.865   2.199   2.557 -0.3925  0.2102 -0.2503
 1004TIP3    H124503   2.887   2.147   2.480 -0.9554 -0.8186  0.2471
 1004TIP3    H224504   2.926   2.169   2.625 -1.4617 -0.6722  0.3606
 1005TIP3   OH224505   0.682   0.660  13.058  0.3755  0.5560  0.7527
 1005TIP3    H124506   0.637   0.605  12.993  2.0153 -1.0627  0.8820
 1005TIP3    H224507   0.721   0.730  13.006 -1.1878  1.2709  0.4844
 1006TIP3   OH224508   6.010   5.639  11.622  0.3084  0.1962 -1.0458
 1006TIP3    H124509   5.955   5.565  11.596  0.4207 -0.0848 -0.4874
 1006TIP3    H224510   5.949   5.706  11.650  0.2354 -0.0131 -0.6977
 1007TIP3   OH224511   6.606   0.920   6.088 -0.0003 -0.3311 -0.5591
 1007TIP3    H124512   6.532   0.966   6.127  0.3046 -1.0790  0.9719
 1007TIP3    H224513   6.636   0.860   6.156  1.2506 -0.9237 -1.5825
 1008TIP3   OH224514   6.683   4.381   1.136 -0.3323  0.2893  0.0906
 1008TIP3    H124515   6.710   4.291   1.152  2.4259  1.0392  0.2763
 1008TIP3    H224516   6.704   4.427   1.218  0.1512  1.4374 -0.6462
 1009TIP3   OH224517   2.777   4.472   3.729  0.1540  0.6115 -0.4283
 1009TIP3    H124518   2.681   4.479   3.732  0.0849  0.9481 -2.3968
 1009TIP3    H224519   2.803   4.532   3.660  1.8757  1.0652  0.5682
 1010TIP3   OH224520   3.202   1.074  13.858  0.5964 -0.0567  0.0482
 1010TIP3    H124521   3.120   1.121  13.843 -0.3071 -1.8689 -1.0321
 1010TIP3    H224522   3.229   1.099  13.947 -1.1022  0.5947  0.4039
 1011TIP3   OH224523   2.629   3.808   1.938  0.3863  0.7100  0.0703
 1011TIP3    H124524   2.600   3.717   1.944  0.7892  0.6343  0.9739
 1011TIP3    H224525   2.599   3.837   1.852 -0.1899 -0.1220 -0.0198
 1012TIP3   OH224526   2.061   5.864   3.138  0.0162  0.2251  0.3733
 1012TIP3    H124527   2.102   5.948   3.156 -0.0665 -0.0873  2.2178
 1012TIP3    H224528   2.020   5.875   3.052  0.8374  1.7212  0.1368
 1013TIP3   OH224529   6.175   2.508  11.556  0.0444 -0.2542 -0.3408
 1013TIP3    H124530   6.099   2.547  11.512 -0.3322 -0.3185  0.2339
 1013TIP3    H224531   6.150   2.506  11.649  1.1580  0.6754  0.0022
 1014TIP3   OH224532   5.632   4.648  11.366  0.8343 -0.8136  0.4762
 1014TIP3    H124533   5.706   4.590  11.352 -0.3956 -2.0938 -1.0613
 1014TIP3    H224534   5.646   4.720  11.305  1.4615 -0.3501  1.1441
 1015TIP3   OH224535   6.398   3.106   4.043 -0.3865  0.1770  0.2266
 1015TIP3    H124536   6.463   3.078   3.979 -0.4305  1.0273 -0.1940
 1015TIP3    H224537   6.348   3.026   4.062  1.1456 -0.6285  1.0286
 1016TIP3   OH224538   6.485   4.025  15.468 -0.0318 -0.0781  0.7054
 1016TIP3    H124539   6.397   4.061  15.480 -0.2146  0.3091 -1.3824
 1016TIP3    H224540   6.540   4.102  15.453  0.5706 -0.3601  1.4076
 1017TIP3   OH224541   2.871   4.182  13.608  0.8110 -0.3283  0.2655
 1017TIP3    H124542   2.854   4.107  13.665 -1.8714  0.5635  0.7653
 1017TIP3    H224543   2.844   4.152  13.521  1.0782 -0.3841  0.2004
 1018TIP3   OH224544   3.471   6.533  13.226 -0.2088 -0.1093  0.6749
 1018TIP3    H124545   3.499   6.489  13.146 -0.4758 -0.7726  0.9410
 1018TIP3    H224546   3.538   6.511  13.290 -0.1725  0.1417  0.7240
 1019TIP3   OH224547   6.707   2.436   3.238 -0.6073 -0.1585  0.4276
 1019TIP3    H124548   6.688   2.529   3.229  0.3708  0.0455  0.3807
 1019TIP3    H224549   6.781   2.432   3.299 -1.2319 -0.9694  1.1630
 1020TIP3   OH224550   4.811   2.913  14.207 -0.2240 -0.1627  0.5444
 1020TIP3    H124551   4.729   2.954  14.232 -0.7290 -0.4500 -0.5876
 1020TIP3    H224552   4.804   2.822  14.237 -0.0422 -0.0141  1.0387
 1021TIP3   OH224553   6.314   6.612   6.155 -0.0707 -0.0085 -0.1852
 1021TIP3    H124554   6.302   6.540   6.217 -0.3132  0.3305  0.1634
 1021TIP3    H224555   6.246   6.675   6.178  0.4496  0.5525 -0.1696
 1022TIP3   OH224556   1.387   3.756   1.995 -0.5004  0.4598  0.0525
 1022TIP3    H124557   1.305   3.802   2.011 -0.1854  0.6815  1.1100
 1022TIP3    H224558   1.390   3.744   1.900 -1.5132  0.8859 -0.0431
 1023TIP3   OH224559   4.192   0.357  16.987 -0.0534 -0.3052 -0.5722
 1023TIP3    H124560   4.278   0.384  16.957  0.0782 -0.6366 -0.4894
 1023TIP3    H224561   4.133   0.379  16.914  0.0239  0.3589 -0.4433
 1024TIP3   OH224562   5.595   5.603  14.661  0.1150  0.4064 -0.1884
 1024TIP3    H124563   5.596   5.693  14.694 -1.3194 -0.7486  3.5673
 1024TIP3    H224564   5.565   5.611  14.570  0.6682  3.7146 -0.2109
 1025TIP3   OH224565   6.551   0.361  13.688 -0.3633 -0.4621  0.9480
 1025TIP3    H124566   6.484   0.391  13.750 -2.0163  0.5176 -1.1813
 1025TIP3    H224567   6.542   0.266  13.687 -2.4076 -0.3151  0.0670
 1026TIP3   OH224568   4.213   6.402  16.796 -0.0184  0.2076 -0.3113
 1026TIP3    H124569   4.126   6.411  16.835  0.2616 -2.0505  0.9740
 1026TIP3    H224570   4.242   6.492  16.781 -2.7511  1.0208 -1.2692
 1027TIP3   OH224571   2.548   5.422  14.341  0.4316  0.0217  0.7698
 1027TIP3    H124572   2.457   5.448  14.358 -0.2840 -0.3039 -2.1035
 1027TIP3    H224573   2.544   5.327  14.330  0.9191  0.1219 -0.3406
 1028TIP3   OH224574   1.876   0.784   4.245  0.1518 -0.5886 -0.0750
 1028TIP3    H124575   1.867   0.826   4.330 -0.1671 -0.4860 -0.1612
 1028TIP3    H224576   1.946   0.719   4.258 -0.1263 -0.8029  0.3500
 1029TIP3   OH224577   3.169   5.874  14.851  0.6250 -0.1808 -0.0914
 1029TIP3    H124578   3.123   5.805  14.899  0.8067 -1.3421 -1.4907
 1029TIP3    H224579   3.100   5.928  14.812  0.4813  0.3925  0.9356
 1030TIP3   OH224580   2.667   6.192   3.975  0.3783 -0.4217 -0.3146
 1030TIP3    H124581   2.655   6.128   4.045  0.0889  0.9301  0.9374
 1030TIP3    H224582   2.648   6.145   3.895 -2.1428 -1.3229  0.7271
 1031TIP3   OH224583   1.411   5.729  12.173  0.5626  0.0818  0.5126
 1031TIP3    H124584   1.484   5.761  12.120 -0.6411  1.7882 -0.2126
 1031TIP3    H224585   1.406   5.636  12.153  2.1115  0.0568  0.0722
 1032TIP3   OH224586   6.370   0.216   2.137 -0.1531 -0.2264  0.4812
 1032TIP3    H124587   6.405   0.250   2.219  1.9198  0.4481 -0.6045
 1032TIP3    H224588   6.441   0.163   2.100 -0.9584 -0.3677 -0.9682
 1033TIP3   OH224589   3.782   3.939   2.195  0.1184 -0.1989  0.5002
 1033TIP3    H124590   3.848   3.942   2.125  1.3508 -1.1858  1.5772
 1033TIP3    H224591   3.699   3.926   2.149  0.8335 -0.2509 -0.8174
 1034TIP3   OH224592   6.576   4.303   3.372 -0.2723  0.5459  0.1500
 1034TIP3    H124593   6.546   4.369   3.310 -0.4405  0.1117 -0.2440
 1034TIP3    H224594   6.497   4.252   3.392 -0.1019  0.3334  0.2788
 1035TIP3   OH224595   0.366   0.352  12.284  0.3543 -0.6362  0.1936
 1035TIP3    H124596   0.460   0.368  12.270  0.5350 -1.8861 -0.0895
 1035TIP3    H224597   0.339   0.301  12.208 -0.9189  1.0020 -0.5117
 1036TIP3   OH224598   4.277   0.526  10.743 -0.0260  0.1833 -0.9663
 1036TIP3    H124599   4.356   0.477  10.764  0.6410  1.2383 -0.9138
 1036TIP3    H224600   4.307   0.595  10.684 -0.6440  1.4640  0.1694
 1037TIP3   OH224601   5.211   4.683  14.455  0.3309  0.4676  0.1109
 1037TIP3    H124602   5.230   4.765  14.500 -0.6291  0.9478 -0.3131
 1037TIP3    H224603   5.168   4.629  14.520 -0.1380  0.7738  0.0596
 1038TIP3   OH224604   1.306   4.000  15.105  0.1953 -0.1375 -0.2838
 1038TIP3    H124605   1.363   3.955  15.167  0.0475 -1.5525 -1.1180
 1038TIP3    H224606   1.356   4.076  15.077  0.4317  0.2786  1.2303
 1039TIP3   OH224607   4.901   1.691   1.116 -0.3709 -0.4213 -0.3501
 1039TIP3    H124608   4.905   1.724   1.206  0.9090 -0.4762 -0.3647
 1039TIP3    H224609   4.954   1.611   1.117  1.6579  0.7952 -1.6023
 1040TIP3   OH224610   4.643   1.890  16.430  0.4038 -0.5432 -0.1125
 1040TIP3    H124611   4.654   1.896  16.335  0.7778  0.5403 -0.0071
 1040TIP3    H224612   4.567   1.832  16.442 -0.2594  0.1086 -1.0872
 1041TIP3   OH224613   3.479   1.641   1.897  0.2203  0.5620  0.1418
 1041TIP3    H124614   3.444   1.709   1.839  1.6902 -0.6094 -2.2579
 1041TIP3    H224615   3.403   1.612   1.948 -1.4273  0.9657 -1.9408
 1042TIP3   OH224616   5.428   1.648   3.687  0.0569  0.1167 -0.1940
 1042TIP3    H124617   5.341   1.673   3.655 -0.4068 -1.2447 -0.0382
 1042TIP3    H224618   5.411   1.600   3.768  1.0395  0.7969  0.4432
 1043TIP3   OH224619   5.950   0.731  13.783  0.3896 -0.8442  0.3510
 1043TIP3    H124620   5.903   0.703  13.862  1.6856 -1.2307  1.0015
 1043TIP3    H224621   6.030   0.679  13.783  1.3709  0.6245 -0.1102
 1044TIP3   OH224622   1.599   5.336   4.190 -0.0127 -0.1992 -0.7218
 1044TIP3    H124623   1.619   5.263   4.131  1.5221 -0.7421  0.4111
 1044TIP3    H224624   1.578   5.295   4.273  0.8817  0.6378 -0.0639
 1045TIP3   OH224625   3.258   5.021  16.743  0.0678 -0.5789 -0.0127
 1045TIP3    H124626   3.289   5.103  16.784 -0.9903  0.4541 -1.1948
 1045TIP3    H224627   3.181   5.047  16.694 -0.5582 -2.4084 -0.0658
 1046TIP3   OH224628   2.683   0.949   6.435 -0.0089 -0.1796 -0.1763
 1046TIP3    H124629   2.716   0.899   6.509 -1.2617 -0.6642  0.0837
 1046TIP3    H224630   2.675   1.039   6.469 -0.2416 -0.3305  0.1769
 1047TIP3   OH224631   6.609   6.049   4.861 -0.4292  0.1884  0.4105
 1047TIP3    H124632   6.555   6.025   4.937 -2.2807  1.4468 -0.4271
 1047TIP3    H224633   6.548   6.091   4.801  0.8119 -1.5670 -2.2201
 1048TIP3   OH224634   3.087   5.405   3.380 -0.0165  0.2609 -0.2544
 1048TIP3    H124635   2.995   5.385   3.360  0.1403  1.8984 -3.1124
 1048TIP3    H224636   3.083   5.461   3.457 -1.2776 -0.9095  0.5769
 1049TIP3   OH224637   6.732   6.393  17.191  0.4608 -0.0122  0.2456
 1049TIP3    H124638   6.811   6.339  17.189  0.6091  0.1844  0.6614
 1049TIP3    H224639   6.662   6.334  17.164  0.1361 -1.2040  3.3728
 1050TIP3   OH224640   0.709   1.953  17.279  0.3031  0.6576 -0.3274
 1050TIP3    H124641   0.793   1.997  17.271  1.2505 -0.4690  2.2665
 1050TIP3    H224642   0.722   1.869  17.235  0.5009  0.5754 -0.1195
 1051TIP3   OH224643   0.845   0.144   3.219  0.3887 -0.3465 -0.0944
 1051TIP3    H124644   0.800   0.117   3.299  0.9656  0.5954  0.5739
 1051TIP3    H224645   0.797   0.222   3.189  0.7805 -0.1026 -0.0982
 1052TIP3   OH224646   4.431   0.037   6.172 -0.2216 -0.2603  0.0114
 1052TIP3    H124647   4.387  -0.046   6.193  0.0477 -0.5280 -0.4536
 1052TIP3    H224648   4.364   0.088   6.127  0.2525 -1.1342 -1.7799
 1053TIP3   OH224649   3.239   0.054   6.927  0.2523  0.0578  0.0960
 1053TIP3    H124650   3.287  -0.020   6.890  0.7006  0.8137 -0.8579
 1053TIP3    H224651   3.303   0.126   6.930 -1.1222  1.5155 -2.5544
 1054TIP3   OH224652   0.534   1.033   4.045 -0.7516  0.5263 -0.7830
 1054TIP3    H124653   0.485   1.030   3.963  1.9557  0.4703 -2.5631
 1054TIP3    H224654   0.532   0.943   4.078 -0.9522  0.3068 -1.3861
 1055TIP3   OH224655   1.285   5.119  14.069  0.1554  0.5135  0.0031
 1055TIP3    H124656   1.371   5.160  14.076 -0.1321  1.2612 -0.6783
 1055TIP3    H224657   1.294   5.036  14.116  0.6889  1.4406  1.5920
 1056TIP3   OH224658   4.836   2.977  16.432 -0.2495 -0.1715 -0.3994
 1056TIP3    H124659   4.811   3.069  16.420 -3.1923 -0.5960  1.3535
 1056TIP3    H224660   4.827   2.939  16.345 -3.0199  0.4399 -0.4765
 1057TIP3   OH224661   1.407   2.613  15.826  0.3873 -0.4603 -0.3695
 1057TIP3    H124662   1.462   2.645  15.898  2.3356 -2.2197 -0.9569
 1057TIP3    H224663   1.408   2.685  15.762  2.3306 -0.5071 -0.4781
 1058TIP3   OH224664   1.871   5.471  14.565  0.2933  0.3647 -0.0990
 1058TIP3    H124665   1.925   5.452  14.488 -0.4883 -1.8225 -0.1777
 1058TIP3    H224666   1.806   5.534  14.534  0.3181 -0.0820 -1.1058
 1059TIP3   OH224667   4.601   2.033  13.123  0.1030 -0.3280 -0.0546
 1059TIP3    H124668   4.564   2.099  13.064 -0.0740 -1.9495 -1.8482
 1059TIP3    H224669   4.664   1.985  13.069  0.9944 -0.9962  1.4979
 1060TIP3   OH224670   3.917   0.725  11.623  0.9821  0.0257  0.1811
 1060TIP3    H124671   4.010   0.715  11.643  1.2109  0.8119 -0.4316
 1060TIP3    H224672   3.896   0.815  11.649  0.9076  0.5466 -1.5034
 1061TIP3   OH224673   0.326   0.390  11.178  0.1669  0.0359 -0.3242
 1061TIP3    H124674   0.343   0.315  11.121  0.0062 -2.0063  2.1165
 1061TIP3    H224675   0.394   0.453  11.157 -0.0093 -0.5259 -2.8481
 1062TIP3   OH224676   5.789   3.672  16.786  0.0741  0.3987  0.6869
 1062TIP3    H124677   5.781   3.593  16.732 -3.1721  0.9636  0.1300
 1062TIP3    H224678   5.863   3.719  16.749  0.0397 -0.8571 -1.0889
 1063TIP3   OH224679   3.647   0.015   5.802 -0.0672 -0.6291 -0.1062
 1063TIP3    H124680   3.630   0.070   5.726 -4.5386  2.4861  2.6499
 1063TIP3    H224681   3.609  -0.070   5.780 -0.3507 -0.1145 -1.6836
 1064TIP3   OH224682   0.478   0.697  11.303  0.3023  0.2750  0.1610
 1064TIP3    H124683   0.440   0.613  11.329 -2.8491  1.7463  0.8862
 1064TIP3    H224684   0.462   0.702  11.209 -0.6592  0.5423  0.3271
 1065TIP3   OH224685   6.142   5.880   4.984  0.2637  0.4160  0.2436
 1065TIP3    H124686   6.185   5.961   4.956 -0.0408  0.3466 -0.4606
 1065TIP3    H224687   6.144   5.883   5.080  0.6245  1.0582  0.2207
 1066TIP3   OH224688   3.528   6.536  16.470 -0.3787 -0.0357 -0.4150
 1066TIP3    H124689   3.475   6.461  16.496 -0.3381  0.2018  0.3901
 1066TIP3    H224690   3.571   6.508  16.389  0.2880 -1.1888  0.3099
 1067TIP3   OH224691   5.394   3.869   5.440  0.3052  0.3701  0.1507
 1067TIP3    H124692   5.470   3.811   5.435 -0.2888 -0.3488 -1.0204
 1067TIP3    H224693   5.403   3.926   5.363  0.3119  1.1349  0.7051
 1068TIP3   OH224694   1.821   5.100  16.814  0.3157 -0.4154 -0.2744
 1068TIP3    H124695   1.895   5.040  16.799  1.3173  0.8137 -0.3857
 1068TIP3    H224696   1.841   5.142  16.897 -0.3445 -0.1757 -0.2315
 1069TIP3   OH224697   5.322   0.758   2.955  0.2087  0.6376  0.5401
 1069TIP3    H124698   5.248   0.776   3.013 -0.2935  0.4608 -0.0348
 1069TIP3    H224699   5.321   0.663   2.942 -0.6375  0.8237 -0.9759
 1070TIP3   OH224700   1.495   1.002   1.712  0.1888 -0.0113 -0.0199
 1070TIP3    H124701   1.433   0.953   1.658 -1.4650  1.9276  0.0021
 1070TIP3    H224702   1.578   0.996   1.665 -0.1359 -2.0740 -0.4281
 1071TIP3   OH224703   0.032   3.041   0.232 -0.1296 -0.1854  0.2340
 1071TIP3    H124704   0.048   3.071   0.322 -2.1572  0.6630  0.3734
 1071TIP3    H224705   0.070   2.953   0.229  1.6828  0.5042  1.3081
 1072TIP3   OH224706   6.746   6.508  14.237 -0.1185  0.1306 -0.4101
 1072TIP3    H124707   6.682   6.437  14.236  0.2196 -0.4739  4.0123
 1072TIP3    H224708   6.696   6.586  14.259  0.3632 -0.0712  1.5634
 1073TIP3   OH224709   0.607   2.020   3.937  0.4635 -0.5768 -0.1338
 1073TIP3    H124710   0.671   2.058   3.997  1.0171 -0.6165 -0.6842
 1073TIP3    H224711   0.646   2.031   3.850 -0.5312 -0.1080 -0.5354
 1074TIP3   OH224712   5.118   6.771  11.156  0.4574 -0.0659 -0.3039
 1074TIP3    H124713   5.206   6.803  11.141 -0.0997  1.1908 -1.0843
 1074TIP3    H224714   5.122   6.677  11.135  1.1088  0.4273 -2.6581
 1075TIP3   OH224715   4.990   6.227  10.975  0.3466 -0.6761  0.2923
 1075TIP3    H124716   5.070   6.279  10.970 -0.3990  0.4675 -0.1145
 1075TIP3    H224717   4.965   6.227  11.067  1.0593 -1.4413  0.4946
 1076TIP3   OH224718   6.705   6.400  13.827  0.0161 -0.3626  0.0422
 1076TIP3    H124719   6.682   6.309  13.809  0.6728 -0.6671  0.6826
 1076TIP3    H224720   6.797   6.397  13.850  0.9227  0.8923 -2.9582
 1077TIP3   OH224721   5.724   0.014  14.146  0.6954 -0.6637  0.5672
 1077TIP3    H124722   5.766   0.040  14.227 -0.4615  1.2259  0.6249
 1077TIP3    H224723   5.677  -0.067  14.168  0.9367 -0.5383  1.5873
 1078TIP3   OH224724   3.176   4.251   4.013 -0.0708  0.4797  0.8494
 1078TIP3    H124725   3.247   4.191   4.035  1.4986  1.2456 -1.6280
 1078TIP3    H224726   3.100   4.195   3.999  0.9215 -0.7765  0.2811
 1079TIP3   OH224727   2.627   2.628   4.339 -0.0545  0.1766  0.1697
 1079TIP3    H124728   2.635   2.544   4.385  0.9974 -0.4617 -1.1159
 1079TIP3    H224729   2.575   2.607   4.261 -2.2453  1.3420  1.2073
 1080TIP3   OH224730   1.585   5.216  17.233 -0.2827 -0.2781  0.6057
 1080TIP3    H124731   1.524   5.218  17.307 -0.7039  0.2874  0.2494
 1080TIP3    H224732   1.546   5.155  17.171  0.4689 -1.3733  1.1692
 1081TIP3   OH224733   3.125   0.051   0.460 -0.0636  0.1967  0.3279
 1081TIP3    H124734   3.146   0.017   0.547  1.3031  0.4337  0.1112
 1081TIP3    H224735   3.082   0.135   0.477 -1.1154 -0.4086  0.7923
 1082TIP3   OH224736   0.114   1.432   3.233 -0.8744 -0.5636 -0.1306
 1082TIP3    H124737   0.191   1.418   3.176 -0.1486 -1.1601  0.9564
 1082TIP3    H224738   0.044   1.456   3.172  0.0627 -0.4164 -1.2008
 1083TIP3   OH224739   3.383   1.036  15.529 -0.0159 -0.0159  0.4343
 1083TIP3    H124740   3.391   0.977  15.454  1.5292 -0.7170  1.1136
 1083TIP3    H224741   3.323   0.991  15.589 -0.3836  0.0363  0.1118
 1084TIP3   OH224742   3.065   5.880  13.171 -0.4844 -0.1950 -0.0433
 1084TIP3    H124743   3.029   5.793  13.191  1.8511 -1.1668  0.2160
 1084TIP3    H224744   3.016   5.940  13.228 -0.0762 -1.7479  2.0500
 1085TIP3   OH224745   1.209   2.913  15.491  0.1119  0.0275 -0.1888
 1085TIP3    H124746   1.256   2.988  15.528 -0.6838  1.3238 -1.6470
 1085TIP3    H224747   1.273   2.872  15.432  0.8633 -1.0782  1.3346
 1086TIP3   OH224748   6.321   2.129  14.355  0.6475 -0.0435  0.2647
 1086TIP3    H124749   6.310   2.112  14.262 -1.8991 -0.4869  0.5691
 1086TIP3    H224750   6.293   2.219  14.367  0.7471 -0.0596  0.6435
 1087TIP3   OH224751   0.700   6.051   6.649  0.3101  0.4753  0.6651
 1087TIP3    H124752   0.685   5.963   6.617 -0.2341  0.2168  1.5775
 1087TIP3    H224753   0.792   6.052   6.677  0.6257  0.5388 -0.3569
 1088TIP3   OH224754   2.362   1.663  12.821  0.3112  0.2225 -0.0296
 1088TIP3    H124755   2.300   1.603  12.863  2.2867  0.1803  3.1565
 1088TIP3    H224756   2.354   1.745  12.871  0.9865  1.0587 -1.2458
 1089TIP3   OH224757   0.426   5.074  17.132  0.1455 -0.2457 -0.0961
 1089TIP3    H124758   0.360   5.044  17.069  0.0822 -1.2090  0.4120
 1089TIP3    H224759   0.470   5.147  17.087  0.2965 -1.0856 -1.3882
 1090TIP3   OH224760   0.446   1.023  14.894  0.1812  0.1659  0.5755
 1090TIP3    H124761   0.366   1.022  14.840  0.1420 -3.6704  0.4393
 1090TIP3    H224762   0.517   1.016  14.831  0.5112  0.9391  0.8425
 1091TIP3   OH224763   2.418   2.178  12.832  0.1946 -0.2120  0.5318
 1091TIP3    H124764   2.508   2.197  12.857  0.0885  0.6720  0.2566
 1091TIP3    H224765   2.417   2.183  12.737  0.3558 -2.5246  0.3550
 1092TIP3   OH224766   0.418   0.740  14.293  0.4023 -0.3866  0.0133
 1092TIP3    H124767   0.363   0.663  14.311 -0.2834  0.7447  3.8223
 1092TIP3    H224768   0.454   0.724  14.206 -2.4421 -3.3190 -0.8452
 1093TIP3   OH224769   1.853   2.782   4.643  0.4699 -0.6695 -0.3751
 1093TIP3    H124770   1.818   2.871   4.650  1.6974 -0.2962  1.7994
 1093TIP3    H224771   1.882   2.775   4.552 -1.0576  0.5685 -1.0129
 1094TIP3   OH224772   1.773   4.092  13.894  0.3089 -0.5069  0.0265
 1094TIP3    H124773   1.736   4.165  13.942  0.7192 -0.5512  0.4107
 1094TIP3    H224774   1.728   4.015  13.929 -1.8350 -0.2878 -1.9704
 1095TIP3   OH224775   5.959   4.510  15.403 -0.7582  0.0873 -0.1264
 1095TIP3    H124776   5.955   4.604  15.425  2.0743  1.1647 -3.2855
 1095TIP3    H224777   5.869   4.487  15.380 -1.6667  1.7636  1.4223
 1096TIP3   OH224778   5.006   0.756   1.021  0.0066 -0.3128  0.2838
 1096TIP3    H124779   5.082   0.724   1.068  0.7499  3.0340  1.6366
 1096TIP3    H224780   4.939   0.768   1.088  0.4041  2.5414  0.3088
 1097TIP3   OH224781   6.474   5.971  14.826  0.0624 -0.2399  0.2131
 1097TIP3    H124782   6.505   5.924  14.903  1.0552 -1.6680 -1.0110
 1097TIP3    H224783   6.545   6.032  14.805  0.0318 -0.2413  0.1053
 1098TIP3   OH224784   3.019   2.894  11.886  0.7223  0.3928  0.0683
 1098TIP3    H124785   2.986   2.877  11.798 -0.6980 -0.1970  0.6895
 1098TIP3    H224786   2.965   2.840  11.943  0.6412  1.8606  1.4513
 1099TIP3   OH224787   4.327   4.179   1.486  0.1649 -0.2446  0.4819
 1099TIP3    H124788   4.236   4.201   1.466  0.4713  0.4400 -0.2175
 1099TIP3    H224789   4.354   4.246   1.549  0.7674  0.7657 -0.8115
 1100TIP3   OH224790   4.206   3.116  11.294  0.3094 -0.2759  0.1995
 1100TIP3    H124791   4.255   3.198  11.286  0.5042 -0.3741  0.3910
 1100TIP3    H224792   4.159   3.109  11.211 -1.3007  1.0571  0.9511
 1101TIP3   OH224793   1.746   6.655  16.123  0.4568  0.2525 -0.3131
 1101TIP3    H124794   1.696   6.712  16.182 -0.6995 -0.2211 -0.8191
 1101TIP3    H224795   1.791   6.595  16.182  1.9979  1.8660  0.2586
 1102TIP3   OH224796   1.231   1.094   5.733 -0.0437 -0.2903  0.4916
 1102TIP3    H124797   1.265   1.048   5.810  1.0607  0.4676  0.4746
 1102TIP3    H224798   1.172   1.161   5.769  1.3246  0.7989  0.7774
 1103TIP3   OH224799   1.841   4.376   3.672 -0.1790 -0.1540 -0.1604
 1103TIP3    H124800   1.790   4.397   3.750  0.0474  2.7347 -0.6648
 1103TIP3    H224801   1.903   4.309   3.701 -1.0904 -0.2478  1.7122
 1104TIP3   OH224802   5.115   3.133  12.615  0.0013  0.0378 -0.3945
 1104TIP3    H124803   5.159   3.106  12.534  0.9183  0.7926 -0.1675
 1104TIP3    H224804   5.064   3.210  12.590  2.2949  1.8689  0.2203
 1105TIP3   OH224805   3.865   5.219   3.321 -0.0932 -0.5696 -0.7870
 1105TIP3    H124806   3.887   5.180   3.406  0.7422 -0.3746 -0.9073
 1105TIP3    H224807   3.800   5.286   3.342  0.8325  0.1520 -0.1619
 1106TIP3   OH224808   4.081   0.209   5.042 -0.0391 -0.5102 -0.2307
 1106TIP3    H124809   4.090   0.211   4.947 -1.7322 -1.3389 -0.4241
 1106TIP3    H224810   4.117   0.124   5.068 -0.7814 -0.8426 -0.2766
 1107TIP3   OH224811   1.176   5.280  12.296  0.2957  0.5352 -0.3673
 1107TIP3    H124812   1.152   5.296  12.388  0.9703 -3.1049  0.5707
 1107TIP3    H224813   1.271   5.290  12.295  0.1562  2.0166 -1.0710
 1108TIP3   OH224814   5.192   1.531   6.687 -1.0982  0.4463  0.0175
 1108TIP3    H124815   5.128   1.494   6.747 -1.5031  0.2949 -0.4993
 1108TIP3    H224816   5.159   1.509   6.600  0.0927 -0.3959 -0.2504
 1109TIP3   OH224817   3.327   4.800   2.830 -0.2563  0.3329 -0.0092
 1109TIP3    H124818   3.400   4.790   2.891  0.3507  0.3813 -0.7123
 1109TIP3    H224819   3.264   4.732   2.856  0.3582 -0.1763  0.1567
 1110TIP3   OH224820   4.359   0.530   4.979  0.2732  0.1925 -0.5776
 1110TIP3    H124821   4.382   0.597   4.915  1.4884 -2.1018 -2.6854
 1110TIP3    H224822   4.420   0.459   4.963 -0.5757 -1.2382  1.9625
 1111TIP3   OH224823   1.284   3.668  16.623 -0.5092 -0.1247  0.0005
 1111TIP3    H124824   1.220   3.738  16.610  1.5749  1.7708 -0.9904
 1111TIP3    H224825   1.284   3.652  16.717 -0.8563  1.4586  0.2971
 1112TIP3   OH224826   0.164   5.396   3.289  0.1451  0.4289 -0.2643
 1112TIP3    H124827   0.199   5.435   3.209 -0.0975  0.0813 -0.5435
 1112TIP3    H224828   0.241   5.366   3.336  0.3102  0.9248 -0.2125
 1113TIP3   OH224829   2.589   3.715  16.813  0.4223  0.1297 -0.6788
 1113TIP3    H124830   2.621   3.712  16.723 -0.2982 -2.5722 -0.9420
 1113TIP3    H224831   2.498   3.742  16.805  0.0277 -1.2161 -0.9147
 1114TIP3   OH224832   5.481   2.261   2.629  0.8119  0.6052 -0.6647
 1114TIP3    H124833   5.473   2.271   2.724  2.9492  2.3940 -0.5994
 1114TIP3    H224834   5.399   2.219   2.603 -1.1656  2.7279  1.6204
 1115TIP3   OH224835   0.512   1.447   5.923 -0.9537  0.5612 -0.3475
 1115TIP3    H124836   0.543   1.444   6.014  2.6671 -0.1183 -1.4101
 1115TIP3    H224837   0.501   1.355   5.899 -0.3646  0.6616 -1.0215
 1116TIP3   OH224838   3.131   0.967   1.548  0.3540 -0.1829 -0.1180
 1116TIP3    H124839   3.143   0.943   1.640 -0.7792  0.1172  0.1291
 1116TIP3    H224840   3.086   0.891   1.510  2.8850 -1.3442 -1.0430
 1117TIP3   OH224841   2.363   6.133  13.798 -0.2589  0.1052 -0.4906
 1117TIP3    H124842   2.424   6.059  13.798  0.0623  0.3659 -0.9794
 1117TIP3    H224843   2.388   6.184  13.721 -1.4315 -0.0590 -0.9981
 1118TIP3   OH224844   3.431   2.687   4.098 -0.1163 -0.6794 -0.7277
 1118TIP3    H124845   3.371   2.738   4.152 -0.4669  1.0654 -2.6401
 1118TIP3    H224846   3.395   2.598   4.101 -1.4369 -0.1616  0.0359
 1119TIP3   OH224847   5.776   2.028   1.381  0.0677  0.0681  0.5237
 1119TIP3    H124848   5.719   1.962   1.342  0.1581  0.8276 -0.9892
 1119TIP3    H224849   5.859   2.019   1.334  0.5506  0.2809  1.3239
 1120TIP3   OH224850   3.513   1.421   6.490  0.5365 -0.4569  0.3669
 1120TIP3    H124851   3.603   1.418   6.524  0.7984  0.0039 -0.2563
 1120TIP3    H224852   3.458   1.413   6.567  1.1047 -1.7308  0.6789
 1121TIP3   OH224853   0.861   2.122   3.806  0.0486  0.2480  0.2851
 1121TIP3    H124854   0.894   2.060   3.871 -1.6508 -0.4909  0.5131
 1121TIP3    H224855   0.838   2.200   3.857  1.2768  0.7222  0.1411
 1122TIP3   OH224856   1.110   2.002   2.375 -0.3947  0.1823 -0.3574
 1122TIP3    H124857   1.158   1.985   2.294  0.0290 -2.1548  0.2948
 1122TIP3    H224858   1.058   2.080   2.357  0.5006  0.3500 -2.4920
 1123TIP3   OH224859   1.438   0.013   2.065 -0.3249  0.1622 -0.0056
 1123TIP3    H124860   1.420   0.107   2.062 -1.1018  0.0662  1.2350
 1123TIP3    H224861   1.359  -0.028   2.031  0.2957 -0.0496 -1.2741
 1124TIP3   OH224862   2.432   2.069   3.317  0.4432  0.6259 -0.0145
 1124TIP3    H124863   2.447   1.975   3.320  0.0436  0.5266 -0.8454
 1124TIP3    H224864   2.411   2.093   3.407 -2.0442 -0.5398 -0.1867
 1125TIP3   OH224865   6.266   6.304   3.350 -0.4913  0.2951 -0.4318
 1125TIP3    H124866   6.282   6.221   3.395 -1.6809 -0.6200 -1.6359
 1125TIP3    H224867   6.352   6.345   3.345 -0.1308 -0.0606  1.6649
 1126TIP3   OH224868   1.252   1.280   6.298 -0.2464 -0.9004  0.2586
 1126TIP3    H124869   1.309   1.356   6.314  0.1527 -0.6616 -1.9725
 1126TIP3    H224870   1.244   1.276   6.203 -3.9828 -0.9587  0.4326
 1127TIP3   OH224871   4.215   5.565  15.116  0.2925 -0.2726 -0.5846
 1127TIP3    H124872   4.127   5.577  15.150  0.6216  2.5091 -0.5283
 1127TIP3    H224873   4.273   5.580  15.190  0.8588 -0.1499 -1.0375
 1128TIP3   OH224874   5.679   5.684  11.467  0.3553 -0.0040 -0.1038
 1128TIP3    H124875   5.746   5.673  11.399 -1.2753 -1.5914 -1.5699
 1128TIP3    H224876   5.596   5.674  11.421 -0.9042  1.0217  1.8015
 1129TIP3   OH224877   2.558   5.959   3.614 -0.2985 -0.1824  0.0162
 1129TIP3    H124878   2.635   5.945   3.670 -0.9510 -1.2812  0.6760
 1129TIP3    H224879   2.593   5.957   3.525  0.4897 -0.2778  0.3164
 1130TIP3   OH224880   1.056   6.583   4.793  0.1016 -0.2717 -0.0056
 1130TIP3    H124881   1.085   6.519   4.857  0.0623  0.2642  0.5586
 1130TIP3    H224882   1.017   6.653   4.845 -1.7425 -0.7139 -0.7042
 1131TIP3   OH224883   3.286   0.422  16.951  0.5124  0.5629 -0.3816
 1131TIP3    H124884   3.198   0.460  16.956 -0.1524 -1.0010  0.9020
 1131TIP3    H224885   3.295   0.394  16.860 -1.1378 -0.9692 -0.1392
 1132TIP3   OH224886   1.419   6.521  15.243 -0.1984  0.0718 -0.6028
 1132TIP3    H124887   1.419   6.568  15.160  1.2637  0.2356 -0.5375
 1132TIP3    H224888   1.330   6.530  15.276 -0.3972  1.3075 -1.4191
 1133TIP3   OH224889   3.276   0.397   2.741  0.3212  0.1751  0.3083
 1133TIP3    H124890   3.214   0.470   2.743  0.9765  0.7550  0.1806
 1133TIP3    H224891   3.343   0.421   2.805  0.9277  0.0474 -0.2589
 1134TIP3   OH224892   1.573   2.145   3.160  0.0000 -0.0225 -0.2751
 1134TIP3    H124893   1.583   2.196   3.081 -0.4026 -0.4828 -0.6307
 1134TIP3    H224894   1.575   2.054   3.130 -3.3280 -0.2305 -0.2060
 1135TIP3   OH224895   5.576   3.806  12.481 -0.2191 -0.4275 -0.1166
 1135TIP3    H124896   5.535   3.802  12.568  0.5299  0.0733  0.2801
 1135TIP3    H224897   5.630   3.727  12.476  0.1000 -0.2264  0.0749
 1136TIP3   OH224898   0.918   1.404   1.910 -0.3730 -0.4770  0.4078
 1136TIP3    H124899   1.006   1.425   1.939 -0.1457 -0.8205 -0.0169
 1136TIP3    H224900   0.930   1.338   1.841 -1.0075 -1.2435  1.0106
 1137TIP3   OH224901   0.936   5.480   0.605  0.9413 -0.5461  0.1159
 1137TIP3    H124902   0.917   5.481   0.511  1.7846 -2.9016 -0.1522
 1137TIP3    H224903   0.954   5.571   0.627 -1.4766  0.4329 -1.4956
 1138TIP3   OH224904   1.073   4.922  17.326  0.0618  0.0386  0.2677
 1138TIP3    H124905   1.130   4.930  17.251  0.3598 -0.0071  0.4874
 1138TIP3    H224906   1.102   4.842  17.370  1.6058  1.3756  1.8582
 1139TIP3   OH224907   3.479   6.391  15.403 -0.2002  0.7901 -0.1042
 1139TIP3    H124908   3.385   6.397  15.421 -0.9997 -1.4470 -2.8245
 1139TIP3    H224909   3.499   6.298  15.414  2.2855  1.5124  2.5370
 1140TIP3   OH224910   0.433   2.359  11.569 -0.6094 -0.3827  0.1604
 1140TIP3    H124911   0.497   2.409  11.620  0.9774 -1.1671 -0.9327
 1140TIP3    H224912   0.463   2.369  11.478 -2.1129 -0.7219 -0.3961
 1141TIP3   OH224913   0.077   4.900   5.034  0.2460 -0.3201  0.0607
 1141TIP3    H124914   0.161   4.939   5.055  1.6462 -3.2197  0.3236
 1141TIP3    H224915   0.033   4.965   4.979  3.1670  0.7769 -1.1402
 1142TIP3   OH224916   4.499   4.734   2.579 -0.4766 -0.2911  0.1186
 1142TIP3    H124917   4.419   4.744   2.528 -0.3615 -0.7432 -0.1512
 1142TIP3    H224918   4.501   4.642   2.605  0.5652 -0.5833 -0.9010
 1143TIP3   OH224919   3.410   2.914   3.079 -0.7187 -0.4786  0.1985
 1143TIP3    H124920   3.359   2.904   2.999  0.4096 -3.7224 -0.2606
 1143TIP3    H224921   3.501   2.909   3.049 -0.1418  1.7540  1.3679
 1144TIP3   OH224922   2.956   1.318  13.501  0.1732  0.3639 -0.3486
 1144TIP3    H124923   2.889   1.312  13.569  0.5691  0.5250  0.0547
 1144TIP3    H224924   2.975   1.411  13.494 -1.5808  0.6428 -2.3589
 1145TIP3   OH224925   0.886   4.405  10.847  0.0547 -0.2642  0.3927
 1145TIP3    H124926   0.825   4.458  10.898  0.0245 -0.1850  0.2749
 1145TIP3    H224927   0.894   4.323  10.896  0.1037 -0.1494  0.5783
 1146TIP3   OH224928   6.088   1.450   3.962  0.1283  0.5373  0.0416
 1146TIP3    H124929   6.053   1.414   3.880  0.9652 -0.9733  0.3059
 1146TIP3    H224930   6.067   1.384   4.028  1.0350  0.8900  0.7069
 1147TIP3   OH224931   5.758   4.239  16.326  0.2759 -0.2062 -0.5461
 1147TIP3    H124932   5.672   4.242  16.284 -0.2077 -1.9018  0.2572
 1147TIP3    H224933   5.754   4.308  16.393 -0.4146 -0.2041 -0.5809
 1148TIP3   OH224934   1.768   0.758   6.184  0.0296 -0.4124 -0.2964
 1148TIP3    H124935   1.849   0.769   6.233 -0.0004  0.0915 -0.3550
 1148TIP3    H224936   1.700   0.798   6.239  0.0934  0.7632 -1.0192
 1149TIP3   OH224937   1.556   2.864  12.267  0.0516  0.1792 -0.2109
 1149TIP3    H124938   1.487   2.868  12.201 -0.9063 -0.3620  0.7289
 1149TIP3    H224939   1.513   2.890  12.349  0.4664 -2.0203  0.7607
 1150TIP3   OH224940   4.033   0.993  16.965 -0.0877  1.3030 -0.4990
 1150TIP3    H124941   4.124   0.976  16.989 -0.4582  0.9447  0.6917
 1150TIP3    H224942   3.983   0.975  17.044 -1.3984 -0.3696 -1.6375
 1151TIP3   OH224943   1.783   0.390  14.074 -0.5063 -0.4203 -0.7212
 1151TIP3    H124944   1.823   0.311  14.111  2.0141  1.1873  0.2392
 1151TIP3    H224945   1.826   0.462  14.120 -2.2549  1.5580 -2.0212
 1152TIP3   OH224946   2.384   2.241  14.586  0.1185  0.3001  0.1910
 1152TIP3    H124947   2.466   2.263  14.541 -0.9049 -0.0075 -1.9494
 1152TIP3    H224948   2.319   2.237  14.517 -1.5665 -0.3035  1.7290
 1153TIP3   OH224949   5.699   2.117   3.076 -0.4233  0.9825  0.7248
 1153TIP3    H124950   5.608   2.094   3.090 -0.8600  1.2065 -1.4919
 1153TIP3    H224951   5.744   2.033   3.066 -0.8709  0.9035 -0.8035
 1154TIP3   OH224952   0.570   5.424  12.597 -0.0174 -0.6713  0.1705
 1154TIP3    H124953   0.496   5.484  12.584 -2.2463 -3.1178  0.7314
 1154TIP3    H224954   0.647   5.481  12.598 -2.0804  2.3852  2.3420
 1155TIP3   OH224955   6.669   5.853   1.508 -0.1303  0.1881  0.3143
 1155TIP3    H124956   6.701   5.943   1.515  0.0423  0.2858 -1.3090
 1155TIP3    H224957   6.686   5.829   1.417 -1.1317 -1.1251  0.4484
 1156TIP3   OH224958   1.335   1.463  15.964 -0.5798  0.2930 -0.1358
 1156TIP3    H124959   1.286   1.524  16.020 -0.4644 -0.4378  0.7858
 1156TIP3    H224960   1.269   1.399  15.937 -0.5258  0.3598 -0.4213
 1157TIP3   OH224961   0.294   6.712  11.924  0.2406 -0.2311 -0.3108
 1157TIP3    H124962   0.302   6.726  11.830  1.3690 -0.3691 -0.2549
 1157TIP3    H224963   0.231   6.777  11.954  0.7249  0.5645 -0.9950
 1158TIP3   OH224964   5.977   5.289   2.656 -0.0595  0.5409  0.5494
 1158TIP3    H124965   6.012   5.377   2.645  0.4270  0.1707 -1.2006
 1158TIP3    H224966   5.934   5.270   2.573  0.4708 -1.1350  0.6193
 1159TIP3   OH224967   0.159   2.958   5.134  0.1213 -0.2220 -0.2178
 1159TIP3    H124968   0.191   2.944   5.045  0.4274  0.6558 -0.2613
 1159TIP3    H224969   0.167   2.873   5.177 -1.1002 -0.9308 -1.3535
 1160TIP3   OH224970   0.670   1.429   2.234 -1.1614  0.2094  0.6083
 1160TIP3    H124971   0.662   1.496   2.167  0.9650  1.5201  1.5339
 1160TIP3    H224972   0.613   1.358   2.205  0.5633  0.1526 -3.2405
 1161TIP3   OH224973   5.104   4.532  15.059  0.7605 -0.5593  0.1011
 1161TIP3    H124974   5.048   4.503  14.987 -1.6103  1.5098  0.9833
 1161TIP3    H224975   5.053   4.515  15.138  2.0724 -0.0778  1.0807
 1162TIP3   OH224976   0.247   1.313  15.241 -0.4504  0.1063 -0.7728
 1162TIP3    H124977   0.325   1.269  15.207 -1.1279 -0.3951 -1.7091
 1162TIP3    H224978   0.248   1.399  15.199 -0.9784 -0.3022 -1.6361
 1163TIP3   OH224979   5.533   4.008   3.618  0.3770  0.6701  1.1004
 1163TIP3    H124980   5.449   4.040   3.653  0.9185  2.5274  0.7606
 1163TIP3    H224981   5.560   4.074   3.555  0.5876 -1.4636 -1.1827
 1164TIP3   OH224982   4.360   5.426   2.040 -0.0772  0.2891 -0.2112
 1164TIP3    H124983   4.269   5.415   2.011 -0.6693  0.2970  1.4822
 1164TIP3    H224984   4.355   5.493   2.108  0.7075 -1.5902  1.8433
 1165TIP3   OH224985   3.611   2.757  13.650  0.1506 -0.1305  0.3134
 1165TIP3    H124986   3.696   2.713  13.647  0.4780  0.4585  0.7549
 1165TIP3    H224987   3.553   2.699  13.602  0.5728 -1.0570  0.8846
 1166TIP3   OH224988   2.943   5.695   6.419 -0.0058  0.1392  0.7024
 1166TIP3    H124989   2.945   5.683   6.324 -0.1914 -0.5329  0.7781
 1166TIP3    H224990   2.920   5.787   6.430 -1.2403 -0.0688  0.0882
 1167TIP3   OH224991   0.598   1.079  14.040  0.5690  0.1095 -0.3713
 1167TIP3    H124992   0.533   1.099  14.107 -1.9936  0.2187 -2.7440
 1167TIP3    H224993   0.643   1.001  14.073  0.7898  1.2459  2.3015
 1168TIP3   OH224994   3.888   1.481   4.775 -0.1996 -0.1409  0.1944
 1168TIP3    H124995   3.889   1.386   4.792  0.2586  0.0383  1.2533
 1168TIP3    H224996   3.890   1.521   4.862 -0.3030  0.8453 -0.2466
 1169TIP3   OH224997   0.635   2.162   2.784 -0.3378  1.0151 -0.0031
 1169TIP3    H124998   0.694   2.218   2.733 -0.4617 -0.5701 -2.0063
 1169TIP3    H224999   0.683   2.145   2.865  1.3606  0.9698 -0.9663
 1170TIP3   OH225000   4.352   2.527  14.623  0.6880  0.4987 -0.0737
 1170TIP3    H125001   4.408   2.548  14.698  1.3472 -3.1525  0.6473
 1170TIP3    H225002   4.412   2.488  14.559 -0.3243  1.0219 -1.3965
 1171TIP3   OH225003   3.516   5.322  15.547 -0.2182  0.4457 -0.5705
 1171TIP3    H125004   3.504   5.301  15.639 -2.1873  1.1706 -0.6001
 1171TIP3    H225005   3.452   5.267  15.501  1.0485 -0.2466 -1.5723
 1172TIP3   OH225006   3.304   2.296  16.634 -0.0811 -0.8159  0.5335
 1172TIP3    H125007   3.258   2.365  16.587 -0.2521 -2.8481 -2.5862
 1172TIP3    H225008   3.394   2.326  16.639 -0.6296  0.7845  1.7770
 1173TIP3   OH225009   6.371   5.828  15.984  0.7274  0.7520  0.1574
 1173TIP3    H125010   6.304   5.846  15.918 -0.4970 -1.3537  0.7426
 1173TIP3    H225011   6.337   5.867  16.064 -0.1757 -0.8786  0.6049
 1174TIP3   OH225012   6.478   4.783   4.639 -0.1639 -0.2934 -0.3728
 1174TIP3    H125013   6.489   4.735   4.721  1.1293 -1.6470 -1.3060
 1174TIP3    H225014   6.401   4.743   4.598 -1.2848  0.8968  0.4846
 1175TIP3   OH225015   6.114   6.162   3.974  0.0522  0.0642  0.6045
 1175TIP3    H125016   6.080   6.215   4.046  0.3557  0.7019  0.2890
 1175TIP3    H225017   6.039   6.111   3.944 -0.6699  1.5009 -0.1325
 1176TIP3   OH225018   0.368   5.283  14.499 -0.3425  0.4784 -0.2786
 1176TIP3    H125019   0.379   5.279  14.404  1.6685 -0.6308 -0.0481
 1176TIP3    H225020   0.291   5.338  14.511  0.3961  2.1772 -2.4918
 1177TIP3   OH225021   6.689   1.530  12.945 -0.2580 -0.1683 -0.2054
 1177TIP3    H125022   6.732   1.519  13.030 -1.3147 -2.2793  0.1375
 1177TIP3    H225023   6.602   1.491  12.957 -1.0109  0.8783 -1.8335
 1178TIP3   OH225024   1.097   4.476   3.251  1.0884 -0.0534 -0.3067
 1178TIP3    H125025   1.051   4.397   3.222  0.9843  0.1920 -0.8299
 1178TIP3    H225026   1.189   4.448   3.259  0.9653 -0.3617  0.0322
 1179TIP3   OH225027   3.662   2.734   1.107 -0.6047  0.3099  0.6134
 1179TIP3    H125028   3.623   2.665   1.053 -1.1951  0.3170  1.0186
 1179TIP3    H225029   3.618   2.725   1.192  0.0091  0.5681  0.9634
 1180TIP3   OH225030   2.195   3.944  13.366 -0.2563  0.5568  0.4639
 1180TIP3    H125031   2.259   3.898  13.312 -1.0141 -0.7713  0.6638
 1180TIP3    H225032   2.131   3.979  13.304 -1.2317 -1.1326  0.4618
 1181TIP3   OH225033   0.904   1.945  12.467 -0.1444 -0.0732 -0.0562
 1181TIP3    H125034   0.977   1.980  12.518  1.7424 -1.8899 -1.3530
 1181TIP3    H225035   0.874   1.869  12.517 -0.8261  0.3351  0.1809
 1182TIP3   OH225036   1.880   1.500   2.786  0.1220  0.2838 -0.6439
 1182TIP3    H125037   1.931   1.450   2.850  0.6834 -0.3114 -1.5378
 1182TIP3    H225038   1.930   1.581   2.775  0.0300  0.3831 -0.3354
 1183TIP3   OH225039   3.623   5.644   6.247 -0.7046 -0.0765 -0.2367
 1183TIP3    H125040   3.605   5.738   6.237  0.8150  0.4156  1.1953
 1183TIP3    H225041   3.611   5.628   6.340  1.5687 -0.7047 -0.0015
 1184TIP3   OH225042   6.202   4.380   4.446  0.2867 -0.1955  0.4293
 1184TIP3    H125043   6.163   4.392   4.533 -0.7894  0.7488 -0.1650
 1184TIP3    H225044   6.183   4.462   4.400  2.9332  0.3132  0.0734
 1185TIP3   OH225045   3.997   5.071   3.521 -0.3361  0.1367 -0.0095
 1185TIP3    H125046   4.080   5.110   3.550 -0.1097 -0.5780  0.3463
 1185TIP3    H225047   4.023   4.990   3.477 -0.8531 -0.1753  0.2443
 1186TIP3   OH225048   5.683   5.962  11.530 -0.6505  0.3670 -0.2063
 1186TIP3    H125049   5.608   6.011  11.497  0.5018  1.7348 -0.8936
 1186TIP3    H225050   5.667   5.872  11.502 -1.8774  0.6740 -0.5775
 1187TIP3   OH225051   2.143   0.629  16.994  0.4652  0.5918 -0.5286
 1187TIP3    H125052   2.174   0.539  16.995 -0.8632 -0.0235  3.3865
 1187TIP3    H225053   2.067   0.628  16.937  0.6171 -0.6875 -0.7393
 1188TIP3   OH225054   4.721   0.097  11.085  0.1182  0.6394  0.1843
 1188TIP3    H125055   4.796   0.147  11.117  0.7961 -0.2379  0.0190
 1188TIP3    H225056   4.700   0.137  11.000 -0.0888  1.3663  0.5696
 1189TIP3   OH225057   2.387   4.536   4.970 -0.0644 -0.4008  0.3510
 1189TIP3    H125058   2.401   4.473   4.899 -1.0350 -0.6203  0.3449
 1189TIP3    H225059   2.464   4.592   4.967 -1.1143  1.1141 -2.4462
 1190TIP3   OH225060   5.532   0.187  12.223  0.0208 -0.1144 -0.3926
 1190TIP3    H125061   5.443   0.159  12.246  0.6451 -2.5414 -0.6856
 1190TIP3    H225062   5.528   0.283  12.225 -1.9028 -0.1239  2.2228
 1191TIP3   OH225063   1.583   3.126  15.892  0.4109 -0.0046  0.6891
 1191TIP3    H125064   1.545   3.176  15.964 -0.8918  0.0852 -0.0291
 1191TIP3    H225065   1.662   3.174  15.868  0.2473  0.5805  1.3104
 1192TIP3   OH225066   2.587   4.879  13.135 -0.0846  0.2570 -0.3927
 1192TIP3    H125067   2.635   4.942  13.190  1.3956  0.5052 -1.8676
 1192TIP3    H225068   2.650   4.809  13.120 -0.8403 -0.3239 -0.8854
 1193TIP3   OH225069   2.943   4.838   5.205 -0.1846  0.3012  0.1870
 1193TIP3    H125070   2.952   4.749   5.170  0.7892  0.8149 -0.9081
 1193TIP3    H225071   3.029   4.860   5.240  0.5720  1.9580 -2.4190
 1194TIP3   OH225072   6.296   1.009  16.739 -0.0627  0.3744  0.7280
 1194TIP3    H125073   6.358   1.034  16.807  0.2135  1.1444  0.2049
 1194TIP3    H225074   6.298   1.082  16.677 -1.0312  0.1267  0.3893
 1195TIP3   OH225075   0.437   1.752  14.272  0.1508 -0.0659 -0.4334
 1195TIP3    H125076   0.421   1.661  14.296 -2.0980  0.4294  0.1627
 1195TIP3    H225077   0.350   1.790  14.261  0.9765  2.3729  0.7334
 1196TIP3   OH225078   3.948   5.328  11.038  0.0159  0.1655 -0.0188
 1196TIP3    H125079   4.019   5.385  11.066 -0.0173  0.6772 -0.9431
 1196TIP3    H225080   3.868   5.374  11.063 -0.0138  0.6232 -0.9088
 1197TIP3   OH225081   0.847   6.141   3.803 -0.8446  0.1931 -0.0042
 1197TIP3    H125082   0.912   6.200   3.841  0.8545 -1.4421 -0.1785
 1197TIP3    H225083   0.857   6.152   3.708 -0.1483 -0.6753 -0.0521
 1198TIP3   OH225084   3.370   4.412   0.062 -0.1098 -0.3274  0.1234
 1198TIP3    H125085   3.405   4.334   0.105 -1.4008 -1.3610 -0.6315
 1198TIP3    H225086   3.287   4.383   0.024 -0.1180  1.1590 -1.0535
 1199TIP3   OH225087   3.147   0.087   4.117 -0.9227 -0.5057  0.3528
 1199TIP3    H125088   3.114   0.114   4.203 -1.5731 -0.8867  0.2244
 1199TIP3    H225089   3.157  -0.008   4.124 -1.8799 -0.6557 -0.2994
 1200TIP3   OH225090   0.748   0.638   1.607 -0.2667 -0.2377  0.1851
 1200TIP3    H125091   0.713   0.607   1.690 -0.0714 -0.8631  0.0417
 1200TIP3    H225092   0.680   0.617   1.543 -0.6224  0.6779  0.2516
 1201TIP3   OH225093   4.154   3.767  12.170 -0.2868 -0.0805  0.8394
 1201TIP3    H125094   4.164   3.850  12.216 -0.5432  0.5300 -0.1870
 1201TIP3    H225095   4.060   3.761  12.150 -0.0689  0.0151 -0.2431
 1202TIP3   OH225096   0.216   2.078   3.183  0.1984 -0.0358  0.0090
 1202TIP3    H125097   0.306   2.048   3.169  0.8536  0.7540  2.1337
 1202TIP3    H225098   0.175   2.069   3.098  1.8806 -1.7670 -0.7040
 1203TIP3   OH225099   0.686   2.295  14.785 -0.0029  0.0057  0.1683
 1203TIP3    H125100   0.639   2.273  14.705  1.7334  0.5044 -1.0596
 1203TIP3    H225101   0.655   2.232  14.850 -0.8002 -0.9829 -1.1267
 1204TIP3   OH225102   6.245   6.094  11.392 -0.1368 -0.3153 -0.0646
 1204TIP3    H125103   6.187   6.163  11.422 -1.0834 -1.8292  1.7494
 1204TIP3    H225104   6.210   6.067  11.307 -0.8871  0.1494  0.0989
 1205TIP3   OH225105   5.497   1.601   0.398  0.1687 -0.2028 -0.4797
 1205TIP3    H125106   5.559   1.576   0.329  0.8278  0.3181 -0.0874
 1205TIP3    H225107   5.413   1.607   0.353  0.6391  0.4097 -1.3113
 1206TIP3   OH225108   0.193   6.121   0.930  0.4314 -0.0566  0.0307
 1206TIP3    H125109   0.174   6.133   1.023 -0.6458 -1.4947  0.0280
 1206TIP3    H225110   0.234   6.203   0.903 -1.7145  1.4871  1.1454
 1207TIP3   OH225111   5.892   6.516  13.200  0.5088 -0.0571 -0.1195
 1207TIP3    H125112   5.849   6.458  13.137 -0.0189 -0.2372  0.3906
 1207TIP3    H225113   5.984   6.492  13.195  0.2549 -1.2275  0.3483
 1208TIP3   OH225114   3.146   5.037  12.705 -0.8482  0.0656 -0.0657
 1208TIP3    H125115   3.140   5.125  12.742  0.7585 -0.1748  0.8913
 1208TIP3    H225116   3.056   5.004  12.705 -1.1987  0.9045  1.6028
 1209TIP3   OH225117   5.362   5.147  11.059 -0.1023 -0.7111 -0.3502
 1209TIP3    H125118   5.392   5.180  10.975 -3.4534  3.7260 -0.1637
 1209TIP3    H225119   5.283   5.098  11.038 -1.1164  0.6610  0.1280
 1210TIP3   OH225120   3.011   2.612  11.992 -0.0195 -0.3961 -0.3542
 1210TIP3    H125121   3.090   2.563  11.969  0.6583  0.6361 -0.3105
 1210TIP3    H225122   3.003   2.602  12.087 -1.3214 -2.4688 -0.6208
 1211TIP3   OH225123   0.335   3.457   4.297  0.2168  0.0777 -0.2226
 1211TIP3    H125124   0.375   3.429   4.215  0.3915 -1.5942  0.4001
 1211TIP3    H225125   0.246   3.422   4.294  0.5127 -0.8048  0.6710
 1212TIP3   OH225126   5.712   3.771   4.707  0.1539 -0.1477 -0.4431
 1212TIP3    H125127   5.770   3.702   4.675 -1.7803 -2.1716  0.1782
 1212TIP3    H225128   5.630   3.758   4.659 -0.0804  2.2109 -0.8212
 1213TIP3   OH225129   5.255   4.739  10.856  0.5906 -0.4294  0.0527
 1213TIP3    H125130   5.209   4.750  10.773  0.5881  0.8424  0.2144
 1213TIP3    H225131   5.234   4.817  10.907  3.3812  0.5417 -0.0983
 1214TIP3   OH225132   0.709   3.868   2.229 -0.7768  0.3402  0.0455
 1214TIP3    H125133   0.765   3.851   2.305 -0.4649  0.8090 -0.0769
 1214TIP3    H225134   0.646   3.796   2.230  0.1103 -0.4667 -0.0931
 1215TIP3   OH225135   1.189   5.381  15.395 -0.0862 -0.6362  0.6074
 1215TIP3    H125136   1.097   5.359  15.410 -0.9475 -0.8508 -3.7073
 1215TIP3    H225137   1.234   5.355  15.476 -3.5980 -1.6052  2.4386
 1216TIP3   OH225138   1.490   2.564  16.356 -0.5523  0.4854  0.0543
 1216TIP3    H125139   1.538   2.637  16.395  1.5637 -0.8499  0.0531
 1216TIP3    H225140   1.402   2.570  16.395 -0.1760  2.4948  0.6941
 1217TIP3   OH225141   6.765   3.840   2.994  0.4319 -0.4691 -0.1627
 1217TIP3    H125142   6.837   3.886   3.037  0.0393  0.5497 -0.5851
 1217TIP3    H225143   6.686   3.875   3.034  0.0713  0.3230 -1.5069
 1218TIP3   OH225144   3.032   0.418  13.251  0.3766 -0.3420 -0.4587
 1218TIP3    H125145   2.976   0.385  13.180  0.8398  0.0670 -1.0261
 1218TIP3    H225146   3.111   0.449  13.206 -0.1190  1.7258  0.0340
 1219TIP3   OH225147   6.093   6.419   2.817  0.1376  0.4189  0.4087
 1219TIP3    H125148   6.116   6.331   2.847  1.9819  0.8342  0.3020
 1219TIP3    H225149   6.011   6.408   2.769  0.5905 -1.3187 -0.0079
 1220TIP3   OH225150   6.392   4.132   3.497  0.2848 -0.4097 -0.2422
 1220TIP3    H125151   6.322   4.176   3.545 -2.2891 -2.3495 -1.9000
 1220TIP3    H225152   6.430   4.071   3.560 -1.2296 -1.0704  0.0640
 1221TIP3   OH225153   5.610   2.915   5.631 -0.2767 -0.2268  0.4110
 1221TIP3    H125154   5.530   2.956   5.663 -0.9726 -0.3616 -1.0691
 1221TIP3    H225155   5.582   2.829   5.599  0.4259 -0.2216 -0.2484
 1222TIP3   OH225156   2.501   4.311   0.421  0.0682 -0.0943  0.5639
 1222TIP3    H125157   2.500   4.316   0.326 -2.0834 -1.2061  0.4691
 1222TIP3    H225158   2.592   4.291   0.443  0.7510  0.8843 -1.1793
 1223TIP3   OH225159   5.316   0.592   5.099  0.4528  0.4569 -0.0151
 1223TIP3    H125160   5.411   0.582   5.095  0.4132 -1.4403  1.8499
 1223TIP3    H225161   5.283   0.502   5.099 -1.3166  1.0726 -0.1753
 1224TIP3   OH225162   0.582   1.661   3.293 -0.0836  0.3221  0.7699
 1224TIP3    H125163   0.533   1.738   3.321  1.3703  0.7775  2.2007
 1224TIP3    H225164   0.610   1.619   3.374  1.0810 -0.4365  0.0053
 1225TIP3   OH225165   6.279   1.592   5.417  0.1956  0.2661  0.1392
 1225TIP3    H125166   6.289   1.555   5.505  0.1567  0.6137  0.2925
 1225TIP3    H225167   6.197   1.641   5.421  0.6406  1.0203  0.1804
 1226TIP3   OH225168   5.849   3.544   4.659 -0.2910 -1.0109  0.5288
 1226TIP3    H125169   5.886   3.554   4.747 -0.0441  1.0913  0.2506
 1226TIP3    H225170   5.874   3.456   4.632  1.4340 -0.9662  1.7821
 1227TIP3   OH225171   4.937   2.504   0.286  0.2838  0.1233 -0.1443
 1227TIP3    H125172   4.888   2.431   0.324  1.5982 -0.8882 -0.3083
 1227TIP3    H225173   4.970   2.469   0.203  2.8620  0.0842  0.8139
 1228TIP3   OH225174   2.869   1.080   1.498 -0.0273  0.2068  0.0254
 1228TIP3    H125175   2.950   1.029   1.504 -1.0892 -1.6233 -0.4967
 1228TIP3    H225176   2.872   1.119   1.410  1.1578  1.8126  0.7065
 1229TIP3   OH225177   5.470   5.081  13.490 -0.1036 -0.6205  0.3963
 1229TIP3    H125178   5.424   5.007  13.451  0.0816 -0.1448 -0.7522
 1229TIP3    H225179   5.401   5.134  13.531 -0.7938  0.5976 -2.1324
 1230TIP3   OH225180   4.991   6.618   5.910 -0.6594  0.2059 -0.4045
 1230TIP3    H125181   5.022   6.534   5.944  1.4471  0.8523 -0.5925
 1230TIP3    H225182   4.898   6.604   5.893 -0.5518 -1.8137  0.3809
 1231TIP3   OH225183   3.620   1.887  16.605  0.1045 -0.1139  0.5161
 1231TIP3    H125184   3.699   1.908  16.654  0.0780  2.2404 -0.3003
 1231TIP3    H225185   3.638   1.916  16.516 -0.8784 -1.6402 -0.2202
 1232TIP3   OH225186   5.198   4.569  17.328  0.6103 -0.4021  0.0387
 1232TIP3    H125187   5.180   4.533  17.241  0.0813 -2.3565  0.8956
 1232TIP3    H225188   5.113   4.572  17.371  0.8807  0.4435  0.5446
 1233TIP3   OH225189   4.720   0.174   5.503 -0.1932 -0.4226  0.0725
 1233TIP3    H125190   4.661   0.200   5.574  0.8618  1.2783  0.3562
 1233TIP3    H225191   4.807   0.178   5.541  0.2888 -0.8397 -0.9484
 1234TIP3   OH225192   5.033   0.474   5.118 -0.1544  0.0540 -0.0664
 1234TIP3    H125193   5.085   0.394   5.117 -0.8391 -0.3999  0.0726
 1234TIP3    H225194   5.043   0.508   5.207  0.0343  0.0595 -0.0893
 1235TIP3   OH225195   2.794   2.673  11.512  0.0775 -0.3263 -0.4446
 1235TIP3    H125196   2.784   2.754  11.462 -0.4605  2.5938  3.8472
 1235TIP3    H225197   2.705   2.637  11.518 -1.0093  2.4032  2.7051
 1236TIP3   OH225198   3.548   0.953   4.814 -0.4316  0.8745  0.0899
 1236TIP3    H125199   3.539   0.961   4.909 -0.5689 -0.1349  0.1751
 1236TIP3    H225200   3.459   0.954   4.781 -0.3912  1.0731 -0.0135
 1237TIP3   OH225201   0.710   1.082  16.354  0.1818 -0.0172  0.3790
 1237TIP3    H125202   0.697   1.002  16.404  0.5565  0.7149  1.6946
 1237TIP3    H225203   0.762   1.056  16.279  1.1096 -0.8564  1.2866
 1238TIP3   OH225204   3.676   1.318  17.022 -0.2691  0.4674 -0.0773
 1238TIP3    H125205   3.630   1.265  17.087 -0.0149 -2.3991 -2.0755
 1238TIP3    H225206   3.758   1.342  17.065 -0.4852 -0.6163  0.9952
 1239TIP3   OH225207   6.490   5.434  17.057  0.3021  0.1707 -0.0320
 1239TIP3    H125208   6.521   5.360  17.004 -0.9489 -0.3139 -0.1098
 1239TIP3    H225209   6.397   5.442  17.036 -0.3933 -0.4040  2.4979
 1240TIP3   OH225210   6.044   5.105  15.060  0.0058 -0.3651  0.2505
 1240TIP3    H125211   5.983   5.142  14.996 -0.6657  0.7079  1.4615
 1240TIP3    H225212   6.046   5.011  15.039  0.8568  0.1338 -2.1641
 1241TIP3   OH225213   1.207   1.489  15.407 -0.3761 -0.0782 -0.2444
 1241TIP3    H125214   1.287   1.486  15.459 -0.9330  2.2357  0.8393
 1241TIP3    H225215   1.157   1.412  15.436  0.5462 -0.3923  0.5667
 1242TIP3   OH225216   3.475   4.350  14.629 -0.1260 -0.4195  0.0736
 1242TIP3    H125217   3.554   4.296  14.627  0.5435 -0.0600  4.9088
 1242TIP3    H225218   3.492   4.420  14.567  1.1123 -2.9172 -2.6564
 1243TIP3   OH225219   2.314   2.888  16.272  0.5657  0.2633  0.4660
 1243TIP3    H125220   2.220   2.901  16.261  0.3255 -2.0477 -0.8619
 1243TIP3    H225221   2.321   2.817  16.335  1.3883 -0.0634  0.0195
 1244TIP3   OH225222   5.010   2.822   1.275  0.5896  0.1683 -0.3192
 1244TIP3    H125223   4.976   2.903   1.236  1.2254 -0.3179 -1.9722
 1244TIP3    H225224   4.933   2.769   1.292  0.3111  0.2642 -1.2483
 1245TIP3   OH225225   0.247   5.712   1.586  0.2028 -0.6076 -0.6028
 1245TIP3    H125226   0.192   5.758   1.523  1.5717 -0.4454 -1.7291
 1245TIP3    H225227   0.223   5.620   1.577 -0.3092 -0.4706 -0.6430
 1246TIP3   OH225228   3.465   3.539  13.536 -0.0848  0.1034 -0.0909
 1246TIP3    H125229   3.459   3.633  13.521 -1.2531 -0.1351 -1.3153
 1246TIP3    H225230   3.444   3.528  13.629 -1.6248  0.9344 -0.3103
 1247TIP3   OH225231   5.222   2.830  13.541  0.0635 -0.0702  0.6426
 1247TIP3    H125232   5.257   2.800  13.625 -0.4916 -2.4560  0.0933
 1247TIP3    H225233   5.127   2.834  13.555 -0.1080 -1.2234 -0.0348
 1248TIP3   OH225234   5.458   1.686   2.286 -0.0854  0.5403 -0.0989
 1248TIP3    H125235   5.533   1.714   2.233  0.1062 -0.1355 -0.1965
 1248TIP3    H225236   5.498   1.644   2.363 -0.3537 -0.0865 -0.2914
 1249TIP3   OH225237   3.105   5.585  17.471  0.0238  0.0895 -0.4372
 1249TIP3    H125238   3.090   5.491  17.464 -0.9192  0.0724  1.4701
 1249TIP3    H225239   3.052   5.623  17.400  0.8143 -0.7980 -1.5540
 1250TIP3   OH225240   5.286   6.623  14.598  0.8527 -0.4004  0.3487
 1250TIP3    H125241   5.236   6.542  14.583  1.3526 -0.9389  1.4146
 1250TIP3    H225242   5.229   6.676  14.654  0.9359 -0.4516  0.4825
 1251TIP3   OH225243   5.660   2.951   3.563 -0.1147 -0.5379 -0.3207
 1251TIP3    H125244   5.665   2.869   3.613 -1.1851  0.1960  1.0561
 1251TIP3    H225245   5.623   3.014   3.624  0.8591  1.0459 -1.3078
 1252TIP3   OH225246   3.606   1.881   5.288 -1.0133  0.2911  0.2542
 1252TIP3    H125247   3.602   1.805   5.230  0.8107 -0.3405  0.8883
 1252TIP3    H225248   3.598   1.956   5.229  0.1030 -0.3510 -0.7574
 1253TIP3   OH225249   5.741   5.875  11.195 -0.2257  0.0970  0.1463
 1253TIP3    H125250   5.748   5.884  11.100  2.0383 -1.1619  0.1218
 1253TIP3    H225251   5.781   5.790  11.214 -0.0404  0.6181  2.2912
 1254TIP3   OH225252   2.024   5.313   5.690  0.6460  0.0627 -0.1187
 1254TIP3    H125253   2.027   5.297   5.596 -0.5033 -2.4897  0.2183
 1254TIP3    H225254   1.931   5.322   5.710  0.8205 -0.2752  0.8974
 1255TIP3   OH225255   6.346   4.860  16.862 -0.4320 -0.3544 -0.7353
 1255TIP3    H125256   6.298   4.939  16.839 -0.8961 -1.2895 -3.3722
 1255TIP3    H225257   6.278   4.794  16.877 -0.0185 -0.8941 -1.2008
 1256TIP3   OH225258   6.712   0.209   4.199 -0.2663  0.0168 -0.0023
 1256TIP3    H125259   6.668   0.269   4.259 -1.4566 -1.2590  0.4694
 1256TIP3    H225260   6.732   0.261   4.122  0.3233  1.4267  1.0589
 1257TIP3   OH225261   2.858   3.693  14.167  0.0853  0.7971 -0.3211
 1257TIP3    H125262   2.779   3.709  14.115 -0.5089  1.1808  0.6629
 1257TIP3    H225263   2.904   3.623  14.121 -0.6241  0.8417 -1.1264
 1258TIP3   OH225264   1.789   0.956  12.921  0.3490 -0.4872  0.1700
 1258TIP3    H125265   1.739   0.972  13.001 -1.0867  0.6279 -0.8974
 1258TIP3    H225266   1.723   0.954  12.852  1.1994 -3.9731 -0.7786
 1259TIP3   OH225267   0.794   2.514   0.995 -0.3537  0.2285 -0.6952
 1259TIP3    H125268   0.699   2.515   1.007 -0.2334  1.7019  0.3764
 1259TIP3    H225269   0.816   2.604   0.975  1.1531  0.6310  2.2378
 1260TIP3   OH225270   3.338   3.809  13.521  0.3559 -0.1331 -0.2238
 1260TIP3    H125271   3.278   3.785  13.592  0.9655 -1.4286 -0.1342
 1260TIP3    H225272   3.377   3.892  13.550 -1.2498  0.6689 -0.2187
 1261TIP3   OH225273   4.245   3.599  13.540  0.1137 -0.3059  0.0100
 1261TIP3    H125274   4.175   3.652  13.501 -0.8676 -1.2376  0.4596
 1261TIP3    H225275   4.326   3.641  13.510 -0.6178  1.5427  0.4797
 1262TIP3   OH225276   4.363   1.508  14.799 -0.0336  0.1566 -0.4686
 1262TIP3    H125277   4.364   1.471  14.887 -0.6398  1.3825  0.0707
 1262TIP3    H225278   4.451   1.543  14.786 -0.0093  0.1756 -0.2573
 1263TIP3   OH225279   2.602   3.745   0.086 -0.0987 -0.3708  0.1606
 1263TIP3    H125280   2.562   3.741   0.174  0.1183  0.6014  0.3179
 1263TIP3    H225281   2.551   3.682   0.034 -0.7561 -0.3700  0.7790
 1264TIP3   OH225282   3.258   0.110  17.276  0.2368 -0.0457 -0.5777
 1264TIP3    H125283   3.188   0.056  17.238  0.4047 -1.3315  0.8069
 1264TIP3    H225284   3.306   0.049  17.333 -0.0390  1.7244  1.7047
 1265TIP3   OH225285   3.769   5.929   4.852  0.0966 -0.1351 -0.0352
 1265TIP3    H125286   3.844   5.877   4.882  1.9192  1.3536 -1.7181
 1265TIP3    H225287   3.805   5.984   4.783 -1.5748  3.7003  1.8938
 1266TIP3   OH225288   4.220   4.404  11.842  0.1598 -0.1527 -0.2611
 1266TIP3    H125289   4.247   4.495  11.832  1.5727 -0.6691 -1.4326
 1266TIP3    H225290   4.206   4.373  11.753  0.2966 -1.2551  0.0864
 1267TIP3   OH225291   6.595   4.555   2.249  0.1372  0.4804 -0.4330
 1267TIP3    H125292   6.666   4.601   2.295  0.7085  2.1867 -2.8352
 1267TIP3    H225293   6.635   4.525   2.167 -1.3928 -0.4469 -0.8753
 1268TIP3   OH225294   1.849   1.365  12.430  0.1902  0.7798 -0.3327
 1268TIP3    H125295   1.801   1.444  12.404  0.7968  0.6418 -2.0117
 1268TIP3    H225296   1.789   1.319  12.489 -0.4152  2.1878  0.1756
 1269TIP3   OH225297   2.282   5.609   6.107  0.5472 -0.2790 -0.5159
 1269TIP3    H125298   2.244   5.635   6.023  0.2724 -1.4893 -0.7922
 1269TIP3    H225299   2.207   5.605   6.167  0.8396  1.2797 -0.0027
 1270TIP3   OH225300   4.755   3.136   4.521 -0.1335 -0.2614 -0.7198
 1270TIP3    H125301   4.732   3.089   4.441 -1.0531 -0.7857 -0.1663
 1270TIP3    H225302   4.847   3.113   4.536 -0.7409 -2.4839 -0.0942
 1271TIP3   OH225303   3.536   5.203  17.283 -1.0797  0.1728 -0.1103
 1271TIP3    H125304   3.627   5.175  17.275 -0.4872  1.4535  1.4916
 1271TIP3    H225305   3.485   5.122  17.282  0.1450 -0.6109 -0.2642
 1272TIP3   OH225306   3.493   5.383   0.445  0.1189 -0.0064  0.3827
 1272TIP3    H125307   3.435   5.346   0.378  0.3241 -0.0148  0.2075
 1272TIP3    H225308   3.444   5.374   0.527 -0.0331 -0.2212  0.2695
 1273TIP3   OH225309   3.801   2.485   5.248 -0.5528  0.0913 -0.3222
 1273TIP3    H125310   3.877   2.488   5.306 -0.8598  1.3337  0.0484
 1273TIP3    H225311   3.826   2.425   5.178  0.7956  0.5327 -0.2464
 1274TIP3   OH225312   5.604   4.759   1.559 -0.1310 -0.0257  0.3378
 1274TIP3    H125313   5.688   4.712   1.560  0.3904  0.6317 -2.7530
 1274TIP3    H225314   5.538   4.690   1.568  0.6842 -1.1404 -1.5865
 1275TIP3   OH225315   4.931   6.488   4.946  0.3314  0.0525 -0.1094
 1275TIP3    H125316   4.916   6.443   4.863  0.1166 -1.6240  0.7924
 1275TIP3    H225317   4.848   6.532   4.965  0.3355  0.3271 -0.6872
 1276TIP3   OH225318   1.912   5.374   0.474 -0.5951 -0.9453  0.0815
 1276TIP3    H125319   1.826   5.407   0.447  0.1054 -0.1338 -1.3104
 1276TIP3    H225320   1.959   5.362   0.391  1.2673  0.4637  0.8556
 1277TIP3   OH225321   1.114   3.004   5.518  0.3518 -0.0312 -0.1455
 1277TIP3    H125322   1.083   2.916   5.539  0.4035 -0.6124 -2.2973
 1277TIP3    H225323   1.209   2.994   5.508  0.3445  0.2370 -0.5112
 1278TIP3   OH225324   6.256   0.084  16.400  0.9550 -1.0383 -0.0725
 1278TIP3    H125325   6.327   0.104  16.339 -0.9681  1.1923 -1.7450
 1278TIP3    H225326   6.298   0.084  16.486  2.6810  3.0493 -0.6626
 1279TIP3   OH225327   3.693   1.441  14.821  0.0251 -0.1345 -0.0983
 1279TIP3    H125328   3.715   1.348  14.825 -0.4822 -0.2403  0.4250
 1279TIP3    H225329   3.700   1.470  14.912 -0.3022  0.2211 -0.1874
 1280TIP3   OH225330   4.866   4.224  13.768  0.2290 -0.3295  0.1498
 1280TIP3    H125331   4.818   4.146  13.795 -1.0952  0.1212 -0.7893
 1280TIP3    H225332   4.920   4.246  13.844 -0.5761 -1.2299  1.0242
 1281TIP3   OH225333   4.577   2.917   4.613 -0.0763 -0.6920 -0.9676
 1281TIP3    H125334   4.657   2.969   4.602 -0.0340 -0.9973 -2.1214
 1281TIP3    H225335   4.510   2.968   4.569 -0.1399 -1.3634 -1.6499
 1282TIP3   OH225336   0.550   3.989  16.639 -0.0501  0.2125 -0.4969
 1282TIP3    H125337   0.557   3.901  16.676  2.4980  0.6782  0.3289
 1282TIP3    H225338   0.544   4.047  16.715  0.2561  0.8822 -0.9746
 1283TIP3   OH225339   0.122   4.718   0.472 -1.0007 -0.1386  0.9264
 1283TIP3    H125340   0.108   4.626   0.491 -0.3648 -0.2231  1.0082
 1283TIP3    H225341   0.176   4.750   0.544  1.0887 -0.3659 -0.4501
 1284TIP3   OH225342   5.045   5.260   0.067 -0.6069  0.3779  0.4003
 1284TIP3    H125343   4.975   5.236   0.129 -1.2253 -0.4747 -0.5921
 1284TIP3    H225344   5.002   5.318   0.004 -0.6599 -0.7947 -0.6846
 1285TIP3   OH225345   5.779   1.984  15.969  0.7014 -0.4668 -0.3350
 1285TIP3    H125346   5.840   1.931  15.919 -1.8329 -2.1809 -1.8665
 1285TIP3    H225347   5.726   1.920  16.017 -0.6447  0.8423  0.0059
 1286TIP3   OH225348   2.236   1.469  10.849  0.1717 -0.9237  0.3507
 1286TIP3    H125349   2.175   1.448  10.778  0.6077 -3.2066  0.5641
 1286TIP3    H225350   2.317   1.423  10.826  1.4684  1.0818  0.6660
 1287TIP3   OH225351   5.308   4.190   0.849  0.5145  0.0972 -0.6448
 1287TIP3    H125352   5.300   4.218   0.758 -1.1231  0.0028 -0.5533
 1287TIP3    H225353   5.219   4.196   0.884  0.9240 -0.9196  0.6452
 1288TIP3   OH225354   1.405   2.495   4.379  1.0259  0.0173 -0.0595
 1288TIP3    H125355   1.318   2.535   4.377  0.6799 -0.6799  0.5336
 1288TIP3    H225356   1.416   2.456   4.293  0.2879 -0.8226  0.2064
 1289TIP3   OH225357   3.557   5.929   1.872  0.6018 -0.1128  0.1855
 1289TIP3    H125358   3.604   5.962   1.795  1.4776 -1.1900  0.2419
 1289TIP3    H225359   3.466   5.953   1.856  0.9286  0.5921 -0.6925
 1290TIP3   OH225360   3.212   1.341  13.343 -0.0016 -0.1839  0.2817
 1290TIP3    H125361   3.154   1.331  13.419 -0.8737  1.3954 -0.1433
 1290TIP3    H225362   3.298   1.356  13.382 -0.3249  0.0010  0.9487
 1291TIP3   OH225363   1.089   0.447   6.280 -1.2255  0.4201 -0.5109
 1291TIP3    H125364   1.084   0.542   6.290  3.0456  0.7717  0.3812
 1291TIP3    H225365   1.051   0.430   6.194 -2.6592  2.8075 -0.4431
 1292TIP3   OH225366   2.696   5.637  13.086 -0.4819 -0.0962  0.2173
 1292TIP3    H125367   2.625   5.590  13.129  0.4362 -0.5949  1.2327
 1292TIP3    H225368   2.717   5.584  13.009  0.3900 -1.2758  1.2292
 1293TIP3   OH225369   4.872   6.525  12.348 -0.0768  0.2778  0.8689
 1293TIP3    H125370   4.805   6.466  12.314 -0.0580  0.1181  1.1063
 1293TIP3    H225371   4.877   6.596  12.284  2.4838 -1.7563 -1.4577
 1294TIP3   OH225372   0.122   4.637   0.048  0.3688  0.0185 -0.4401
 1294TIP3    H125373   0.181   4.709   0.068 -0.7547  1.9031 -3.2498
 1294TIP3    H225374   0.070   4.625   0.127  0.1430  2.8043 -0.0782
 1295TIP3   OH225375   1.835   1.812  12.737  0.6375  0.1279 -0.0765
 1295TIP3    H125376   1.880   1.822  12.821  1.5953 -1.6587 -0.3392
 1295TIP3    H225377   1.774   1.739  12.751  0.1027  0.4506 -0.6686
 1296TIP3   OH225378   3.879   2.725   0.564  0.0470  0.2004 -0.1126
 1296TIP3    H125379   3.917   2.644   0.598 -2.2837 -0.8470  0.1827
 1296TIP3    H225380   3.844   2.703   0.478  1.9636  1.7092 -1.3634
 1297TIP3   OH225381   1.696   4.389  14.630 -0.5266 -0.6719 -0.6455
 1297TIP3    H125382   1.650   4.457  14.580 -0.7911  0.5733  1.1944
 1297TIP3    H225383   1.773   4.369  14.577 -0.2463  1.3626 -1.0888
 1298TIP3   OH225384   0.015   5.927   1.018  0.6254 -0.1414  0.2300
 1298TIP3    H125385   0.075   5.986   0.973  0.4194  0.0820  0.2443
 1298TIP3    H225386   0.014   5.848   0.965  1.1962 -0.2740  0.4160
 1299TIP3   OH225387   2.199   0.781   0.532  0.0448 -0.3794  0.3084
 1299TIP3    H125388   2.140   0.756   0.603  0.0186 -1.1583  0.0198
 1299TIP3    H225389   2.214   0.700   0.483 -0.8205  0.3543 -1.2475
 1300TIP3   OH225390   2.688   2.137  17.391  0.2718  0.0545  0.1391
 1300TIP3    H125391   2.669   2.067  17.453 -0.3764 -1.5871 -1.8016
 1300TIP3    H225392   2.602   2.176  17.373  0.4514  0.4951  0.2249
 1301TIP3   OH225393   3.835   2.017  13.320 -0.2010  0.1848  0.1195
 1301TIP3    H125394   3.783   1.971  13.254 -3.7123  1.3113  1.8896
 1301TIP3    H225395   3.899   1.951  13.348 -1.0086 -1.5329 -1.7404
 1302TIP3   OH225396   0.796   0.913  13.601  0.5085 -0.0241  1.0217
 1302TIP3    H125397   0.704   0.921  13.574  0.2191  0.3717  2.0867
 1302TIP3    H225398   0.826   0.833  13.559 -0.4514 -0.3983  1.0119
 1303TIP3   OH225399   2.792   1.110   5.013  0.2578  0.1028 -0.2440
 1303TIP3    H125400   2.705   1.072   5.004  0.9734 -1.6815  0.0623
 1303TIP3    H225401   2.788   1.191   4.962 -1.7720  0.4225  0.3564
 1304TIP3   OH225402   2.802   5.166   1.053  0.4848  0.0126 -0.0776
 1304TIP3    H125403   2.729   5.108   1.031 -0.2490  0.6929  0.4994
 1304TIP3    H225404   2.767   5.224   1.120  1.7064  0.0602  0.5427
 1305TIP3   OH225405   2.405   5.735   3.599 -0.3025 -0.3365  0.4156
 1305TIP3    H125406   2.320   5.741   3.643  0.5837 -0.1761  2.1814
 1305TIP3    H225407   2.444   5.822   3.611  0.4727 -0.6767  0.4145
 1306TIP3   OH225408   2.923   0.121  12.281 -0.2601 -0.4372  0.4852
 1306TIP3    H125409   2.891   0.195  12.229 -1.4204 -1.0108  0.3412
 1306TIP3    H225410   3.009   0.102  12.245 -0.2782  0.3447 -0.0005
 1307TIP3   OH225411   3.306   1.583  17.125  0.3168  0.0612 -0.0259
 1307TIP3    H125412   3.361   1.507  17.108  0.8180 -0.2367  2.4498
 1307TIP3    H225413   3.362   1.658  17.105  0.0616 -0.1860 -1.7939
 1308TIP3   OH225414   3.929   1.367   4.111 -0.6469  0.1465  0.2794
 1308TIP3    H125415   4.015   1.363   4.154 -1.2583 -0.9911  1.4669
 1308TIP3    H225416   3.877   1.300   4.156 -3.3276  3.2016  2.1606
 1309TIP3   OH225417   0.672   6.731  15.208 -0.0078  0.0509 -0.5966
 1309TIP3    H125418   0.678   6.669  15.280  1.3164  0.6948 -0.1135
 1309TIP3    H225419   0.609   6.691  15.147  0.4354 -1.5171 -0.0822
 1310TIP3   OH225420   5.470   0.157  17.357  0.4861  0.1908  0.2285
 1310TIP3    H125421   5.463   0.239  17.406 -0.8983  1.1470 -1.4572
 1310TIP3    H225422   5.564   0.142  17.350  0.7748  1.6698  0.5416
 1311TIP3   OH225423   1.535   3.914   2.702 -0.1867 -0.1340  0.3413
 1311TIP3    H125424   1.584   3.996   2.692 -2.6038  1.3383 -0.2814
 1311TIP3    H225425   1.471   3.932   2.770 -0.6378 -1.5804  0.3295
 1312TIP3   OH225426   6.439   0.231  15.238  0.3713  0.2906  0.2153
 1312TIP3    H125427   6.488   0.218  15.158 -1.2000  0.1405 -0.7635
 1312TIP3    H225428   6.459   0.154  15.292 -0.5589 -0.9369 -1.1159
 1313TIP3   OH225429   6.195   0.794  13.392 -0.2776 -0.7890  0.8171
 1313TIP3    H125430   6.236   0.724  13.443 -0.8673 -0.7474  1.3736
 1313TIP3    H225431   6.204   0.766  13.301 -0.0618 -1.3460  1.0043
 1314TIP3   OH225432   1.398   4.499  15.394 -0.3979 -0.3694 -0.6802
 1314TIP3    H125433   1.483   4.493  15.351 -1.0850  0.3786 -2.2155
 1314TIP3    H225434   1.338   4.530  15.326 -1.8418 -0.5554  0.4456
 1315TIP3   OH225435   3.605   3.124   5.638 -0.2505  0.5983  0.0741
 1315TIP3    H125436   3.539   3.090   5.578 -0.1447  1.6335 -0.6558
 1315TIP3    H225437   3.577   3.214   5.656  1.2930  1.2851 -0.7754
 1316TIP3   OH225438   1.056   5.047  12.060  0.4674  0.3745 -0.5621
 1316TIP3    H125439   0.979   5.066  12.113  2.1313  2.0851  1.4741
 1316TIP3    H225440   1.026   5.054  11.969 -1.8307  0.5220  0.1428
 1317TIP3   OH225441   4.669   5.867   0.551  0.1060  0.2565  0.1093
 1317TIP3    H125442   4.716   5.902   0.626 -0.2777 -0.0495  0.4988
 1317TIP3    H225443   4.599   5.931   0.535 -0.0452  0.1290  0.2551
 1318TIP3   OH225444   4.901   4.155  13.354 -0.3133  0.3770  0.0785
 1318TIP3    H125445   4.858   4.239  13.371  1.0652  1.1136  0.0611
 1318TIP3    H225446   4.983   4.159  13.404 -0.9814 -1.6779  1.4932
 1319TIP3   OH225447   6.003   2.578   3.415  0.0758  0.2133 -0.3692
 1319TIP3    H125448   5.973   2.664   3.446 -1.5449  0.0131 -1.2912
 1319TIP3    H225449   5.981   2.577   3.322  0.8767 -0.8817 -0.5644
 1320TIP3   OH225450   3.905   5.386  12.020  0.7125  0.5431  0.0777
 1320TIP3    H125451   3.878   5.346  12.102  0.7298 -0.9786 -0.6161
 1320TIP3    H225452   3.860   5.470  12.017 -0.9659 -0.2947  0.6760
 1321TIP3   OH225453   5.660   5.416  14.872  0.3144  0.2314  0.1505
 1321TIP3    H125454   5.642   5.457  14.788  1.1138 -0.1939 -0.2389
 1321TIP3    H225455   5.663   5.489  14.934  2.5939  0.9265 -0.6809
 1322TIP3   OH225456   2.464   4.379   3.434 -0.5197  0.1022 -0.4651
 1322TIP3    H125457   2.443   4.290   3.460 -0.6453  0.0902 -0.6071
 1322TIP3    H225458   2.380   4.424   3.427 -0.4202  0.4057  0.2111
 1323TIP3   OH225459   1.914   4.949   0.118  0.8248 -0.4825 -0.0689
 1323TIP3    H125460   1.861   4.954   0.039  0.2120  0.1947  0.3683
 1323TIP3    H225461   1.860   4.991   0.185  2.3970  1.3624  0.1353
 1324TIP3   OH225462   2.517   3.126   1.711 -0.0392  0.1190 -0.1800
 1324TIP3    H125463   2.558   3.110   1.626  0.9886  1.1862  0.0959
 1324TIP3    H225464   2.467   3.207   1.699  0.3160  0.4142  0.3005
 1325TIP3   OH225465   6.381   2.583  12.857  0.4970  0.4030  0.0092
 1325TIP3    H125466   6.291   2.565  12.827 -0.1528 -0.2948  2.2029
 1325TIP3    H225467   6.380   2.676  12.881 -0.1093  0.0759  1.3762
 1326TIP3   OH225468   6.476   4.514  16.317  0.3114  0.1467  0.1656
 1326TIP3    H125469   6.550   4.497  16.259 -0.5287 -1.5379 -0.4450
 1326TIP3    H225470   6.399   4.511  16.261 -0.5014 -1.2679  1.2990
 1327TIP3   OH225471   3.888   2.451  14.723 -0.4659  0.5730 -0.0150
 1327TIP3    H125472   3.844   2.530  14.690 -0.5432  0.6234  0.2096
 1327TIP3    H225473   3.843   2.431  14.805  1.0240  1.6050  1.1034
 1328TIP3   OH225474   3.213   0.886  15.680  0.4290  0.1239  0.0691
 1328TIP3    H125475   3.274   0.813  15.690  0.5861  0.4660  2.1544
 1328TIP3    H225476   3.152   0.857  15.612 -0.1350 -2.4324  1.4944
 1329TIP3   OH225477   0.021   0.150   5.236  0.2650  0.0832  0.3016
 1329TIP3    H125478  -0.072   0.132   5.223  0.1351  0.6121  0.4461
 1329TIP3    H225479   0.037   0.230   5.185  0.5639  0.1787  0.5410
 1330TIP3   OH225480   2.802   4.484   4.311  0.1699  0.2374  0.4590
 1330TIP3    H125481   2.894   4.468   4.290 -0.2010  1.1588 -2.3182
 1330TIP3    H225482   2.794   4.579   4.315 -0.6077  0.1627  0.9498
 1331TIP3   OH225483   2.026   1.425  16.763 -0.2049  0.0847 -0.6209
 1331TIP3    H125484   1.939   1.417  16.804 -0.1169 -0.8306 -0.5838
 1331TIP3    H225485   2.087   1.416  16.836 -0.0732  1.6251 -0.5129
 1332TIP3   OH225486   1.199   2.876   1.810  0.4996 -0.4860  0.0234
 1332TIP3    H125487   1.248   2.836   1.738  1.5599 -2.5362  1.7475
 1332TIP3    H225488   1.267   2.907   1.870 -0.3044  3.0106 -0.6351
 1333TIP3   OH225489   5.740   5.131  15.869  0.5870 -0.2443 -0.2883
 1333TIP3    H125490   5.745   5.221  15.899 -0.4953  0.0671 -0.9953
 1333TIP3    H225491   5.715   5.081  15.947 -1.4991  0.4590 -0.4395
 1334TIP3   OH225492   5.623   0.815  11.742 -0.1556 -0.2806 -0.2807
 1334TIP3    H125493   5.687   0.815  11.671  1.1795 -0.5844  0.8750
 1334TIP3    H225494   5.627   0.903  11.778 -0.5316 -0.2481 -0.3143
 1335TIP3   OH225495   6.362   0.502  10.800 -0.6610 -0.1702 -0.4786
 1335TIP3    H125496   6.409   0.431  10.844 -0.8802 -1.3954 -2.1042
 1335TIP3    H225497   6.273   0.499  10.836 -0.9929 -1.5176 -1.3596
 1336TIP3   OH225498   4.834   2.636  13.097 -0.5704  0.4541 -0.2166
 1336TIP3    H125499   4.749   2.640  13.053 -0.5256 -1.6075 -0.6263
 1336TIP3    H225500   4.820   2.576  13.170  0.1625  1.3265  0.6567
 1337TIP3   OH225501   6.709   2.105  11.315  0.0258  0.1060  0.1063
 1337TIP3    H125502   6.804   2.105  11.321  0.0943 -0.3004 -0.9225
 1337TIP3    H225503   6.690   2.119  11.223 -0.9218  0.4838  0.3474
 1338TIP3   OH225504   3.279   1.987   3.192  0.1008 -0.1094 -0.0496
 1338TIP3    H125505   3.354   1.934   3.218  0.5635  2.2407  4.5359
 1338TIP3    H225506   3.316   2.072   3.167 -0.8732  0.1461 -0.6905
 1339TIP3   OH225507   5.894   3.697   2.044  0.0593  0.0678  0.6711
 1339TIP3    H125508   5.845   3.658   2.116 -2.0449 -1.1149 -1.2505
 1339TIP3    H225509   5.892   3.631   1.975  1.4594  1.3731 -0.6977
 1340TIP3   OH225510   5.647   3.667   2.968  0.5708  0.2878 -0.2049
 1340TIP3    H125511   5.695   3.611   3.028  1.6068  1.4294  0.0674
 1340TIP3    H225512   5.638   3.750   3.014  0.9506  1.0288 -1.4226
 1341TIP3   OH225513   3.826   1.889   4.973  0.4552  0.0427 -0.5383
 1341TIP3    H125514   3.774   1.938   5.037  0.1716 -0.0465 -0.7004
 1341TIP3    H225515   3.808   1.932   4.890 -1.1733 -1.3845 -0.9895
 1342TIP3   OH225516   6.118   0.775   2.577  0.3028  0.9503 -0.0852
 1342TIP3    H125517   6.182   0.718   2.618 -0.4976 -0.2982 -0.5145
 1342TIP3    H225518   6.154   0.795   2.491 -0.7010 -1.3460 -1.1142
 1343TIP3   OH225519   5.201   4.868  17.189 -0.4222 -0.5498  0.4185
 1343TIP3    H125520   5.254   4.865  17.269  0.8689 -0.0563 -0.3732
 1343TIP3    H225521   5.165   4.780  17.181 -1.0979 -0.4250  1.8691
 1344TIP3   OH225522   4.732   2.401  11.632 -0.3079 -0.3301 -0.0268
 1344TIP3    H125523   4.714   2.330  11.570 -0.1350  0.1803 -0.6777
 1344TIP3    H225524   4.664   2.466  11.614  0.9098  0.7147 -1.0950
 1345TIP3   OH225525   4.052   5.935   0.604 -0.3884  0.2097  0.1036
 1345TIP3    H125526   4.058   5.941   0.699 -1.1270 -1.0152  0.2404
 1345TIP3    H225527   4.101   5.856   0.581 -0.6057  0.2419 -0.4981
 1346TIP3   OH225528   0.158   5.171  15.511 -0.5223  0.0719  0.2594
 1346TIP3    H125529   0.211   5.140  15.584  0.6924 -0.9440 -1.0032
 1346TIP3    H225530   0.187   5.119  15.436 -1.6493  1.1528 -0.9838
 1347TIP3   OH225531   2.339   6.044  15.164 -0.1219 -0.8215  0.4709
 1347TIP3    H125532   2.422   6.091  15.162  0.2931 -1.5400 -1.4916
 1347TIP3    H225533   2.330   6.014  15.254  1.5442 -0.3936  0.8047
 1348TIP3   OH225534   0.015   5.397  16.822  0.1999  0.7344 -0.7137
 1348TIP3    H125535   0.029   5.408  16.728 -0.4899  1.4214 -0.7445
 1348TIP3    H225536   0.075   5.460  16.862 -0.6153  1.5600 -0.7545
 1349TIP3   OH225537   1.245   3.512  16.150  0.3397 -0.0621  0.1311
 1349TIP3    H125538   1.231   3.578  16.082 -0.4204  0.5228  0.8312
 1349TIP3    H225539   1.302   3.555  16.214  1.6604 -0.8621 -0.4733
 1350TIP3   OH225540   6.560   3.063   4.540  0.3326  0.1102 -0.0950
 1350TIP3    H125541   6.575   2.995   4.473  2.0216 -0.9778  1.2852
 1350TIP3    H225542   6.603   3.028   4.618 -1.7902  1.2385  1.6511
 1351TIP3   OH225543   1.051   0.108   6.068 -0.1258 -0.5331 -0.5294
 1351TIP3    H125544   1.032   0.037   6.006  2.0499 -2.5930  1.0074
 1351TIP3    H225545   1.034   0.070   6.154  0.2269  1.1375  0.3149
 1352TIP3   OH225546   4.496   3.450   3.807 -0.1215  0.4053  0.0009
 1352TIP3    H125547   4.568   3.402   3.847 -1.0191  0.6198  1.9794
 1352TIP3    H225548   4.417   3.410   3.842 -0.9895  0.6610 -1.5516
 1353TIP3   OH225549   6.227   4.998  11.837 -0.2192 -0.8854  0.5475
 1353TIP3    H125550   6.245   5.003  11.931 -0.4706  0.4447  0.5503
 1353TIP3    H225551   6.313   5.004  11.795 -0.2568  0.9539  0.6613
 1354TIP3   OH225552   1.854   1.382   1.279 -0.4586 -0.1947  0.2557
 1354TIP3    H125553   1.774   1.402   1.328 -0.2338 -1.8745  1.3882
 1354TIP3    H225554   1.921   1.438   1.319 -0.4230 -1.0606  1.4274
 1355TIP3   OH225555   1.404   1.840  15.193 -0.0952 -0.0382 -0.1012
 1355TIP3    H125556   1.474   1.779  15.217  0.0337  0.1757  0.0647
 1355TIP3    H225557   1.443   1.927  15.202 -0.5913  0.1114  0.6912
 1356TIP3   OH225558   4.126   1.449   0.073 -0.0246 -0.3246  0.4817
 1356TIP3    H125559   4.180   1.385   0.026 -0.7946 -1.0884  0.6088
 1356TIP3    H225560   4.079   1.397   0.137 -0.0917  0.4989  1.1132
 1357TIP3   OH225561   4.591   1.180   3.965  0.3728  0.0842  0.7469
 1357TIP3    H125562   4.675   1.178   3.919 -0.1209 -2.2291 -0.1477
 1357TIP3    H225563   4.608   1.133   4.047 -0.0802 -0.5010  0.5040
 1358TIP3   OH225564   6.155   1.626   6.335  0.2072 -0.2816 -0.5175
 1358TIP3    H125565   6.115   1.667   6.258  0.0391  0.0437 -0.2613
 1358TIP3    H225566   6.213   1.694   6.370  1.5086 -0.9551 -1.2555
 1359TIP3   OH225567   1.110   4.215  13.458  0.1852 -0.1582  0.2711
 1359TIP3    H125568   1.020   4.182  13.459 -0.2294  0.9432  0.1741
 1359TIP3    H225569   1.154   4.162  13.392 -1.4249  1.8431 -2.6440
 1360TIP3   OH225570   6.266   0.345   0.783  0.4870  0.3242  0.1862
 1360TIP3    H125571   6.219   0.336   0.866  0.7461  1.4945  0.4790
 1360TIP3    H225572   6.202   0.384   0.724  0.7482  0.8964  0.2735
 1361TIP3   OH225573   1.550   6.530  11.789 -0.2385  0.2841  0.3771
 1361TIP3    H125574   1.484   6.474  11.829 -0.9522 -0.0085 -1.1299
 1361TIP3    H225575   1.510   6.617  11.788  0.0044  0.4027  0.7919
 1362TIP3   OH225576   5.672   1.347   2.635 -0.0991 -0.0639 -0.3203
 1362TIP3    H125577   5.612   1.336   2.561  0.7980  0.7508 -1.1839
 1362TIP3    H225578   5.658   1.437   2.665  0.9409  0.2491 -0.7561
 1363TIP3   OH225579   3.848   3.359   3.083  0.4601  0.5158 -0.2185
 1363TIP3    H125580   3.795   3.438   3.083 -0.3717 -0.0326  0.0087
 1363TIP3    H225581   3.931   3.385   3.042  0.1182  1.4425 -0.3259
 1364TIP3   OH225582   4.846   3.868  12.929  0.3570  0.2856 -0.5327
 1364TIP3    H125583   4.767   3.819  12.906  1.5588 -0.8787 -2.4940
 1364TIP3    H225584   4.842   3.947  12.875 -0.5127  1.4120  1.0582
 1365TIP3   OH225585   5.632   1.796  16.104  0.4500  0.2668  0.2336
 1365TIP3    H125586   5.555   1.831  16.148  0.5571  0.2656  0.4218
 1365TIP3    H225587   5.598   1.732  16.042  0.2912  0.3482  0.2369
 1366TIP3   OH225588   5.336   1.995   0.127 -0.4302  0.1750 -0.4945
 1366TIP3    H125589   5.347   1.981   0.221 -1.1014 -0.2311 -0.4709
 1366TIP3    H225590   5.385   2.075   0.108  1.3255 -0.7627 -0.1494
 1367TIP3   OH225591   4.750   2.909  17.027 -0.8248 -0.0518 -0.3002
 1367TIP3    H125592   4.810   2.891  16.954 -1.6291  0.2714 -1.0581
 1367TIP3    H225593   4.718   2.998  17.009 -2.0475 -0.4728 -0.2788
 1368TIP3   OH225594   3.343   6.652   0.177  0.1288 -0.2821 -0.2122
 1368TIP3    H125595   3.294   6.735   0.180 -0.6491 -0.7615  1.0984
 1368TIP3    H225596   3.287   6.593   0.128  0.7008 -0.0587 -1.1785
 1369TIP3   OH225597   3.827   5.120   5.605 -0.7709 -0.2130 -0.3831
 1369TIP3    H125598   3.740   5.079   5.603 -1.2408  0.7143  0.1103
 1369TIP3    H225599   3.887   5.047   5.623 -1.4406 -0.8723 -0.7448
 1370TIP3   OH225600   4.869   2.923  14.637 -0.5812  0.0922  0.6800
 1370TIP3    H125601   4.808   2.871  14.689 -0.9288 -0.6816 -0.4652
 1370TIP3    H225602   4.830   3.011  14.636 -1.8948 -0.4648 -0.3271
 1371TIP3   OH225603   1.179   5.011   4.439  0.3563  0.3551 -0.8415
 1371TIP3    H125604   1.204   5.083   4.380  0.5588 -0.0145 -1.2149
 1371TIP3    H225605   1.255   4.999   4.495  1.3158 -1.1615 -2.3627
 1372TIP3   OH225606   4.935   2.650  16.655  0.3690 -0.1393 -0.1087
 1372TIP3    H125607   4.852   2.691  16.632  1.2120  0.5190 -2.1703
 1372TIP3    H225608   4.956   2.685  16.741 -0.6148  1.1018 -0.3419
 1373TIP3   OH225609   3.474   4.060  14.433  0.2499  0.5925 -0.1753
 1373TIP3    H125610   3.483   3.970  14.465  1.1151  0.7686  0.1070
 1373TIP3    H225611   3.538   4.067  14.362  1.8818  1.6428  1.3174
 1374TIP3   OH225612   1.396   1.351   3.309 -0.0594 -0.4106 -0.6273
 1374TIP3    H125613   1.345   1.404   3.370 -3.0033 -1.4096 -2.0171
 1374TIP3    H225614   1.424   1.275   3.360 -1.4047 -0.6260 -0.1783
 1375TIP3   OH225615   3.642   4.744  12.165  0.3832 -0.1341  0.2621
 1375TIP3    H125616   3.737   4.732  12.161  0.5362  0.9635  0.3434
 1375TIP3    H225617   3.615   4.756  12.074  1.0093  4.1820  0.4480
 1376TIP3   OH225618   5.290   6.692   5.138 -0.4440  0.2758 -0.0552
 1376TIP3    H125619   5.246   6.776   5.128 -0.0264  0.7097  1.4851
 1376TIP3    H225620   5.324   6.671   5.051  0.8587  2.5004 -0.1419
 1377TIP3   OH225621   2.876   4.863   6.067  0.2123 -0.6156 -0.7213
 1377TIP3    H125622   2.953   4.905   6.105  0.3399 -0.2886 -1.3321
 1377TIP3    H225623   2.869   4.900   5.979 -1.7404  0.8106 -0.0444
 1378TIP3   OH225624   0.530   5.322  17.034  0.4623 -0.0648  0.0521
 1378TIP3    H125625   0.506   5.378  17.108 -0.1762  0.5614 -0.6100
 1378TIP3    H225626   0.450   5.315  16.982  0.9977 -0.1665 -0.7821
 1379TIP3   OH225627   3.661   2.635   1.504 -0.1569 -0.3008  0.0059
 1379TIP3    H125628   3.608   2.671   1.434  1.0163 -1.4276 -1.5290
 1379TIP3    H225629   3.741   2.689   1.503 -0.0928 -0.3846  0.4193
 1380TIP3   OH225630   3.597   1.053  14.598  0.2396  0.2036 -0.4635
 1380TIP3    H125631   3.520   1.001  14.623  0.1272  0.5242 -0.1400
 1380TIP3    H225632   3.628   1.091  14.680  0.8290 -0.0326 -0.5727
 1381TIP3   OH225633   5.291   2.210   1.031 -0.1556 -0.0399  0.3681
 1381TIP3    H125634   5.261   2.293   1.069  2.6440  0.8325  0.9233
 1381TIP3    H225635   5.325   2.160   1.105 -0.5317 -1.1149 -0.1617
 1382TIP3   OH225636   3.392   2.433  16.321 -0.1039 -0.3468  0.2599
 1382TIP3    H125637   3.465   2.464  16.375 -0.5439 -1.2735  1.4395
 1382TIP3    H225638   3.430   2.364  16.266  0.4920  1.0321 -1.1394
 1383TIP3   OH225639   3.824   3.158   3.961  0.3085  0.2271 -0.5512
 1383TIP3    H125640   3.863   3.079   3.999  2.7346  1.4517 -0.3154
 1383TIP3    H225641   3.812   3.136   3.869  1.1873 -0.3405 -0.5423
 1384TIP3   OH225642   6.643   4.884  13.704  0.1846  0.1046  0.4138
 1384TIP3    H125643   6.711   4.871  13.638  0.0782 -0.7008  0.4495
 1384TIP3    H225644   6.561   4.884  13.654  0.0656 -1.0123  0.5840
 1385TIP3   OH225645   5.229   1.845  17.200 -0.0900 -0.1167  0.0174
 1385TIP3    H125646   5.156   1.810  17.251  0.1540  0.1496  0.5548
 1385TIP3    H225647   5.264   1.769  17.153 -1.3122 -0.0860 -1.0190
 1386TIP3   OH225648   1.560   5.023   3.157 -0.0905 -0.6076 -0.1358
 1386TIP3    H125649   1.643   4.979   3.140  0.3258 -0.5100  1.5155
 1386TIP3    H225650   1.495   4.953   3.153  0.3970 -1.1675  1.0594
 1387TIP3   OH225651   3.458   0.108   4.577 -0.3461  0.0027 -0.5221
 1387TIP3    H125652   3.486   0.131   4.666  0.4271  0.4874 -0.8764
 1387TIP3    H225653   3.511   0.165   4.521 -0.6549 -0.4756 -1.3009
 1388TIP3   OH225654   3.220   3.619  16.676  0.2369 -0.9283  0.1092
 1388TIP3    H125655   3.297   3.639  16.623  1.9783 -2.0233  2.0721
 1388TIP3    H225656   3.178   3.545  16.631 -0.8780  0.9009 -2.0358
 1389TIP3   OH225657   6.101   0.232  15.150  0.1235  0.3863  0.2049
 1389TIP3    H125658   6.087   0.138  15.162  0.3330  0.3995  0.5635
 1389TIP3    H225659   6.131   0.263  15.236  0.3622  0.7241 -0.0002
 1390TIP3   OH225660   4.134   1.015   3.248  0.1020 -0.4234 -0.3236
 1390TIP3    H125661   4.081   1.011   3.327 -0.9049 -0.1482 -0.9629
 1390TIP3    H225662   4.147   1.109   3.233  1.1181 -0.4955  0.0420
 1391TIP3   OH225663   3.015   1.838  15.800  0.1454 -0.0979 -1.0336
 1391TIP3    H125664   3.079   1.856  15.730  0.8075 -1.0410 -0.6828
 1391TIP3    H225665   2.937   1.807  15.753 -0.0708  1.0339 -1.4616
 1392TIP3   OH225666   2.448   4.798  15.821  0.7379 -0.2295 -0.2657
 1392TIP3    H125667   2.458   4.763  15.909 -1.5325 -1.3497 -0.3663
 1392TIP3    H225668   2.438   4.892  15.834  1.2064 -0.2897  0.5982
 1393TIP3   OH225669   4.258   3.823  16.340 -0.1714  0.0196  0.3458
 1393TIP3    H125670   4.268   3.745  16.285  1.7376 -0.1586  0.8740
 1393TIP3    H225671   4.249   3.895  16.277 -1.2829 -0.5120 -0.1460
 1394TIP3   OH225672   2.388   6.516  13.937  0.3320 -0.5142  0.1286
 1394TIP3    H125673   2.413   6.544  14.025  1.7451  2.0030 -0.9560
 1394TIP3    H225674   2.457   6.455  13.912  0.9459  0.1433  0.1557
 1395TIP3   OH225675   1.481   6.752   3.028  0.0670  0.0239 -0.0186
 1395TIP3    H125676   1.397   6.789   2.999 -1.3634 -2.8291  0.1179
 1395TIP3    H225677   1.501   6.685   2.963  2.3608  0.7164 -0.0957
 1396TIP3   OH225678   1.299   0.003   5.537 -0.3188  0.0986  0.1986
 1396TIP3    H125679   1.208   0.021   5.558 -0.5740  0.2352 -0.9797
 1396TIP3    H225680   1.328  -0.056   5.607 -1.1674  0.4141  0.8356
 1397TIP3   OH225681   5.597   6.513   3.898 -0.1599 -0.1778  0.2288
 1397TIP3    H125682   5.583   6.565   3.977 -2.9089 -1.1483  0.4874
 1397TIP3    H225683   5.605   6.423   3.929  1.5258 -0.2929 -0.4371
 1398TIP3   OH225684   6.113   3.615  17.186 -0.1164 -0.0463 -0.1624
 1398TIP3    H125685   6.096   3.521  17.189  0.5209 -0.1521  1.2460
 1398TIP3    H225686   6.030   3.655  17.212 -0.0687 -0.2823  0.3736
 1399TIP3   OH225687   4.881   2.327   1.056 -0.3858 -0.6164  0.3616
 1399TIP3    H125688   4.960   2.380   1.064 -0.2544 -0.5969 -0.8674
 1399TIP3    H225689   4.837   2.336   1.140 -1.6172  3.4283 -0.5116
 1400TIP3   OH225690   5.146   5.068   4.365  0.2790  0.3730 -0.3311
 1400TIP3    H125691   5.058   5.035   4.384  0.7700  0.0634  1.6038
 1400TIP3    H225692   5.196   5.048   4.444  2.4003 -0.5046 -1.8173
 1401TIP3   OH225693   3.298   0.968  11.969 -0.2902 -0.6040 -0.2540
 1401TIP3    H125694   3.296   1.005  11.881 -0.2112  1.7944  0.6753
 1401TIP3    H225695   3.210   0.982  12.003  0.3378  0.8737  0.8968
 1402TIP3   OH225696   4.722   1.869   1.216 -0.1304  0.2252 -0.3881
 1402TIP3    H125697   4.764   1.822   1.144  2.0580  0.5056  0.6198
 1402TIP3    H225698   4.765   1.954   1.217 -2.3360  1.3973 -0.6520
 1403TIP3   OH225699   1.213   2.425   6.645 -0.0259  0.1078  0.8212
 1403TIP3    H125700   1.289   2.387   6.602 -0.2537  0.3592  0.1866
 1403TIP3    H225701   1.172   2.480   6.578  0.6908  2.0596  1.9026
 1404TIP3   OH225702   1.611   1.850   0.502  0.1559  0.6511  0.0977
 1404TIP3    H125703   1.596   1.919   0.566  2.1553  1.5811 -0.3734
 1404TIP3    H225704   1.695   1.871   0.462  0.5409 -1.7198 -0.5148
 1405TIP3   OH225705   5.397   3.044   3.470 -0.1558  0.1332  0.2035
 1405TIP3    H125706   5.482   2.999   3.472 -0.2352 -0.0124  0.4629
 1405TIP3    H225707   5.418   3.135   3.453  0.0834  0.1603  0.6384
 1406TIP3   OH225708   4.758   1.230   5.508 -0.1260 -0.2792 -0.3154
 1406TIP3    H125709   4.777   1.150   5.556 -1.3393  0.2707  1.1390
 1406TIP3    H225710   4.843   1.258   5.473  0.7685 -0.8348  1.3300
 1407TIP3   OH225711   6.403   4.308   5.643 -0.5078  0.3048 -0.3582
 1407TIP3    H125712   6.395   4.213   5.629  0.2171  0.0874  0.5776
 1407TIP3    H225713   6.318   4.334   5.676 -1.8672  0.6240 -3.7626
 1408TIP3   OH225714   4.462   0.201   2.604  0.5717  0.2931 -0.1382
 1408TIP3    H125715   4.506   0.255   2.538  0.2927  1.2974  0.4751
 1408TIP3    H225716   4.531   0.183   2.669  1.4115 -2.4089 -1.6424
 1409TIP3   OH225717   2.508   2.881  16.861 -0.2462  0.1127 -0.7365
 1409TIP3    H125718   2.518   2.976  16.857  0.9124  0.3161  3.1822
 1409TIP3    H225719   2.573   2.847  16.799  0.0006  1.8514 -1.4668
 1410TIP3   OH225720   1.144   0.779  11.837  0.0294 -0.2726 -0.0079
 1410TIP3    H125721   1.075   0.828  11.792 -0.6057 -1.1659 -0.0398
 1410TIP3    H225722   1.170   0.836  11.910 -0.6990  0.1053 -0.0309
 1411TIP3   OH225723   6.461   2.172  11.441 -0.0119  0.4690 -0.1382
 1411TIP3    H125724   6.546   2.156  11.400  1.0824  0.6082  1.9682
 1411TIP3    H225725   6.460   2.266  11.458  0.0486  0.2641  1.1078
 1412TIP3   OH225726   5.262   2.829   0.936  0.0158 -0.9311 -0.0573
 1412TIP3    H125727   5.278   2.772   0.861 -0.5430 -1.7107  0.3929
 1412TIP3    H225728   5.187   2.883   0.910  0.0158 -0.9915 -0.1812
 1413TIP3   OH225729   3.495   5.202  16.112  0.0048 -0.5366 -0.2301
 1413TIP3    H125730   3.422   5.197  16.051 -0.1593 -3.0952  0.0752
 1413TIP3    H225731   3.565   5.245  16.062 -1.7502  2.4807 -0.3392
 1414TIP3   OH225732   3.429   6.563  14.745  0.3946 -0.5886  0.6275
 1414TIP3    H125733   3.395   6.510  14.673 -2.4189  0.6834  0.8725
 1414TIP3    H225734   3.483   6.630  14.703 -0.9634 -0.0466 -0.3106
 1415TIP3   OH225735   4.366   6.269  12.064 -0.3135 -0.2708  0.3927
 1415TIP3    H125736   4.429   6.295  11.997 -1.2986  1.3749  0.0483
 1415TIP3    H225737   4.388   6.324  12.139 -0.1042 -1.1064  0.9567
 1416TIP3   OH225738   2.740   4.278   4.952  0.0865  0.0095  0.2467
 1416TIP3    H125739   2.704   4.357   4.911  0.6159  0.3677  0.4541
 1416TIP3    H225740   2.663   4.226   4.975 -0.2606  0.3507 -0.1149
 1417TIP3   OH225741   4.502   4.905  11.816  0.4227  0.0952 -0.3465
 1417TIP3    H125742   4.432   4.932  11.876  1.9105  2.5558  0.4576
 1417TIP3    H225743   4.581   4.903  11.870  0.9642 -3.3635 -1.0560
 1418TIP3   OH225744   2.764   3.169  14.271 -0.0393 -0.0218  0.4290
 1418TIP3    H125745   2.693   3.167  14.207  0.4069  0.5909 -0.0949
 1418TIP3    H225746   2.844   3.163  14.218  0.3002 -2.3214  1.0777
 1419TIP3   OH225747   5.175   3.227  13.492  0.3384 -0.7489  0.4008
 1419TIP3    H125748   5.084   3.223  13.523  0.5091  0.5017  1.1562
 1419TIP3    H225749   5.171   3.194  13.402 -1.0342  0.1856  0.0798
 1420TIP3   OH225750   2.928   3.745  17.015  0.3578  0.1694  0.8670
 1420TIP3    H125751   2.976   3.709  17.089 -1.5060 -0.9639  1.6177
 1420TIP3    H225752   2.872   3.812  17.053 -1.5108 -1.2463  0.7956
 1421TIP3   OH225753   6.294   5.254   4.688 -0.4869 -0.2755 -0.5017
 1421TIP3    H125754   6.202   5.267   4.711 -1.0176 -0.3166 -2.4156
 1421TIP3    H225755   6.339   5.329   4.728 -1.2563 -0.4778  0.8157
 1422TIP3   OH225756   5.091   2.443   0.642  0.6052 -0.4330 -0.3626
 1422TIP3    H125757   5.060   2.359   0.674  1.9142 -1.5692 -1.9238
 1422TIP3    H225758   5.037   2.462   0.566  1.3955 -0.7165 -1.0126
 1423TIP3   OH225759   4.305   1.372  13.764 -0.6845 -0.4682 -0.0246
 1423TIP3    H125760   4.354   1.295  13.735 -1.1641 -1.4788  1.7102
 1423TIP3    H225761   4.270   1.410  13.683 -0.5449 -2.1446 -0.9182
 1424TIP3   OH225762   4.204   6.584   0.702  0.4551  0.3992 -0.4911
 1424TIP3    H125763   4.167   6.528   0.771 -0.2286  0.7454 -0.5618
 1424TIP3    H225764   4.169   6.547   0.621 -1.4892  1.9545 -0.4435
 1425TIP3   OH225765   2.934   2.092  14.076 -0.5241 -0.4907 -0.5466
 1425TIP3    H125766   2.905   2.111  13.987 -0.0568 -0.2284 -0.6492
 1425TIP3    H225767   2.896   2.007  14.096 -0.3004 -0.7377 -1.1491
 1426TIP3   OH225768   2.665   1.794   2.318  1.0685 -0.0253  0.3141
 1426TIP3    H125769   2.591   1.853   2.336  2.2831  1.3468  1.0438
 1426TIP3    H225770   2.629   1.706   2.330 -0.2966  0.6196  1.2592
 1427TIP3   OH225771   4.215   5.845   3.954  0.2857  0.6647  0.5211
 1427TIP3    H125772   4.124   5.815   3.962  0.3313 -0.2748 -1.6810
 1427TIP3    H225773   4.208   5.940   3.948 -0.3794  0.7410  1.9821
 1428TIP3   OH225774   0.779   2.033  13.019 -0.3814  0.3337 -0.0479
 1428TIP3    H125775   0.788   2.113  12.966  2.5249  0.3194  0.2889
 1428TIP3    H225776   0.794   1.962  12.957  2.2149  0.2902  0.5431
 1429TIP3   OH225777   5.275   1.871  15.894  0.6561 -0.0800  0.0568
 1429TIP3    H125778   5.328   1.950  15.886 -1.3199  1.2839 -0.4340
 1429TIP3    H225779   5.307   1.813  15.825  0.2988  1.4798 -1.4944
 1430TIP3   OH225780   0.355   6.275  15.854 -0.5619 -0.1063 -0.3504
 1430TIP3    H125781   0.295   6.314  15.790 -0.9767  0.8982  0.6185
 1430TIP3    H225782   0.442   6.297  15.821 -0.7271 -0.7852 -1.2831
 1431TIP3   OH225783   2.094   0.370   4.192 -1.1349 -0.1102  0.2553
 1431TIP3    H125784   2.018   0.373   4.250 -1.8556  0.7007 -0.7052
 1431TIP3    H225785   2.071   0.426   4.118  0.9214  1.2304  0.5429
 1432TIP3   OH225786   5.562   2.251  13.166 -0.0863 -0.2841  0.2897
 1432TIP3    H125787   5.491   2.224  13.224  0.0786 -2.5946 -0.4535
 1432TIP3    H225788   5.632   2.189  13.184  0.1230 -0.8070 -2.0180
 1433TIP3   OH225789   1.840   2.776  12.805  0.2957  0.4503 -0.2773
 1433TIP3    H125790   1.907   2.717  12.839 -0.2359 -0.0261 -0.0373
 1433TIP3    H225791   1.864   2.789  12.713  0.7300  0.3068 -0.1867
 1434TIP3   OH225792   0.739   0.289   1.667  0.1099 -0.3033 -0.3483
 1434TIP3    H125793   0.823   0.292   1.712 -0.7400  0.1499  1.2826
 1434TIP3    H225794   0.690   0.364   1.701 -0.4368  0.3500 -2.3976
 1435TIP3   OH225795   2.115   0.447  15.550  0.4526 -0.2091 -0.2395
 1435TIP3    H125796   2.155   0.361  15.547  1.2441  0.1714 -1.1241
 1435TIP3    H225797   2.063   0.447  15.630  1.2445 -1.1457  0.2846
 1436TIP3   OH225798   4.537   0.089  15.994 -0.9386 -0.0493  0.3601
 1436TIP3    H125799   4.553   0.086  15.900 -1.4306  1.5148  0.1861
 1436TIP3    H225800   4.624   0.079  16.034 -0.6813 -0.3636 -0.2733
 1437TIP3   OH225801   1.366   1.334   4.024  0.4043  0.0848  0.0492
 1437TIP3    H125802   1.344   1.375   4.107  3.7722 -0.0842  1.1631
 1437TIP3    H225803   1.457   1.359   4.007 -0.2144  0.4204 -3.8206
 1438TIP3   OH225804   2.385   4.247   5.186  0.9367  0.6124  0.2090
 1438TIP3    H125805   2.404   4.196   5.265  0.7753 -0.0465 -0.1675
 1438TIP3    H225806   2.447   4.213   5.121  1.4847  1.5738  0.2140
 1439TIP3   OH225807   1.952   3.918  13.797 -0.2348  0.3959 -0.0610
 1439TIP3    H125808   1.879   3.976  13.819 -1.8543 -0.7939 -1.9724
 1439TIP3    H225809   1.959   3.924  13.701  1.3159 -0.5461 -0.0362
 1440TIP3   OH225810   0.332   6.362   2.005  0.7293 -0.3394  0.1462
 1440TIP3    H125811   0.290   6.430   2.058  1.3760 -0.4247  0.7640
 1440TIP3    H225812   0.303   6.382   1.915 -2.1719 -1.4849  0.7073
 1441TIP3   OH225813   3.030   2.915   4.437  0.5039 -0.3233 -0.2058
 1441TIP3    H125814   3.036   3.004   4.401 -1.1087  0.3882  1.1476
 1441TIP3    H225815   2.974   2.868   4.375 -0.6973  0.3588  0.3142
 1442TIP3   OH225816   1.745   2.635   0.899 -0.0528 -0.2090  0.5883
 1442TIP3    H125817   1.722   2.660   0.988  0.4470  0.0155  0.6586
 1442TIP3    H225818   1.666   2.593   0.864 -0.6531  0.7668  0.7332
 1443TIP3   OH225819   0.733   1.965  14.777  0.0791 -0.6067  0.1049
 1443TIP3    H125820   0.814   1.952  14.729 -0.7267 -2.4042 -0.8792
 1443TIP3    H225821   0.759   1.963  14.869  1.1696 -1.0032 -0.1943
 1444TIP3   OH225822   4.737   5.293  11.926  0.6299  0.5178  0.0724
 1444TIP3    H125823   4.664   5.272  11.984  1.2363  0.6017  0.8819
 1444TIP3    H225824   4.805   5.229  11.949  1.1461  1.0237 -0.0292
 1445TIP3   OH225825   2.809   1.223   5.779 -0.2212  0.0001  0.4903
 1445TIP3    H125826   2.793   1.303   5.829 -0.6083  0.0024  0.3706
 1445TIP3    H225827   2.759   1.156   5.824 -0.2172 -0.0902  0.3627
 1446TIP3   OH225828   0.082   0.862  14.341 -0.2861 -0.0226 -0.2967
 1446TIP3    H125829   0.020   0.814  14.396  0.2173 -1.5363 -0.9829
 1446TIP3    H225830   0.151   0.890  14.401  0.7385 -2.4724 -0.1899
 1447TIP3   OH225831   2.400   2.993  15.057 -0.2818  0.1902  0.4882
 1447TIP3    H125832   2.455   3.070  15.041 -0.9070  0.6679  0.5900
 1447TIP3    H225833   2.335   3.023  15.121  0.0391 -0.6894  1.2461
 1448TIP3   OH225834   5.756   0.018  15.825 -0.5815  0.2152 -0.1207
 1448TIP3    H125835   5.722  -0.062  15.783 -1.9741  0.3518  0.6977
 1448TIP3    H225836   5.701   0.030  15.902  1.9005 -0.0512  1.8616
 1449TIP3   OH225837   2.041   3.927   6.191  0.6397  0.3232  0.2416
 1449TIP3    H125838   2.057   3.848   6.139  0.2482  0.5477 -0.2291
 1449TIP3    H225839   1.948   3.923   6.212  0.8689  0.0360  1.2712
 1450TIP3   OH225840   0.260   3.982  17.139  0.2472  0.6065 -0.5238
 1450TIP3    H125841   0.241   4.055  17.198  0.1986 -0.3502  0.6842
 1450TIP3    H225842   0.178   3.933  17.135  0.3893  0.4007 -1.0306
 1451TIP3   OH225843   2.696   6.656  17.329 -0.3661  0.0759 -0.2707
 1451TIP3    H125844   2.607   6.622  17.336  0.0986 -1.2329 -0.3734
 1451TIP3    H225845   2.700   6.697  17.243 -1.8288  3.2390  0.9999
 1452TIP3   OH225846   1.593   5.629   2.832 -0.3798 -0.5911 -0.0134
 1452TIP3    H125847   1.585   5.579   2.751  0.3039 -0.3146 -0.2619
 1452TIP3    H225848   1.504   5.659   2.851 -0.7279 -1.5877 -0.0606
 1453TIP3   OH225849   5.871   0.445  14.338 -0.2726  0.2357  0.2843
 1453TIP3    H125850   5.900   0.502  14.410  0.7786 -0.0274  0.0840
 1453TIP3    H225851   5.780   0.472  14.321  0.3911  2.3363 -0.2662
 1454TIP3   OH225852   5.704   0.499   3.816  0.3755  0.4792 -0.5208
 1454TIP3    H125853   5.731   0.419   3.861  0.6531  0.2654 -1.0512
 1454TIP3    H225854   5.627   0.474   3.764 -0.2142  0.8318  0.1711
 1455TIP3   OH225855   3.265   2.928   4.225 -0.0304  0.1657  0.8812
 1455TIP3    H125856   3.284   2.871   4.299  0.8737 -1.2500 -0.4039
 1455TIP3    H225857   3.198   2.988   4.258  0.3370 -0.4344  2.8243
 1456TIP3   OH225858   4.137   3.656  14.082  0.3914 -0.0120  0.2050
 1456TIP3    H125859   4.158   3.626  13.994 -2.0321 -0.8667 -0.1560
 1456TIP3    H225860   4.212   3.628  14.135  1.2610 -0.7071 -1.3195
 1457TIP3   OH225861   6.187   3.827   3.929  0.2477 -0.0863  0.2270
 1457TIP3    H125862   6.102   3.819   3.887 -0.1165  1.0246  0.6992
 1457TIP3    H225863   6.190   3.917   3.961  0.7908 -0.6462  1.9230
 1458TIP3   OH225864   4.276   0.621  14.564  0.2894 -0.5245 -0.5751
 1458TIP3    H125865   4.287   0.526  14.569 -1.0439 -0.7473 -1.3828
 1458TIP3    H225866   4.258   0.647  14.655 -1.3352 -1.3416 -0.6304
 1459TIP3   OH225867   4.407   4.798   1.234  0.2941 -0.2292  0.1752
 1459TIP3    H125868   4.327   4.850   1.246 -0.4048 -1.1284 -0.4474
 1459TIP3    H225869   4.420   4.796   1.139  0.6567 -0.6772  0.2318
 1460TIP3   OH225870   2.055   2.505   4.449 -0.1905 -0.6402  0.3560
 1460TIP3    H125871   2.118   2.439   4.419 -1.1790 -1.1000 -0.8302
 1460TIP3    H225872   2.108   2.580   4.474  0.7566  0.1092 -3.3715
 1461TIP3   OH225873   0.890   1.848   3.614 -0.0835 -0.1211 -0.8102
 1461TIP3    H125874   0.896   1.754   3.594  1.7269 -0.0076 -1.0012
 1461TIP3    H225875   0.981   1.879   3.610 -0.6936  1.7591 -1.3018
 1462TIP3   OH225876   5.276   3.094  15.039  0.1869  0.1388  0.2268
 1462TIP3    H125877   5.284   3.048  15.122  1.3033  1.5369  0.9484
 1462TIP3    H225878   5.365   3.125  15.020 -0.6954  3.2009  0.5727
 1463TIP3   OH225879   0.843   0.130  16.582  0.2037  0.3032 -0.5809
 1463TIP3    H125880   0.792   0.108  16.504 -0.2659 -0.3107 -0.1169
 1463TIP3    H225881   0.848   0.226  16.582 -1.2365  0.4046 -0.4803
 1464TIP3   OH225882   3.785   4.850   3.652  0.0112  0.2894 -0.4390
 1464TIP3    H125883   3.737   4.770   3.673  0.7508 -0.0692 -0.0835
 1464TIP3    H225884   3.732   4.920   3.689  0.9418 -0.2637  2.2034
 1465TIP3   OH225885   0.444   2.596   0.522 -0.3514 -0.0694 -1.1300
 1465TIP3    H125886   0.465   2.689   0.518  3.4225 -0.6650  0.4496
 1465TIP3    H225887   0.504   2.556   0.459  3.3623 -1.8740  3.0176
 1466TIP3   OH225888   0.973   6.021   6.645  0.0328  0.1387 -0.0840
 1466TIP3    H125889   0.988   6.110   6.613  2.0705 -0.4486 -0.9173
 1466TIP3    H225890   0.998   6.024   6.738 -1.2580  0.7271  0.2656
 1467TIP3   OH225891   1.866   2.579  16.756  0.2479  0.2580  0.6627
 1467TIP3    H125892   1.819   2.530  16.689  0.7955 -0.9534  1.1399
 1467TIP3    H225893   1.935   2.625  16.708  0.6763 -0.6505  0.3859
 1468TIP3   OH225894   4.324   1.968  13.417 -0.0024 -0.7227 -0.5616
 1468TIP3    H125895   4.391   2.007  13.474  0.5113 -1.4621 -0.6406
 1468TIP3    H225896   4.328   2.018  13.336  1.1498 -1.3704 -0.9263
 1469TIP3   OH225897   3.241   2.805   8.355 -0.0422  0.1005  0.1889
 1469TIP3    H125898   3.216   2.786   8.264 -0.2904 -0.3933  0.3579
 1469TIP3    H225899   3.179   2.873   8.382 -0.5169 -0.3584  0.2612
 1470TIP3   OH225900   4.251   2.942  10.470 -0.5869  0.2348  0.9131
 1470TIP3    H125901   4.184   2.880  10.441 -1.1606  0.0566  2.5444
 1470TIP3    H225902   4.281   2.984  10.389 -3.0006  0.6978  0.1919
 1471TIP3   OH225903   2.610   2.902   0.410 -0.4881 -0.4933 -0.3610
 1471TIP3    H125904   2.550   2.958   0.360 -0.8881  0.2801  0.9471
 1471TIP3    H225905   2.589   2.919   0.502  0.8887 -1.1452  0.1128
 1472TIP3   OH225906   4.723   1.817  15.303  0.1800  0.2495 -0.1841
 1472TIP3    H125907   4.756   1.820  15.213  0.7017 -0.2050 -0.0196
 1472TIP3    H225908   4.647   1.875  15.304 -0.4471 -0.5153 -1.1728
 1473TIP3   OH225909   4.871   2.255  16.990 -0.5722  0.1937 -0.4110
 1473TIP3    H125910   4.844   2.163  16.994  0.1389  0.0303  1.4660
 1473TIP3    H225911   4.821   2.291  16.916 -1.9130 -1.3569 -0.3255
 1474TIP3   OH225912   2.283   0.745   1.849  0.1785 -0.7673  0.0087
 1474TIP3    H125913   2.188   0.737   1.852  0.0413  0.6676  0.5192
 1474TIP3    H225914   2.301   0.795   1.769  0.0329  3.2475  2.2054
 1475TIP3   OH225915   5.664   1.564  15.269  0.5865 -0.4549 -0.5239
 1475TIP3    H125916   5.620   1.482  15.245 -1.1411  0.5754 -0.9861
 1475TIP3    H225917   5.704   1.545  15.354 -2.8713 -0.7445  1.1931
 1476TIP3   OH225918   3.959   4.958   0.653 -0.3212  0.3093 -0.4048
 1476TIP3    H125919   3.956   5.049   0.685 -0.6842  1.0965 -2.5593
 1476TIP3    H225920   3.988   4.965   0.562  1.7930 -1.9316 -0.0289
 1477TIP3   OH225921   1.519   4.038   0.020 -0.2528  0.0226 -0.3757
 1477TIP3    H125922   1.451   4.026   0.086  0.6619  1.2820  0.8368
 1477TIP3    H225923   1.590   3.980   0.048  1.0345  2.1602  1.0929
 1478TIP3   OH225924   4.702   3.387  13.401  0.1364  0.2627  0.4203
 1478TIP3    H125925   4.774   3.445  13.377  0.5492 -0.8206 -1.1592
 1478TIP3    H225926   4.741   3.299  13.401 -0.9752 -0.2526  0.3955
 1479TIP3   OH225927   5.973   1.909   3.825  0.4098 -0.4122 -0.4144
 1479TIP3    H125928   5.894   1.866   3.792  0.7628  0.3750 -2.4377
 1479TIP3    H225929   6.016   1.843   3.880 -2.4974 -0.2843  2.2878
 1480TIP3   OH225930   3.983   6.760   0.703 -0.1958 -0.3633  0.0860
 1480TIP3    H125931   4.050   6.696   0.727  0.9037  1.4172  2.1481
 1480TIP3    H225932   3.948   6.728   0.620  1.1441 -2.9299  0.4029
 1481TIP3   OH225933   2.657   1.318  16.956 -0.5856  0.0109  0.7117
 1481TIP3    H125934   2.661   1.247  16.893 -0.1051  0.2354  0.4820
 1481TIP3    H225935   2.565   1.342  16.960 -0.7931 -0.8192  1.0170
 1482TIP3   OH225936   1.281   1.086  12.363  0.5144  0.6787 -0.0342
 1482TIP3    H125937   1.346   1.015  12.366  1.7333  1.7484  1.9660
 1482TIP3    H225938   1.327   1.161  12.401 -1.2612  2.0870 -0.5277
 1483TIP3   OH225939   2.301   2.477   2.652  0.0494 -0.0162 -0.1249
 1483TIP3    H125940   2.267   2.535   2.583  0.3453  0.3035 -0.0048
 1483TIP3    H225941   2.380   2.439   2.615  0.9866  1.2303  0.5408
 1484TIP3   OH225942   6.327   0.928  11.816  0.2377 -0.2164  0.0375
 1484TIP3    H125943   6.416   0.894  11.810  0.1939 -0.2884 -0.2317
 1484TIP3    H225944   6.274   0.853  11.841  0.4712  0.1569  1.7569
 1485TIP3   OH225945   5.166   4.164   3.876  0.3353 -0.1221 -0.3566
 1485TIP3    H125946   5.091   4.147   3.819  0.2415 -2.1874  0.3206
 1485TIP3    H225947   5.225   4.218   3.822 -1.6485  1.7109 -0.8349
 1486TIP3   OH225948   1.903   6.236  16.117 -0.3016  0.3091 -0.4087
 1486TIP3    H125949   1.838   6.201  16.179 -2.7343  1.5961 -2.0406
 1486TIP3    H225950   1.920   6.163  16.058  1.1983 -0.5865  1.0337
 1487TIP3   OH225951   0.492   1.746   1.086  0.0854  0.4472 -0.1578
 1487TIP3    H125952   0.461   1.801   1.158  0.2866 -1.3372  1.3581
 1487TIP3    H225953   0.413   1.719   1.041 -0.2482 -0.2890  0.8339
 1488TIP3   OH225954   2.329   3.179  14.093  0.2489 -0.0692 -0.5050
 1488TIP3    H125955   2.281   3.153  14.172 -0.3174  1.2566 -0.3781
 1488TIP3    H225956   2.286   3.132  14.022 -0.5873  0.3045 -0.2572
 1489TIP3   OH225957   2.611   6.300   4.688 -0.2451  0.3017  0.0147
 1489TIP3    H125958   2.551   6.368   4.719  0.8866  2.3988 -2.1078
 1489TIP3    H225959   2.585   6.283   4.598  0.6109 -0.8161 -0.0476
 1490TIP3   OH225960   0.293   5.603  11.965 -0.1474 -0.4211 -0.2195
 1490TIP3    H125961   0.332   5.678  12.010 -0.7593 -0.1570 -0.1225
 1490TIP3    H225962   0.344   5.593  11.885  0.6137 -0.5627  0.2738
 1491TIP3   OH225963   3.896   5.456  16.243 -0.3381  0.4034  0.1700
 1491TIP3    H125964   3.897   5.551  16.245 -0.3903  0.4079 -0.0260
 1491TIP3    H225965   3.986   5.431  16.266 -0.3913  0.4932  0.4817
 1492TIP3   OH225966   3.394   6.744   1.638  0.1925 -0.3111  0.3631
 1492TIP3    H125967   3.316   6.769   1.689  0.4302  1.0769  0.0814
 1492TIP3    H225968   3.380   6.651   1.618 -0.5945 -0.5196  1.7190
 1493TIP3   OH225969   6.657   4.180  11.645  0.1643  0.4354  0.2863
 1493TIP3    H125970   6.720   4.244  11.679  2.0105 -0.1721 -1.7848
 1493TIP3    H225971   6.641   4.122  11.719  1.4145  1.0916  1.1254
 1494TIP3   OH225972   2.303   1.326  16.251  0.5600 -0.4702  0.4844
 1494TIP3    H125973   2.213   1.356  16.233  0.9306  0.8955  0.7723
 1494TIP3    H225974   2.308   1.324  16.346  1.0986  0.3207  0.4772
 1495TIP3   OH225975   0.289   6.261   0.252  0.2125  0.2385 -0.3628
 1495TIP3    H125976   0.239   6.225   0.179 -0.2026  1.0154 -0.4729
 1495TIP3    H225977   0.278   6.198   0.323  0.0578 -0.1825 -0.7635
 1496TIP3   OH225978   2.292   5.848   4.884  0.4349  0.2064 -0.0336
 1496TIP3    H125979   2.312   5.803   4.802 -1.5140 -1.1140  0.1411
 1496TIP3    H225980   2.296   5.941   4.862  2.2765 -0.0573 -0.9964
 1497TIP3   OH225981   2.198   4.206   3.568 -0.3945 -0.5061 -0.7702
 1497TIP3    H125982   2.155   4.201   3.482  2.6526 -0.0801 -2.4742
 1497TIP3    H225983   2.194   4.117   3.602  0.7795 -1.3916 -2.7313
 1498TIP3   OH225984   1.523   5.294  11.009  0.1595 -0.7161  0.0525
 1498TIP3    H125985   1.552   5.262  10.924 -0.3873 -2.5969  0.5296
 1498TIP3    H225986   1.578   5.371  11.025  3.1633 -2.5997 -0.2499
 1499TIP3   OH225987   0.516   0.386   1.357  0.1593  0.0863  0.4256
 1499TIP3    H125988   0.609   0.385   1.379  0.3141 -0.1680 -0.1933
 1499TIP3    H225989   0.515   0.387   1.261 -0.4741  0.1003  0.4301
 1500TIP3   OH225990   4.659   5.940  17.076 -0.6102 -0.4117 -0.1050
 1500TIP3    H125991   4.652   5.995  16.999 -1.5839 -1.2183 -0.6017
 1500TIP3    H225992   4.569   5.924  17.103 -0.3176 -1.1693  0.4537
 1501TIP3   OH225993   4.106   0.803  12.040 -0.4824 -0.0814  0.6256
 1501TIP3    H125994   4.052   0.779  12.115  0.2485 -0.3744  1.0610
 1501TIP3    H225995   4.165   0.871  12.073 -1.7545  1.5424 -0.3014
 1502TIP3   OH225996   4.988   4.506   4.692 -0.6111 -0.4768  0.3184
 1502TIP3    H125997   4.963   4.502   4.784 -1.9552 -1.0185 -0.0596
 1502TIP3    H225998   4.930   4.573   4.654  1.4462  1.4258  0.2996
 1503TIP3   OH225999   4.224   6.370  14.612  0.0468  0.5693  0.3693
 1503TIP3    H126000   4.138   6.394  14.578  1.0843  1.3356 -1.9601
 1503TIP3    H226001   4.208   6.338  14.701 -2.9455 -1.5884 -0.8010
 1504TIP3   OH226002   6.268   2.352   5.551 -0.5534 -0.0798  0.3130
 1504TIP3    H126003   6.337   2.364   5.485 -1.4491 -2.1216 -1.1040
 1504TIP3    H226004   6.290   2.271   5.596 -0.7760  0.5020  1.5135
 1505TIP3   OH226005   2.803   3.115   4.983 -0.3014  0.1382 -0.1234
 1505TIP3    H126006   2.764   3.068   4.909  2.1860 -1.3781 -0.5666
 1505TIP3    H226007   2.783   3.060   5.059  0.9898 -0.7039 -0.3685
 1506TIP3   OH226008   2.471   2.465   4.147  0.4548  0.0018  0.3764
 1506TIP3    H126009   2.468   2.373   4.173 -1.9507 -0.4391 -1.2085
 1506TIP3    H226010   2.438   2.466   4.057 -0.5583  2.5170  0.7008
 1507TIP3   OH226011   5.198   3.094   0.222  0.0808 -0.2149  0.3211
 1507TIP3    H126012   5.196   3.042   0.141  0.2624 -0.6633  0.5986
 1507TIP3    H226013   5.206   3.029   0.291  2.6700  0.2653  0.5585
 1508TIP3   OH226014   2.438   1.294   3.536 -0.1603  0.0014  0.2787
 1508TIP3    H126015   2.379   1.224   3.509  0.3810 -0.7544  1.0007
 1508TIP3    H226016   2.493   1.254   3.604  0.0435  1.1829  0.8267
 1509TIP3   OH226017   2.323   3.264  17.149  0.3031  0.6363  0.3908
 1509TIP3    H126018   2.408   3.303  17.129  0.3615  0.8945  1.1195
 1509TIP3    H226019   2.341   3.170  17.158  0.3929  0.6057 -0.0892
 1510TIP3   OH226020   4.271   5.912  15.126 -0.1291  0.1049  0.0025
 1510TIP3    H126021   4.281   5.817  15.122  0.2891  0.1755 -3.2338
 1510TIP3    H226022   4.176   5.926  15.124 -0.1768 -0.2747 -1.8844
 1511TIP3   OH226023   2.239   5.863  16.158  0.2780 -0.3478 -0.2823
 1511TIP3    H126024   2.312   5.884  16.100  1.1897 -0.2355  0.8720
 1511TIP3    H226025   2.269   5.787  16.207 -0.2005 -0.0279  0.5208
 1512TIP3   OH226026   5.930   0.494  15.880 -0.2211  0.2630  0.8601
 1512TIP3    H126027   5.884   0.573  15.852  0.2061  0.4422  0.6545
 1512TIP3    H226028   5.922   0.495  15.976  0.2648  0.8589  0.8999
 1513TIP3   OH226029   4.859   1.103  16.411  0.1424  0.0941 -0.0025
 1513TIP3    H126030   4.844   1.192  16.443  0.0341 -0.1617  0.6806
 1513TIP3    H226031   4.954   1.090  16.421  0.0947 -0.0202  0.3171
 1514TIP3   OH226032   6.235   0.741   3.224 -0.2999  0.2242  0.3232
 1514TIP3    H126033   6.167   0.733   3.290 -2.3427  0.2773 -1.6635
 1514TIP3    H226034   6.216   0.672   3.161 -0.1106  1.8162 -1.5918
 1515TIP3   OH226035   3.788   3.835   6.611  0.1772 -0.8553  0.1933
 1515TIP3    H126036   3.771   3.870   6.523 -1.7207 -0.8914  0.4959
 1515TIP3    H226037   3.845   3.899   6.652 -1.4707  0.8050 -0.0068
 1516TIP3   OH226038   5.202   3.998  17.073 -0.6341 -0.6127 -1.0948
 1516TIP3    H126039   5.137   3.980  17.141  1.8196 -2.2991  0.9843
 1516TIP3    H226040   5.188   3.930  17.008 -0.6527 -1.2621 -0.4190
 1517TIP3   OH226041   4.072   3.041   4.416  0.2317 -0.2427  0.0247
 1517TIP3    H126042   4.072   2.955   4.375  1.6564 -1.9496  3.2216
 1517TIP3    H226043   3.997   3.040   4.475  1.6752 -0.4015  1.9679
 1518TIP3   OH226044   1.012   4.392  11.293 -0.2424  0.1352  0.1073
 1518TIP3    H126045   1.086   4.398  11.353  0.4344  1.4144 -0.7879
 1518TIP3    H226046   1.036   4.323  11.231 -0.3011 -0.2057  0.4638
 1519TIP3   OH226047   0.259   5.633  11.294 -0.2198 -0.3700 -0.3700
 1519TIP3    H126048   0.254   5.693  11.220 -1.0267  1.3244  0.9775
 1519TIP3    H226049   0.244   5.546  11.256  0.5912  0.2931 -2.3237
 1520TIP3   OH226050   1.611   0.699   5.146  0.8170  0.1730 -0.0890
 1520TIP3    H126051   1.568   0.705   5.231  1.7647 -1.5301  0.5579
 1520TIP3    H226052   1.687   0.757   5.153  0.5059  0.5833 -0.0497
 1521TIP3   OH226053   2.874   5.372   6.232 -0.3264 -0.6544 -0.1393
 1521TIP3    H126054   2.817   5.307   6.191 -2.3025 -0.4557  2.0899
 1521TIP3    H226055   2.940   5.320   6.278  1.2377 -0.8920 -2.4898
 1522TIP3   OH226056   2.258   1.344  11.812 -0.1275  0.8540  0.0735
 1522TIP3    H126057   2.283   1.431  11.780 -0.5813  1.8995  2.3675
 1522TIP3    H226058   2.339   1.305  11.844 -0.1273  0.9425  0.1795
 1523TIP3   OH226059   3.100   2.046  14.336  0.4854 -0.3799  0.1993
 1523TIP3    H126060   3.122   2.045  14.243  3.3490  1.2482  0.7442
 1523TIP3    H226061   3.009   2.016  14.339  0.0572  0.1554 -3.1573
 1524TIP3   OH226062   3.675   1.424   1.183  0.0905 -0.2850  0.0028
 1524TIP3    H126063   3.595   1.380   1.154  0.4268 -1.4779  0.7831
 1524TIP3    H226064   3.660   1.443   1.276 -0.3725  2.0834 -0.4999
 1525TIP3   OH226065   0.068   2.829   6.084  0.3329  0.0582 -0.0409
 1525TIP3    H126066   0.155   2.859   6.114  0.0396 -0.4915  1.4359
 1525TIP3    H226067   0.010   2.850   6.157 -0.9200  0.9731 -1.2531
 1526TIP3   OH226068   1.702   2.537  12.022  0.1305 -0.2537 -0.2968
 1526TIP3    H126069   1.643   2.607  11.994  0.8049  0.1307 -0.7920
 1526TIP3    H226070   1.689   2.468  11.956  1.2527  0.3977 -1.2329
 1527TIP3   OH226071   6.456   1.746   3.714  0.0336 -0.0271  0.6107
 1527TIP3    H126072   6.426   1.683   3.648  1.8040 -0.0941 -0.1841
 1527TIP3    H226073   6.488   1.692   3.786 -1.5799  0.0447  1.4345
 1528TIP3   OH226074   0.861   5.442   1.684 -0.1916 -0.1400  0.1938
 1528TIP3    H126075   0.848   5.377   1.753  2.9116 -0.1421  0.9483
 1528TIP3    H226076   0.800   5.513   1.705 -0.1547 -0.6629  2.2748
 1529TIP3   OH226077   2.383   5.336  11.565 -0.1541 -0.2083 -0.4975
 1529TIP3    H126078   2.311   5.275  11.547  0.5744 -1.5127  0.8153
 1529TIP3    H226079   2.458   5.297  11.520  0.4003 -0.5017  0.6620
 1530TIP3   OH226080   6.322   2.178  15.181  0.2609  0.7659  0.3874
 1530TIP3    H126081   6.267   2.163  15.258  1.4190  1.3096  1.3466
 1530TIP3    H226082   6.411   2.169  15.213  0.7639 -0.2928 -1.1819
 1531TIP3   OH226083   1.557   4.747   1.146 -0.5247 -0.3439  0.0388
 1531TIP3    H126084   1.527   4.735   1.236 -0.1082 -0.4445  0.1637
 1531TIP3    H226085   1.478   4.735   1.093 -0.7739 -0.2651  0.3899
 1532TIP3   OH226086   5.989   2.511  12.023 -0.0359  0.2581  0.2674
 1532TIP3    H126087   5.921   2.454  12.058 -0.1257 -0.2566 -0.7117
 1532TIP3    H226088   6.037   2.456  11.960 -0.3336  1.3234 -0.9491
 1533TIP3   OH226089   4.774   3.197  17.032  0.3555  0.0088 -0.9361
 1533TIP3    H126090   4.836   3.193  16.959 -0.2425  0.0598 -1.4520
 1533TIP3    H226091   4.713   3.266  17.008 -0.4101 -0.6182 -0.8493
 1534TIP3   OH226092   4.073   6.394  14.096 -0.1047 -0.0429  0.2693
 1534TIP3    H126093   4.063   6.358  14.184  0.6980  0.1587  0.4503
 1534TIP3    H226094   4.096   6.486  14.110 -1.3943  0.3734 -0.1805
 1535TIP3   OH226095   6.621   4.576  11.892  0.1432  0.2197 -0.4559
 1535TIP3    H126096   6.608   4.659  11.938 -1.6548 -0.2164 -0.1173
 1535TIP3    H226097   6.601   4.596  11.801  0.9192  0.4173 -0.5950
 1536TIP3   OH226098   5.056   2.000   5.082  0.0472 -0.8118  0.2934
 1536TIP3    H126099   5.118   2.064   5.117 -1.8832  1.0131  0.5799
 1536TIP3    H226100   5.100   1.962   5.006  1.6587  0.0913  0.7410
 1537TIP3   OH226101   0.271   4.455  14.667 -0.0180 -0.6527 -0.2461
 1537TIP3    H126102   0.350   4.460  14.613 -0.0120  1.3403 -0.1140
 1537TIP3    H226103   0.284   4.521  14.735 -2.2889  0.6314 -0.9510
 1538TIP3   OH226104   0.645   4.031  12.604 -0.0871 -0.1292 -0.0002
 1538TIP3    H126105   0.735   4.056  12.625 -0.0068 -1.0928  0.9103
 1538TIP3    H226106   0.596   4.113  12.604  0.2936  0.1544  2.1291
 1539TIP3   OH226107   3.254   5.070  14.524  0.1630 -0.7762 -0.3830
 1539TIP3    H126108   3.308   5.056  14.601  0.3695 -0.7904 -0.5280
 1539TIP3    H226109   3.314   5.059  14.450 -0.4799 -3.0110 -0.6516
 1540TIP3   OH226110   5.771   2.380   3.294 -0.0361 -0.5983  0.2748
 1540TIP3    H126111   5.772   2.389   3.199 -1.3803  0.8385  0.3585
 1540TIP3    H226112   5.799   2.290   3.310  0.9642 -0.6314 -1.4231
 1541TIP3   OH226113   2.188   2.703   3.033  0.0915 -0.5144 -0.5759
 1541TIP3    H126114   2.266   2.668   3.075 -0.6067 -1.0861  0.2820
 1541TIP3    H226115   2.220   2.747   2.955  1.7808  2.9161  1.7932
 1542TIP3   OH226116   5.447   4.074  14.069 -0.0987 -0.3484  0.1982
 1542TIP3    H126117   5.469   4.149  14.125 -0.3448 -0.4797  0.4757
 1542TIP3    H226118   5.363   4.043  14.103 -0.3901 -0.2527 -0.4314
 1543TIP3   OH226119   5.350   5.675   3.669  0.3072  0.4255 -0.6331
 1543TIP3    H126120   5.269   5.647   3.627 -0.1487  1.0865 -0.2229
 1543TIP3    H226121   5.385   5.595   3.709 -1.0374  0.4386  0.6381
 1544TIP3   OH226122   0.960   4.845   4.532  0.6253 -0.3189  0.5436
 1544TIP3    H126123   1.026   4.904   4.497  0.7015 -0.0605  1.1036
 1544TIP3    H226124   0.890   4.845   4.467  0.5695  0.4857  0.5937
 1545TIP3   OH226125   3.485   1.857  17.489  0.1965 -0.1082  0.2301
 1545TIP3    H126126   3.530   1.786  17.443  1.2129  1.1026 -0.7198
 1545TIP3    H226127   3.446   1.909  17.419  1.7507  1.7597  0.6589
 1546TIP3   OH226128   5.083   3.362  15.136 -0.2740 -0.5333  0.2212
 1546TIP3    H126129   5.123   3.276  15.129  0.8316 -0.2092  1.9318
 1546TIP3    H226130   5.101   3.390  15.226  0.6252  2.0799 -0.6736
 1547TIP3   OH226131   5.716   5.031   5.890 -0.1808  0.0417 -0.0459
 1547TIP3    H126132   5.627   5.023   5.922 -0.4362 -4.1306 -1.1603
 1547TIP3    H226133   5.769   4.982   5.953  1.1655  1.4458 -0.0290
 1548TIP3   OH226134   1.428   4.343  14.801 -0.0054  0.1697 -0.0446
 1548TIP3    H126135   1.489   4.324  14.729  1.1751 -0.5080  1.0792
 1548TIP3    H226136   1.352   4.382  14.759  0.7618  0.0327 -1.6285
 1549TIP3   OH226137   3.309   2.807   5.929 -0.5060  0.2271 -0.5191
 1549TIP3    H126138   3.227   2.758   5.922  0.9424 -2.3358 -0.7649
 1549TIP3    H226139   3.369   2.761   5.871  1.6339  0.8153  1.1108
 1550TIP3   OH226140   2.128   3.322  12.090  0.0016 -0.6114 -0.4875
 1550TIP3    H126141   2.115   3.292  12.001 -0.1401 -0.7646 -0.4144
 1550TIP3    H226142   2.219   3.300  12.110 -0.0723 -0.8968 -0.4696
 1551TIP3   OH226143   4.018   5.886  13.645  0.4958 -0.1697  0.0486
 1551TIP3    H126144   4.039   5.814  13.705  0.8587 -0.5104 -0.4803
 1551TIP3    H226145   4.000   5.844  13.562 -1.1241  0.2217  0.1736
 1552TIP3   OH226146   3.909   0.134  14.250 -0.1607 -0.0020  0.1778
 1552TIP3    H126147   3.856   0.210  14.275 -0.1824  0.2690 -0.6667
 1552TIP3    H226148   3.998   0.159  14.276 -0.1911  0.2531  0.0478
 1553TIP3   OH226149   4.324   4.191  16.535 -0.0946 -0.1513 -0.4568
 1553TIP3    H126150   4.307   4.201  16.442  0.6753  0.8061 -0.5065
 1553TIP3    H226151   4.260   4.247  16.578  0.4073  0.4406 -0.4728
 1554TIP3   OH226152   4.674   6.105  12.090 -0.2038  0.5955  0.7169
 1554TIP3    H126153   4.587   6.083  12.123 -0.1531 -1.4303 -0.3458
 1554TIP3    H226154   4.724   6.024  12.098  1.7127  1.7848  1.5587
 1555TIP3   OH226155   5.254   1.808  12.211 -0.0626 -0.3479 -0.2630
 1555TIP3    H126156   5.304   1.739  12.168  0.0232  0.5169 -1.6210
 1555TIP3    H226157   5.230   1.868  12.140  0.1779  1.1966  0.8926
 1556TIP3   OH226158   4.745   1.130  11.901  0.3556  0.2938  0.5183
 1556TIP3    H126159   4.786   1.193  11.842 -0.5957 -0.8786 -1.4989
 1556TIP3    H226160   4.815   1.070  11.926  0.7148  0.6583  0.3905
 1557TIP3   OH226161   6.564   3.523   1.408 -0.9761 -0.0089  0.0996
 1557TIP3    H126162   6.501   3.539   1.478 -0.0623 -0.2574  1.0121
 1557TIP3    H226163   6.547   3.434   1.380 -1.5883  0.2169 -0.2466
 1558TIP3   OH226164   3.787   2.008   3.062 -0.4791 -0.4220  0.2521
 1558TIP3    H126165   3.883   2.009   3.069 -0.3906  2.7041 -0.0910
 1558TIP3    H226166   3.771   2.007   2.968 -0.7031  0.6998  0.2628
 1559TIP3   OH226167   4.848   4.436   3.086 -0.1362  0.3712 -0.4505
 1559TIP3    H126168   4.800   4.392   3.016 -0.5692  0.2923 -0.1141
 1559TIP3    H226169   4.809   4.402   3.166  1.2163 -0.5090 -0.1390
 1560TIP3   OH226170   5.711   2.811   2.415 -0.1478  0.2085  0.5650
 1560TIP3    H126171   5.775   2.758   2.369  1.4973  3.3496 -1.1389
 1560TIP3    H226172   5.636   2.753   2.429  2.8773 -3.7175  2.6833
 1561TIP3   OH226173   2.228   6.619  11.469  0.1687 -0.1437 -0.0749
 1561TIP3    H126174   2.167   6.661  11.409 -0.4159 -1.2155 -0.2533
 1561TIP3    H226175   2.286   6.568  11.412  0.8737  0.4073  0.1360
 1562TIP3   OH226176   2.390   2.591   0.532 -0.0523  0.3550  0.2389
 1562TIP3    H126177   2.318   2.530   0.517  0.3569 -0.2801  0.7557
 1562TIP3    H226178   2.370   2.666   0.477 -0.8049 -0.0570 -0.0708
 1563TIP3   OH226179   0.159   0.094  17.150  0.3140  0.3458 -0.0973
 1563TIP3    H126180   0.246   0.072  17.119  0.4538 -0.9559  1.1318
 1563TIP3    H226181   0.107   0.014  17.138 -0.6528  1.0115 -0.5582
 1564TIP3   OH226182   6.001   6.447  16.002 -0.4129  0.4528  0.2076
 1564TIP3    H126183   6.054   6.528  16.001 -0.1365  0.2747 -0.9662
 1564TIP3    H226184   5.974   6.435  15.911  1.6866 -2.1528 -0.2020
 1565TIP3   OH226185   6.244   5.471  16.915  0.3988  0.3216  0.3250
 1565TIP3    H126186   6.153   5.494  16.932  0.4800  1.0340 -0.1734
 1565TIP3    H226187   6.239   5.396  16.855  0.1395  0.5181  0.0993
 1566TIP3   OH226188   3.372   5.702  12.616  0.3771 -0.5393  0.3489
 1566TIP3    H126189   3.468   5.704  12.614  0.3802  0.2741  1.0134
 1566TIP3    H226190   3.351   5.620  12.660  0.7403 -1.2117 -0.6758
 1567TIP3   OH226191   6.684   6.505  14.770 -0.0005  0.4605 -0.0566
 1567TIP3    H126192   6.663   6.594  14.741  0.9735  0.4511 -0.8359
 1567TIP3    H226193   6.605   6.476  14.816  0.5817  2.7037  2.6137
 1568TIP3   OH226194   4.686   6.365  13.063  0.2324 -0.3368 -0.3119
 1568TIP3    H126195   4.678   6.458  13.041 -0.0574 -0.0792  0.8244
 1568TIP3    H226196   4.596   6.334  13.069  0.3355 -0.9019 -1.4872
 1569TIP3   OH226197   2.876   1.814   6.568 -0.3671 -0.1040  0.1476
 1569TIP3    H126198   2.890   1.854   6.654 -1.7427  0.2203  0.2411
 1569TIP3    H226199   2.934   1.862   6.510  0.4458 -0.2049  0.8478
 1570TIP3   OH226200   1.857   2.361   0.190  0.3852 -0.2066  0.8723
 1570TIP3    H126201   1.775   2.410   0.199 -0.5881 -1.2040 -1.6841
 1570TIP3    H226202   1.834   2.286   0.137  3.1297 -0.1052 -0.6219
 1571TIP3   OH226203   2.778   1.235  15.908  0.3601 -0.2564 -0.3836
 1571TIP3    H126204   2.769   1.309  15.848 -0.9708 -0.7941 -0.8701
 1571TIP3    H226205   2.868   1.242  15.941  0.6349  0.8877 -1.3198
 1572TIP3   OH226206   5.891   6.133  10.956 -0.1187 -0.0067 -0.1406
 1572TIP3    H126207   5.826   6.201  10.940  0.1460 -0.0945 -1.7623
 1572TIP3    H226208   5.845   6.051  10.941  0.0850 -0.1109 -0.1959
 1573TIP3   OH226209   4.915   0.467  17.014  0.0355 -0.5358  0.0790
 1573TIP3    H126210   4.976   0.523  17.061  0.7229 -1.7375  0.6427
 1573TIP3    H226211   4.944   0.378  17.032 -1.2583 -1.1042 -0.5013
 1574TIP3   OH226212   6.474   0.472  12.250  0.4308  0.3541 -0.0306
 1574TIP3    H126213   6.435   0.557  12.272 -0.5554 -0.0693 -0.0864
 1574TIP3    H226214   6.436   0.411  12.313  1.4090  0.0117  0.2338
 1575TIP3   OH226215   0.674   5.612   3.038 -0.7567 -0.6997 -0.1293
 1575TIP3    H126216   0.618   5.616   2.960  0.3495 -0.5653 -0.9404
 1575TIP3    H226217   0.718   5.697   3.040  0.6765 -1.3944 -0.4959
 1576TIP3   OH226218   0.994   1.437  16.943  0.4551 -0.3069 -0.1293
 1576TIP3    H126219   1.019   1.475  17.027 -0.1264  0.5824 -0.3458
 1576TIP3    H226220   1.018   1.345  16.951  0.3253 -0.2575  1.0467
 1577TIP3   OH226221   5.632   1.821   1.262 -0.0561 -0.2722 -0.0901
 1577TIP3    H126222   5.627   1.744   1.318 -2.0517  0.3915  0.7475
 1577TIP3    H226223   5.605   1.789   1.175 -1.3301 -0.4597  0.3555
 1578TIP3   OH226224   0.928   0.473  17.151  0.1190  0.3456  0.5564
 1578TIP3    H126225   0.918   0.515  17.236  0.3671  1.9418 -0.1656
 1578TIP3    H226226   0.852   0.415  17.143  0.8671 -1.0139  2.4733
 1579TIP3   OH226227   0.706   6.408  16.162  0.1421 -0.0712  0.0170
 1579TIP3    H126228   0.702   6.408  16.258 -0.8305 -0.2631 -0.0150
 1579TIP3    H226229   0.721   6.500  16.139 -0.8012  0.1727  0.3246
 1580TIP3   OH226230   1.760   4.386  14.894 -0.5333  0.1435 -0.2166
 1580TIP3    H126231   1.706   4.355  14.821  0.0662 -1.1873 -0.1225
 1580TIP3    H226232   1.759   4.315  14.957 -0.5240  1.0333  0.8197
 1581TIP3   OH226233   6.119   4.091   4.332 -0.3414 -0.2281 -0.0245
 1581TIP3    H126234   6.040   4.118   4.378  0.5641 -0.0045  1.4892
 1581TIP3    H226235   6.173   4.170   4.329  1.5520 -1.2402  2.7751
 1582TIP3   OH226236   0.616   2.755   2.556 -0.2299  0.1196  0.6058
 1582TIP3    H126237   0.708   2.732   2.572 -0.0235 -0.0502 -0.6901
 1582TIP3    H226238   0.576   2.672   2.529 -0.8632  0.1173  1.5028
 1583TIP3   OH226239   5.036   2.089   4.344  0.1777 -0.1147 -0.6041
 1583TIP3    H126240   4.966   2.028   4.367 -0.8348  0.8204 -1.1307
 1583TIP3    H226241   5.038   2.152   4.416  1.2219 -0.7304 -0.0600
 1584TIP3   OH226242   5.138   1.597   1.505  0.3935 -0.1244  0.7092
 1584TIP3    H126243   5.046   1.570   1.496  0.3365  0.4201 -0.5477
 1584TIP3    H226244   5.148   1.619   1.598 -2.0539  4.2630  0.2197
 1585TIP3   OH226245   6.001   3.175   1.726 -0.1033  0.0906 -0.8667
 1585TIP3    H126246   5.951   3.114   1.780  2.2293 -2.0511 -0.8980
 1585TIP3    H226247   5.988   3.144   1.637  0.4313  0.1626 -0.9730
 1586TIP3   OH226248   0.639   6.012  12.269 -0.1230  0.4518 -0.1765
 1586TIP3    H126249   0.718   5.967  12.239 -0.4798 -1.2355  1.2523
 1586TIP3    H226250   0.600   5.953  12.333 -2.0187  1.7049 -0.0817
 1587TIP3   OH226251   2.860   4.987   2.927  0.4796  0.1891 -0.1236
 1587TIP3    H126252   2.953   4.980   2.905  0.5007 -0.9011  0.2470
 1587TIP3    H226253   2.815   4.943   2.855  0.1899  1.3155 -0.6522
 1588TIP3   OH226254   5.260   5.055  16.406 -0.2783  0.5167 -0.4407
 1588TIP3    H126255   5.331   4.993  16.393 -1.1255 -0.4984 -0.3415
 1588TIP3    H226256   5.304   5.136  16.433  0.9207  0.3349 -1.7250
 1589TIP3   OH226257   1.031   3.689  13.932  0.0449 -0.3492  0.0270
 1589TIP3    H126258   1.088   3.750  13.979  1.2647 -1.1275 -0.4133
 1589TIP3    H226259   0.943   3.714  13.959  0.6664 -0.8589  2.9054
 1590TIP3   OH226260   6.570   1.980  15.460 -0.1669  0.3169  0.2129
 1590TIP3    H126261   6.653   2.027  15.453  0.2711 -0.3626  0.7231
 1590TIP3    H226262   6.572   1.942  15.548 -0.6050 -0.4867 -0.1212
 1591TIP3   OH226263   5.336   3.263  14.395  0.2088  0.2054 -0.4442
 1591TIP3    H126264   5.365   3.328  14.459  0.3833 -0.0981 -0.2098
 1591TIP3    H226265   5.276   3.206  14.444 -0.0178  0.2442 -0.6725
 1592TIP3   OH226266   5.192   2.172  16.984 -0.1355  0.1531  0.2475
 1592TIP3    H126267   5.100   2.195  16.967 -0.6807 -1.3221  0.9509
 1592TIP3    H226268   5.195   2.078  16.966  1.9020  0.6034 -2.3693
 1593TIP3   OH226269   2.396   2.455  16.817 -0.4384 -0.5546 -0.3470
 1593TIP3    H126270   2.321   2.414  16.860 -0.4905  0.7340  0.8955
 1593TIP3    H226271   2.473   2.417  16.860 -0.4992  1.2671  1.5428
 1594TIP3   OH226272   6.430   3.912   1.332 -0.5549 -0.5236 -0.1170
 1594TIP3    H126273   6.514   3.941   1.369 -0.5960 -1.1765  0.5144
 1594TIP3    H226274   6.394   3.990   1.291  0.6440 -0.3744 -0.9438
 1595TIP3   OH226275   2.848   1.817  10.956  0.0962 -0.5881  0.7420
 1595TIP3    H126276   2.909   1.759  11.002  1.1270  0.9000  1.3479
 1595TIP3    H226277   2.795   1.759  10.902  1.1137 -2.0717  1.2808
 1596TIP3   OH226278   5.114   2.887  11.488  0.2915 -0.2812 -0.4507
 1596TIP3    H126279   5.111   2.962  11.428 -0.8054  0.0901  0.0272
 1596TIP3    H226280   5.023   2.875  11.515  0.8555  0.2116  1.9132
 1597TIP3   OH226281   0.734   6.714  15.728  0.3282 -0.2232  0.6715
 1597TIP3    H126282   0.725   6.639  15.669 -1.8416 -0.8918  1.7750
 1597TIP3    H226283   0.712   6.790  15.674  1.7707 -0.4139 -0.2437
 1598TIP3   OH226284   3.068   5.271  17.391  0.4447  0.2467  0.2791
 1598TIP3    H126285   3.157   5.280  17.359  0.4884  0.6039  0.4965
 1598TIP3    H226286   3.074   5.288  17.485  0.0852  0.6737  0.2292
 1599TIP3   OH226287   1.831   4.304   1.638  0.3305 -0.3488  0.5143
 1599TIP3    H126288   1.864   4.260   1.560 -0.3811  0.3663 -0.1999
 1599TIP3    H226289   1.737   4.314   1.622  0.7863  3.6533 -0.4968
 1600TIP3   OH226290   2.881   5.270   2.087 -0.1186  0.2314  0.7210
 1600TIP3    H126291   2.819   5.321   2.035 -0.6156  0.3477  1.4134
 1600TIP3    H226292   2.836   5.255   2.170  1.6814  2.4450  2.2227
 1601TIP3   OH226293   5.670   2.799  16.273  0.7336 -0.4654 -0.2968
 1601TIP3    H126294   5.607   2.729  16.256  0.9553 -0.7534  0.0581
 1601TIP3    H226295   5.682   2.842  16.188  0.1390 -0.4697 -0.3899
 1602TIP3   OH226296   2.765   2.044  16.100 -0.2464  0.3550 -0.1046
 1602TIP3    H126297   2.746   1.995  16.180 -0.4637 -0.9722 -0.9316
 1602TIP3    H226298   2.681   2.051  16.055  0.1728 -0.5797 -1.0952
 1603TIP3   OH226299   5.436   4.963   4.830  0.8786 -0.2244 -0.4039
 1603TIP3    H126300   5.437   5.058   4.829  0.3366 -0.2044 -2.1240
 1603TIP3    H226301   5.475   4.939   4.915 -0.6751  1.5320  0.8869
 1604TIP3   OH226302   1.013   0.566  15.590 -0.1973  0.2464 -0.3778
 1604TIP3    H126303   0.950   0.589  15.658  1.1262  3.2069  0.0472
 1604TIP3    H226304   1.084   0.522  15.637  0.4763  1.8205  0.1495
 1605TIP3   OH226305   4.853   2.491  11.845  0.6176  0.3068 -0.0688
 1605TIP3    H126306   4.814   2.451  11.767 -0.3325  0.4141  0.3474
 1605TIP3    H226307   4.945   2.464  11.841  0.2252 -1.0697 -0.3474
 1606TIP3   OH226308   0.201   1.699  12.497 -0.2465 -0.2755  0.8085
 1606TIP3    H126309   0.110   1.721  12.515  0.1137  2.1246 -0.0394
 1606TIP3    H226310   0.198   1.606  12.474 -2.3894 -0.3797  1.2681
 1607TIP3   OH226311   5.590   6.123   0.522  0.5416  0.4237 -0.1850
 1607TIP3    H126312   5.511   6.155   0.480  1.1325  2.9311  0.4229
 1607TIP3    H226313   5.656   6.123   0.453  0.5645  0.6945 -0.1662
 1608TIP3   OH226314   0.534   6.372   4.433  0.4279 -0.4649 -0.0527
 1608TIP3    H126315   0.516   6.462   4.408 -0.4447 -1.0760 -1.8039
 1608TIP3    H226316   0.487   6.359   4.515  3.2563  1.5695  2.0934
 1609TIP3   OH226317   3.640   1.467   4.469  0.0586  0.0839 -0.0985
 1609TIP3    H126318   3.715   1.410   4.453 -0.9898 -1.9097  1.6326
 1609TIP3    H226319   3.569   1.430   4.416 -0.6557 -0.3331  1.0986
 1610TIP3   OH226320   6.635   6.635   0.174 -0.0444 -0.1986  0.6304
 1610TIP3    H126321   6.619   6.621   0.268  0.4823 -1.5488  0.5453
 1610TIP3    H226322   6.700   6.569   0.151  1.6229  1.6481 -0.1894
 1611TIP3   OH226323   1.110   0.056  12.547 -0.2116  0.0450 -0.2450
 1611TIP3    H126324   1.104  -0.037  12.523 -2.2961  0.1121 -0.1166
 1611TIP3    H226325   1.082   0.059  12.638  2.1569  0.5505  0.5473
 1612TIP3   OH226326   3.167   3.020  13.643  0.5937 -0.4329  0.5729
 1612TIP3    H126327   3.182   2.957  13.714 -0.1083 -0.7828  0.4265
 1612TIP3    H226328   3.254   3.039  13.609  0.9992  0.1433  1.8635
 1613TIP3   OH226329   0.245   4.740   3.575  0.2478  0.5398 -0.5165
 1613TIP3    H126330   0.325   4.733   3.627  0.3429 -1.5481 -0.8905
 1613TIP3    H226331   0.176   4.759   3.639  0.6759  0.0601  0.0972
 1614TIP3   OH226332   3.740   5.227   0.808  0.2882  0.1154 -0.1037
 1614TIP3    H126333   3.830   5.196   0.809 -0.0374 -0.9959 -1.8104
 1614TIP3    H226334   3.728   5.263   0.720 -1.5106 -1.6247 -0.6320
 1615TIP3   OH226335   6.211   2.752   1.165  0.1128  0.5223  0.3321
 1615TIP3    H126336   6.296   2.723   1.198 -0.0887 -0.7600 -0.2211
 1615TIP3    H226337   6.156   2.762   1.243 -0.0899 -1.5783  0.5242
 1616TIP3   OH226338   1.337   0.505   2.800 -0.2803 -0.1631  0.5356
 1616TIP3    H126339   1.423   0.538   2.826  0.1941 -1.1353  0.2676
 1616TIP3    H226340   1.275   0.563   2.844  0.5014 -0.2067  1.7720
 1617TIP3   OH226341   4.220   1.278  12.525 -0.2070 -0.4240 -0.5919
 1617TIP3    H126342   4.173   1.243  12.449  1.3787 -2.0673 -0.8921
 1617TIP3    H226343   4.164   1.349  12.557 -3.4348 -2.8786 -0.2383
 1618TIP3   OH226344   1.941   4.143   1.459 -0.5610  0.1056  0.1798
 1618TIP3    H126345   1.898   4.062   1.488  1.5492 -1.3352 -0.4866
 1618TIP3    H226346   1.965   4.125   1.368 -0.3241  1.6350 -0.0722
 1619TIP3   OH226347   1.727   3.186  17.456  0.5803 -0.4825 -0.5610
 1619TIP3    H126348   1.746   3.132  17.534 -0.2780 -0.2590 -0.1841
 1619TIP3    H226349   1.780   3.265  17.468 -1.0923  0.4878  0.8733
 1620TIP3   OH226350   1.663   5.876  15.914  0.1975  0.3614  0.0240
 1620TIP3    H126351   1.592   5.938  15.932  1.0743  1.7987 -1.1827
 1620TIP3    H226352   1.653   5.854  15.821  0.0767 -1.0953  0.3729
 1621TIP3   OH226353   6.438   3.638   5.335  0.0569 -0.3285 -0.0727
 1621TIP3    H126354   6.378   3.572   5.301 -0.0066  0.0903 -0.7962
 1621TIP3    H226355   6.519   3.591   5.351 -0.0562 -0.6321 -0.3793
 1622TIP3   OH226356   4.257   5.331   2.627 -0.0998  0.2828  0.4179
 1622TIP3    H126357   4.221   5.370   2.547 -0.8054  2.2409  1.6052
 1622TIP3    H226358   4.184   5.333   2.690  0.5680 -0.7523  1.2616
 1623TIP3   OH226359   1.269   2.138   1.224 -0.5630  0.5030 -0.0276
 1623TIP3    H126360   1.216   2.179   1.292 -0.3544  0.9681 -0.1397
 1623TIP3    H226361   1.285   2.049   1.255 -0.2943  0.7782  0.6319
 1624TIP3   OH226362   3.477   2.689  16.171 -0.2427 -0.3022  0.1104
 1624TIP3    H126363   3.441   2.633  16.240 -0.9999 -0.5887 -0.5110
 1624TIP3    H226364   3.431   2.662  16.091  0.7132 -0.0570 -0.5348
 1625TIP3   OH226365   2.751   2.020  12.077  0.3379 -0.2761 -0.8041
 1625TIP3    H126366   2.711   2.001  12.162  0.9979 -0.9350 -0.6311
 1625TIP3    H226367   2.734   1.942  12.024 -1.3657  0.7003 -1.8027
 1626TIP3   OH226368   3.414   6.272  12.316 -0.3214  0.1206  0.4376
 1626TIP3    H126369   3.428   6.203  12.381 -0.4671  0.8172  1.2235
 1626TIP3    H226370   3.467   6.245  12.241  3.6712  1.5655  2.4662
 1627TIP3   OH226371   0.787   4.134  11.662  0.4088  0.4984  0.0719
 1627TIP3    H126372   0.839   4.065  11.619  0.2351  1.0642 -1.0793
 1627TIP3    H226373   0.723   4.160  11.597 -0.6393  0.5794  1.0986
 1628TIP3   OH226374   2.229   6.645   0.706  0.0113 -0.8880 -0.0848
 1628TIP3    H126375   2.173   6.572   0.678  0.5140 -1.3893  0.1847
 1628TIP3    H226376   2.318   6.613   0.693  0.3800 -1.8187  3.4606
 1629TIP3   OH226377   5.485   0.668   4.099 -0.0083 -0.1259  0.4272
 1629TIP3    H126378   5.572   0.660   4.138  1.0970  0.0072 -1.8680
 1629TIP3    H226379   5.500   0.712   4.016 -1.9904 -2.0639 -1.0480
 1630TIP3   OH226380   5.320   2.499   3.830  0.3121  0.5026 -0.3728
 1630TIP3    H126381   5.410   2.486   3.798  0.9729  1.4714  0.9570
 1630TIP3    H226382   5.266   2.498   3.751  1.1222 -2.5841 -1.0139
 1631TIP3   OH226383   4.954   2.069   4.684 -0.3044  0.2786 -0.3822
 1631TIP3    H126384   4.859   2.068   4.674 -0.3967 -0.2037  0.4401
 1631TIP3    H226385   4.978   1.977   4.693  0.3148  0.3534 -1.1882
 1632TIP3   OH226386   2.589   2.208   4.230  0.2589 -0.0147 -0.0303
 1632TIP3    H126387   2.606   2.149   4.302  0.2432  0.4864  0.3917
 1632TIP3    H226388   2.634   2.169   4.155  1.0428 -0.0758  0.4570
 1633TIP3   OH226389   3.341   0.117  15.930 -0.3886  0.5180  0.3955
 1633TIP3    H126390   3.283   0.058  15.979 -0.0423  0.6923  1.0310
 1633TIP3    H226391   3.366   0.183  15.994  0.6846  0.3224  0.1857
 1634TIP3   OH226392   1.763   0.053  14.656  0.4265  0.5921  0.1974
 1634TIP3    H126393   1.687   0.007  14.621  0.7511 -0.2335  0.5517
 1634TIP3    H226394   1.759   0.140  14.616 -1.1666  0.8599  0.8506
 1635TIP3   OH226395   0.362   6.428  17.199 -0.6542 -0.2207  0.3416
 1635TIP3    H126396   0.383   6.449  17.108  0.3411  1.6613  0.9664
 1635TIP3    H226397   0.443   6.394  17.235 -0.3686  1.2458  1.1283
 1636TIP3   OH226398   1.142   3.463  12.254 -0.0308 -0.1909  0.1385
 1636TIP3    H126399   1.144   3.554  12.226  0.0209 -0.5056 -0.9084
 1636TIP3    H226400   1.232   3.433  12.246 -0.5773 -1.3212 -2.9600
 1637TIP3   OH226401   6.125   5.996   2.280  0.1553  0.1401  0.0441
 1637TIP3    H126402   6.219   6.013   2.274  0.3650 -0.9103  0.0765
 1637TIP3    H226403   6.119   5.901   2.288 -0.8431  0.2784  1.3693
 1638TIP3   OH226404   3.437   6.198  15.729  0.9369 -0.0088  0.1043
 1638TIP3    H126405   3.473   6.130  15.785  1.3006 -0.2393 -0.4002
 1638TIP3    H226406   3.485   6.189  15.646 -0.4638 -0.5067 -0.6804
 1639TIP3   OH226407   2.295   4.097  17.133 -0.6394 -0.0691 -0.9312
 1639TIP3    H126408   2.382   4.057  17.137 -0.9036 -0.7969 -2.0008
 1639TIP3    H226409   2.292   4.155  17.210  0.1760 -1.2499  0.0349
 1640TIP3   OH226410   5.176   2.620  11.715  0.7890 -0.3067 -0.2113
 1640TIP3    H126411   5.111   2.586  11.653  1.9906 -1.8376 -0.7162
 1640TIP3    H226412   5.179   2.554  11.784  1.8284 -0.2813 -0.2243
 1641TIP3   OH226413   1.575   0.680  15.534  0.2714  0.3798 -0.2725
 1641TIP3    H126414   1.532   0.611  15.585  3.7148 -0.3867  2.0018
 1641TIP3    H226415   1.607   0.637  15.455  0.7814 -0.2127  0.2473
 1642TIP3   OH226416   3.443   6.117   2.419  0.3433 -0.0535  0.1154
 1642TIP3    H126417   3.512   6.096   2.482  0.1849  1.7120  0.9383
 1642TIP3    H226418   3.479   6.092   2.334  2.5441  1.9569  0.3564
 1643TIP3   OH226419   4.287   6.282   1.025 -0.5502  0.1018 -0.2270
 1643TIP3    H126420   4.316   6.368   0.994  0.8938  0.5809  2.2371
 1643TIP3    H226421   4.362   6.225   1.008 -0.8209 -0.2684 -0.1803
 1644TIP3   OH226422   5.458   2.513  10.787 -0.3925 -0.0938  0.5840
 1644TIP3    H126423   5.547   2.480  10.797 -0.3537  0.0344  0.6720
 1644TIP3    H226424   5.411   2.443  10.743  0.0108  0.2466 -0.4090
 1645TIP3   OH226425   2.300   6.682   6.020 -0.3325 -0.3122  0.6235
 1645TIP3    H126426   2.329   6.668   5.930  0.7257  0.0313  0.9010
 1645TIP3    H226427   2.218   6.633   6.026 -0.0608 -0.9175 -0.3205
 1646TIP3   OH226428   0.695   6.157   1.467 -0.4467  0.0326  0.8351
 1646TIP3    H126429   0.679   6.248   1.491  0.7506 -0.0031  1.8724
 1646TIP3    H226430   0.632   6.107   1.520  0.5547  0.1165  2.1428
 1647TIP3   OH226431   6.756   4.103   1.183  0.1858 -0.2873  0.1567
 1647TIP3    H126432   6.724   4.057   1.105 -0.0508 -0.7458  0.5225
 1647TIP3    H226433   6.736   4.044   1.255  0.0148  0.3239  0.6145
 1648TIP3   OH226434   2.400   5.199  16.493 -0.4616  0.4855 -0.2701
 1648TIP3    H126435   2.333   5.259  16.525 -1.6946  0.0791 -1.9645
 1648TIP3    H226436   2.431   5.238  16.412  1.5840  0.7817  0.6000
 1649TIP3   OH226437   1.849   6.172   0.567 -0.1096  0.9605 -0.0397
 1649TIP3    H126438   1.798   6.101   0.528  1.2973  0.2658 -0.6811
 1649TIP3    H226439   1.787   6.218   0.623 -1.2571 -0.2720 -0.2514
 1650TIP3   OH226440   0.394   2.166  14.459  0.2718  0.0416 -0.3881
 1650TIP3    H126441   0.476   2.174  14.508  0.3773 -0.3393 -0.5012
 1650TIP3    H226442   0.332   2.221  14.507  0.6721  0.5767 -0.4741
 1651TIP3   OH226443   0.906   5.467   0.313  0.1447 -0.2451 -0.7062
 1651TIP3    H126444   0.952   5.394   0.273 -0.7518  0.1345 -2.5511
 1651TIP3    H226445   0.838   5.490   0.249 -0.6031  1.1803  0.5387
 1652TIP3   OH226446   6.774   1.081   6.807 -0.4068  0.1792  0.5607
 1652TIP3    H126447   6.746   1.052   6.720  0.9162  2.6073 -0.8151
 1652TIP3    H226448   6.707   1.144   6.833  0.1150  0.8120  0.4191
 1653TIP3   OH226449   2.359   2.980  11.993  0.0076  0.4094  0.4063
 1653TIP3    H126450   2.422   3.047  11.966  0.5107 -0.7800 -1.5403
 1653TIP3    H226451   2.343   2.928  11.915 -1.4054 -0.9542  1.5183
 1654TIP3   OH226452   4.801   1.896   0.106 -0.6931 -0.1675 -0.3650
 1654TIP3    H126453   4.839   1.827   0.160 -0.3528  1.5672  1.7821
 1654TIP3    H226454   4.874   1.931   0.055 -0.3189  0.2032  0.4060
 1655TIP3   OH226455   5.253   1.217  15.801 -0.4642  0.5097  0.2866
 1655TIP3    H126456   5.180   1.158  15.821 -0.3371 -0.1181 -0.9618
 1655TIP3    H226457   5.256   1.218  15.705  2.7397 -1.4818  0.2323
 1656TIP3   OH226458   2.959   0.670  12.009  0.3024  0.0812 -0.1591
 1656TIP3    H126459   2.920   0.664  12.097  0.2832 -2.0570 -0.2442
 1656TIP3    H226460   2.967   0.579  11.981  0.2867  0.7078 -2.4118
 1657TIP3   OH226461   3.598   0.521   5.827 -0.3330  0.3304 -0.6804
 1657TIP3    H126462   3.689   0.510   5.853  0.0317  0.4981 -1.8053
 1657TIP3    H226463   3.599   0.598   5.770 -1.2132  0.4478 -0.5528
 1658TIP3   OH226464   6.455   2.413   4.467 -1.0275 -0.1774 -0.3040
 1658TIP3    H126465   6.382   2.379   4.520 -0.5709  0.4434  0.7537
 1658TIP3    H226466   6.524   2.348   4.477  0.3512  1.5414  2.8511
 1659TIP3   OH226467   1.328   3.573  12.722  0.3095  0.2957 -0.8531
 1659TIP3    H126468   1.364   3.530  12.800  0.0776  0.5773 -0.5927
 1659TIP3    H226469   1.235   3.553  12.724  0.2997  0.3208 -1.0487
 1660TIP3   OH226470   1.334   0.891   6.706 -0.2975  0.0207  0.4961
 1660TIP3    H126471   1.273   0.911   6.635 -0.5046 -1.3928  0.2514
 1660TIP3    H226472   1.295   0.815   6.750 -0.0322  0.6828  1.9642
 1661TIP3   OH226473   5.921   2.219  14.952  0.3774  0.4507 -0.2877
 1661TIP3    H126474   6.002   2.259  14.922 -0.6645  0.8928 -2.7922
 1661TIP3    H226475   5.929   2.217  15.047  2.3782  2.4899 -0.3147
 1662TIP3   OH226476   4.561   6.185  15.477  0.4429 -0.4024 -0.1866
 1662TIP3    H126477   4.551   6.090  15.467  0.6082 -0.4987  0.5711
 1662TIP3    H226478   4.644   6.196  15.523  0.8396  0.1491 -1.0046
 1663TIP3   OH226479   3.522   3.406  17.365 -0.0904  0.1498  0.3539
 1663TIP3    H126480   3.551   3.444  17.448  0.1160 -0.4289  0.5520
 1663TIP3    H226481   3.570   3.455  17.298 -0.8632  1.1705  0.5201
 1664TIP3   OH226482   5.419   0.219   1.849 -0.0620  0.1774 -0.3678
 1664TIP3    H126483   5.477   0.153   1.887  1.1897  0.6236 -1.4551
 1664TIP3    H226484   5.402   0.280   1.921  2.3759  1.0880 -0.4686
 1665TIP3   OH226485   4.682   3.149  12.208  0.2682  0.2349  0.3644
 1665TIP3    H126486   4.717   3.061  12.220 -0.0792 -0.0314 -0.4858
 1665TIP3    H226487   4.726   3.182  12.129 -0.9723  0.0881 -0.4286
 1666TIP3   OH226488   5.078   3.990  16.752  0.4870  0.3586 -0.6879
 1666TIP3    H126489   5.103   3.902  16.783  4.2355  2.2449  2.6163
 1666TIP3    H226490   4.996   4.008  16.798 -1.0907 -1.7377 -2.4462
 1667TIP3   OH226491   2.660   6.030  14.395 -0.5887 -0.1600  0.5537
 1667TIP3    H126492   2.720   6.057  14.465  0.0015  0.1547 -0.0571
 1667TIP3    H226493   2.619   6.112  14.367  0.6790  0.0296 -0.8290
 1668TIP3   OH226494   5.459   5.040  16.022 -1.1354  0.0512 -0.3687
 1668TIP3    H126495   5.528   5.047  16.088  0.1735  1.2458 -1.7852
 1668TIP3    H226496   5.395   4.980  16.061  0.8014 -1.3283  0.9140
 1669TIP3   OH226497   1.116   3.187   0.852  0.1659  0.1194 -0.1498
 1669TIP3    H126498   1.025   3.201   0.880 -0.0211  0.5982 -0.9717
 1669TIP3    H226499   1.153   3.275   0.848  0.4973 -0.0301 -0.3767
 1670TIP3   OH226500   4.852   0.281  17.432 -0.2642 -0.6946 -0.3580
 1670TIP3    H126501   4.811   0.202  17.468  1.2420 -0.5276  1.9738
 1670TIP3    H226502   4.865   0.261  17.340 -0.0278 -3.1757  0.1321
 1671TIP3   OH226503   4.387   5.709  12.468  0.4283 -0.0696  0.3515
 1671TIP3    H126504   4.417   5.766  12.539  0.0155 -0.0858  0.5421
 1671TIP3    H226505   4.316   5.757  12.426  1.4044  0.4344 -0.7822
 1672TIP3   OH226506   5.052   4.550  16.298 -0.2183  0.7065  0.0332
 1672TIP3    H126507   5.021   4.512  16.216 -1.4121 -0.9802  1.2087
 1672TIP3    H226508   4.973   4.581  16.342  0.2712  0.5503  1.0561
 1673TIP3   OH226509   1.563   0.187   3.312 -0.1560  0.4419  0.4383
 1673TIP3    H126510   1.645   0.235   3.301 -0.9326  1.8295  0.3722
 1673TIP3    H226511   1.506   0.222   3.243 -1.3854  0.8641  1.6334
 1674TIP3   OH226512   2.426   1.782   6.712 -0.6400  0.0224  0.3699
 1674TIP3    H126513   2.392   1.762   6.799  0.1351  0.5897  0.8131
 1674TIP3    H226514   2.359   1.749   6.652 -0.9422 -0.8499  1.1595
 1675TIP3   OH226515   3.585   3.501  11.742 -0.2139 -0.5957 -0.2287
 1675TIP3    H126516   3.505   3.553  11.729 -0.0150 -0.3801 -0.5841
 1675TIP3    H226517   3.558   3.432  11.802 -1.1280 -1.5940 -1.7416
 1676TIP3   OH226518   0.237   6.666   4.537  0.2852 -0.0154 -0.5010
 1676TIP3    H126519   0.209   6.578   4.563  1.1097 -0.0517  0.3050
 1676TIP3    H226520   0.282   6.701   4.613 -1.4563  1.7786 -0.2303
 1677TIP3   OH226521   3.449   3.336   6.016 -0.3839  0.2802  0.2958
 1677TIP3    H126522   3.462   3.242   6.007  0.3498 -0.0580  3.6369
 1677TIP3    H226523   3.360   3.345   6.050  0.3567  0.5063  2.3351
 1678TIP3   OH226524   0.633   0.066   3.729 -0.2442 -0.2093  0.6730
 1678TIP3    H126525   0.560   0.004   3.736 -0.8034  0.5662  2.1721
 1678TIP3    H226526   0.676   0.062   3.814 -0.4582  1.6283  0.9109
 1679TIP3   OH226527   6.296   1.024  12.895 -0.0802  0.2764  0.0357
 1679TIP3    H126528   6.348   1.103  12.897  0.1926  0.0936  1.3871
 1679TIP3    H226529   6.226   1.042  12.832  0.1609  1.4619  0.0905
 1680TIP3   OH226530   6.028   4.027  11.658  0.2099  0.5353  0.2262
 1680TIP3    H126531   5.975   3.959  11.699  0.1818  0.2842 -0.2140
 1680TIP3    H226532   6.089   4.055  11.726  2.1701 -1.9411 -0.3279
 1681TIP3   OH226533   4.306   3.816   0.319 -0.4315  0.3650  0.6942
 1681TIP3    H126534   4.250   3.750   0.279  1.0405 -1.1155  0.9864
 1681TIP3    H226535   4.395   3.789   0.297  0.2548  1.5955  1.8273
 1682TIP3   OH226536   1.967   1.924  16.656  0.3711  0.5084 -0.1800
 1682TIP3    H126537   1.963   2.009  16.611  1.6105 -0.2261 -1.7748
 1682TIP3    H226538   1.891   1.876  16.624  0.9687  0.1760 -1.1324
 1683TIP3   OH226539   1.253   0.612   5.251 -0.4331 -0.0585 -0.1002
 1683TIP3    H126540   1.237   0.539   5.311  0.8695  0.2931  0.7308
 1683TIP3    H226541   1.167   0.650   5.235 -0.8674 -0.4039  1.2503
 1684TIP3   OH226542   3.446   5.789  16.904  0.3656 -0.5169  0.1467
 1684TIP3    H126543   3.381   5.834  16.958 -0.5318 -1.3235 -0.2173
 1684TIP3    H226544   3.489   5.858  16.855 -0.3424  0.0335  0.2801
 1685TIP3   OH226545   1.277   4.827   2.141  0.1512  0.1089 -0.4966
 1685TIP3    H126546   1.313   4.888   2.206  1.1043 -0.6533 -0.2717
 1685TIP3    H226547   1.199   4.790   2.184  0.1823  0.3757 -0.2028
 1686TIP3   OH226548   5.165   2.347   5.101  0.1714  0.0675 -0.2731
 1686TIP3    H126549   5.261   2.340   5.098  0.3772  2.3774 -0.4348
 1686TIP3    H226550   5.146   2.388   5.185 -0.9743 -3.0788  1.1745
 1687TIP3   OH226551   2.320   2.562  13.188  0.5741 -0.2993 -0.3673
 1687TIP3    H126552   2.228   2.537  13.196  0.9860 -1.8100 -0.1347
 1687TIP3    H226553   2.357   2.498  13.127  1.2891  0.8506 -1.1932
 1688TIP3   OH226554   6.001   6.607   2.307  0.3640  0.6156  0.0797
 1688TIP3    H126555   6.050   6.549   2.250  0.4105  0.9339 -0.2038
 1688TIP3    H226556   5.949   6.548   2.362 -0.7546  0.3280 -1.2290
 1689TIP3   OH226557   6.578   3.767   0.148 -0.3641 -0.5032  0.1869
 1689TIP3    H126558   6.490   3.755   0.182 -0.2274 -0.6363  0.4969
 1689TIP3    H226559   6.635   3.724   0.212 -0.0709 -0.3682  0.0203
 1690TIP3   OH226560   4.627   1.825  15.627 -0.2254 -0.0658 -0.0720
 1690TIP3    H126561   4.655   1.914  15.608  0.0225 -0.0109  0.5330
 1690TIP3    H226562   4.693   1.769  15.585 -0.4188  0.0341 -0.5084
 1691TIP3   OH226563   0.311   5.051  15.715  0.0414  0.1805 -0.7147
 1691TIP3    H126564   0.385   5.073  15.659  1.5350  1.5297  1.6224
 1691TIP3    H226565   0.351   5.009  15.792 -1.4644  1.7844  1.0382
 1692TIP3   OH226566   6.626   4.447  16.075  0.2119  0.1480 -0.2920
 1692TIP3    H126567   6.614   4.443  15.980 -0.4904  0.9554 -0.2455
 1692TIP3    H226568   6.719   4.467  16.087  0.5285 -0.9491 -0.7772
 1693TIP3   OH226569   1.375   0.631   5.670 -0.0577 -0.1943  0.2857
 1693TIP3    H126570   1.401   0.635   5.578 -0.1518  3.0843  0.2682
 1693TIP3    H226571   1.448   0.588   5.714 -0.2284 -2.2826 -1.3155
 1694TIP3   OH226572   0.830   6.533   4.275  0.5038  0.4333 -0.0758
 1694TIP3    H126573   0.844   6.600   4.209  0.9612  0.4968  0.0810
 1694TIP3    H226574   0.779   6.465   4.230  1.5092  0.0979 -0.7310
 1695TIP3   OH226575   5.224   1.895   4.896 -0.1462  0.4197  0.4924
 1695TIP3    H126576   5.281   1.918   4.822 -1.3896  1.0608 -0.3233
 1695TIP3    H226577   5.258   1.812   4.929  0.2796 -0.0358 -1.0030
 1696TIP3   OH226578   6.095   2.305   5.255  0.7030 -0.3965  0.7676
 1696TIP3    H126579   6.031   2.236   5.274 -0.3872  0.8367  1.7663
 1696TIP3    H226580   6.154   2.266   5.191 -1.1510 -1.5372 -0.3235
 1697TIP3   OH226581   4.486   5.951  14.220 -0.6643 -0.3207 -0.2871
 1697TIP3    H126582   4.552   5.916  14.159 -0.9184 -2.7386  0.6826
 1697TIP3    H226583   4.406   5.958  14.168 -0.5977 -1.2462 -0.5356
 1698TIP3   OH226584   6.762   2.091  12.182  0.4517 -0.5429 -0.1649
 1698TIP3    H126585   6.678   2.047  12.200 -1.1895  3.0647  2.0772
 1698TIP3    H226586   6.748   2.134  12.098  0.6312 -1.1577 -0.5136
 1699TIP3   OH226587   5.083   5.436   4.449  0.2495  0.0515 -0.1250
 1699TIP3    H126588   4.994   5.412   4.474  0.1462  2.9757  3.1603
 1699TIP3    H226589   5.135   5.418   4.527  2.2335  0.0031 -1.3886
 1700TIP3   OH226590   3.583   3.380   3.795  0.7076  0.4610  0.0216
 1700TIP3    H126591   3.563   3.369   3.702  0.7326 -0.2075  0.0941
 1700TIP3    H226592   3.555   3.299   3.836 -0.0255  1.0517  0.7254
 1701TIP3   OH226593   1.601   5.600  16.366  0.0310 -0.0429 -0.3857
 1701TIP3    H126594   1.531   5.540  16.340  1.1597 -1.2500 -0.7704
 1701TIP3    H226595   1.661   5.601  16.292  0.6874  0.5592  0.1330
 1702TIP3   OH226596   2.522   0.865  15.198  0.1626 -0.3419 -0.0218
 1702TIP3    H126597   2.609   0.874  15.236  1.1371  0.6843 -2.3166
 1702TIP3    H226598   2.479   0.949  15.218  0.5373  0.0458 -0.7953
 1703TIP3   OH226599   0.755   3.889   6.106  0.5407 -0.0728  0.0235
 1703TIP3    H126600   0.840   3.853   6.130  0.2040 -1.6029 -0.9135
 1703TIP3    H226601   0.692   3.828   6.145 -0.1102  0.5888  0.0262
 1704TIP3   OH226602   0.535   5.252   2.309  0.3775  0.2320 -0.1661
 1704TIP3    H126603   0.587   5.216   2.381  1.9404  1.0539 -0.8207
 1704TIP3    H226604   0.529   5.180   2.246  0.3384 -0.0144  0.1167
 1705TIP3   OH226605   0.408   1.991   4.238  0.3407 -0.2019 -0.5979
 1705TIP3    H126606   0.499   2.017   4.220 -0.2515  1.3973 -1.5043
 1705TIP3    H226607   0.410   1.957   4.327  1.3915  2.2973  0.4402
 1706TIP3   OH226608   2.038   4.774   0.560 -0.8287 -0.1481  0.1742
 1706TIP3    H126609   2.073   4.863   0.552  2.1987 -1.1393  0.8615
 1706TIP3    H226610   2.026   4.745   0.470 -0.5148  0.5013 -0.0853
 1707TIP3   OH226611   0.771   3.097  13.819 -0.3254  0.0861  0.0700
 1707TIP3    H126612   0.856   3.058  13.842 -0.0680  1.0910  0.9462
 1707TIP3    H226613   0.723   3.097  13.902 -0.1019  2.0786  0.2510
 1708TIP3   OH226614   0.400   3.198  14.754 -0.3894  0.0931  0.1662
 1708TIP3    H126615   0.422   3.165  14.841 -2.4438 -1.1974  0.2717
 1708TIP3    H226616   0.415   3.293  14.760  2.7038 -0.3471  0.8311
 1709TIP3   OH226617   0.894   1.455  14.713  0.4155 -0.3775 -0.1648
 1709TIP3    H126618   0.952   1.516  14.758 -0.8990  1.3238 -0.6316
 1709TIP3    H226619   0.839   1.418  14.783  1.4935 -1.4028  0.1745
 1710TIP3   OH226620   0.683   2.211   2.194  0.0768  0.4219 -0.1085
 1710TIP3    H126621   0.708   2.303   2.198 -2.0182  1.0025  0.9610
 1710TIP3    H226622   0.710   2.175   2.279  0.4932  0.1383 -0.3548
 1711TIP3   OH226623   1.665   2.330  12.234  0.4979 -0.1387 -0.7487
 1711TIP3    H126624   1.570   2.322  12.232  0.1624  2.3753  0.5615
 1711TIP3    H226625   1.683   2.416  12.195  1.9987  0.4176  0.9974
 1712TIP3   OH226626   4.498   1.648   1.806 -0.3575 -0.1122 -0.2185
 1712TIP3    H126627   4.522   1.603   1.887 -1.2995 -2.7244 -1.2971
 1712TIP3    H226628   4.547   1.602   1.737 -0.3479  1.3986 -1.2785
 1713TIP3   OH226629   6.065   6.581   4.899  0.2306  0.4959 -0.6029
 1713TIP3    H126630   6.153   6.620   4.898 -0.4709  2.2896 -3.1349
 1713TIP3    H226631   6.008   6.653   4.923 -0.6130 -0.5646  0.6519
 1714TIP3   OH226632   2.587   4.175   4.665 -0.1203  0.4468  0.1562
 1714TIP3    H126633   2.546   4.145   4.584  0.8998  0.4636 -0.3758
 1714TIP3    H226634   2.605   4.095   4.714  1.4052  0.2424 -0.6874
 1715TIP3   OH226635   5.039   1.090  14.141  0.2401 -0.1339 -0.6750
 1715TIP3    H126636   5.122   1.128  14.110 -1.2329  2.6925 -1.5178
 1715TIP3    H226637   5.007   1.040  14.066 -1.0040  2.7596 -2.2642
 1716TIP3   OH226638   0.202   1.808  13.569  0.5565 -0.0374  0.3564
 1716TIP3    H126639   0.131   1.781  13.511  0.9365 -1.9341  0.6991
 1716TIP3    H226640   0.244   1.881  13.523 -2.0144  1.6353  0.5067
 1717TIP3   OH226641   5.942   4.119  17.482 -0.2971  0.6734 -0.0840
 1717TIP3    H126642   6.008   4.148  17.419  0.1426 -0.0451  0.0312
 1717TIP3    H226643   5.869   4.180  17.471  0.3248  1.3890 -0.3182
 1718TIP3   OH226644   6.238   3.811  16.177 -0.1243 -0.0797  0.4036
 1718TIP3    H126645   6.238   3.755  16.255  1.8640  0.5638  0.9182
 1718TIP3    H226646   6.234   3.750  16.103  0.5090 -0.8304  0.9790
 1719TIP3   OH226647   3.890   4.399  17.388  0.6141 -0.3934  0.6040
 1719TIP3    H126648   3.796   4.393  17.375  0.5174  0.9920  0.4668
 1719TIP3    H226649   3.901   4.412  17.483  0.5479  0.7981  0.4717
 1720TIP3   OH226650   3.008   0.120  11.100  0.4545 -0.5975 -0.0892
 1720TIP3    H126651   3.011   0.203  11.052 -0.3955 -0.2674  0.4020
 1720TIP3    H226652   2.935   0.072  11.060  0.8387 -1.0494 -0.2628
 1721TIP3   OH226653   4.176   5.436   1.245 -0.9283 -0.4477  0.1503
 1721TIP3    H126654   4.088   5.449   1.283 -0.2936  3.4412  0.7026
 1721TIP3    H226655   4.234   5.484   1.303  1.0927  0.0004 -2.1002
 1722TIP3   OH226656   2.007   3.685   0.071  0.1215 -0.2067 -0.2198
 1722TIP3    H126657   2.054   3.615   0.025 -2.5730 -1.4737 -1.2178
 1722TIP3    H226658   2.002   3.756   0.007  1.5941  0.4103  0.2974
 1723TIP3   OH226659   5.618   5.419  13.784 -0.0600 -0.5867 -0.4564
 1723TIP3    H126660   5.662   5.482  13.726 -4.1664  0.0353 -3.3115
 1723TIP3    H226661   5.562   5.473  13.839 -0.4085 -1.5418  0.1451
 1724TIP3   OH226662   4.971   5.179  14.120 -0.0316 -0.3351 -0.3434
 1724TIP3    H126663   5.057   5.138  14.107  0.3719  0.5759 -0.6062
 1724TIP3    H226664   4.985   5.272  14.101 -1.2363 -0.2813 -1.1150
 1725TIP3   OH226665   4.283   6.001  14.709  0.3331 -0.1344  0.0383
 1725TIP3    H126666   4.324   5.997  14.623  0.6213  0.7133  0.1284
 1725TIP3    H226667   4.341   6.056  14.761 -0.4621  0.3648  0.4192
 1726TIP3   OH226668   4.015   4.002  15.084  0.0723  0.1992 -0.2702
 1726TIP3    H126669   4.003   3.948  15.005 -1.3247 -1.8040  1.2210
 1726TIP3    H226670   3.992   3.944  15.156  0.3011  2.2963  1.5799
 1727TIP3   OH226671   2.663   5.712   6.271  0.4623  0.2393  0.5378
 1727TIP3    H126672   2.656   5.759   6.353 -0.7300  0.8128  0.1320
 1727TIP3    H226673   2.735   5.754   6.225  0.6223  0.4227  0.9547
 1728TIP3   OH226674   6.488   0.778   5.396  0.2254 -0.2713  0.2997
 1728TIP3    H126675   6.559   0.830   5.434 -0.1342  1.2805 -1.0338
 1728TIP3    H226676   6.520   0.752   5.310 -1.5264  2.4392 -1.3629
 1729TIP3   OH226677   2.117   6.008   5.616 -0.4409  0.3018  0.5347
 1729TIP3    H126678   2.163   5.927   5.637  0.0609  0.0039 -1.5061
 1729TIP3    H226679   2.135   6.066   5.691 -0.7429 -1.3894  1.9916
 1730TIP3   OH226680   6.754   2.942  13.294  0.0363  0.0206  0.1157
 1730TIP3    H126681   6.720   3.007  13.356 -1.3668 -0.5451 -0.0098
 1730TIP3    H226682   6.846   2.933  13.316  0.4067  2.4424 -0.2030
 1731TIP3   OH226683   0.418   6.324  14.786 -0.4754 -0.7815  0.6087
 1731TIP3    H126684   0.409   6.353  14.876 -1.3536 -1.6016  0.7916
 1731TIP3    H226685   0.363   6.246  14.779 -2.2964  0.5352 -1.2068
 1732TIP3   OH226686   6.218   6.100  13.812 -0.1394 -0.1368 -0.1193
 1732TIP3    H126687   6.268   6.170  13.770  1.4867 -1.9481 -1.3571
 1732TIP3    H226688   6.243   6.020  13.766 -2.1731 -1.5478  1.0073
 1733TIP3   OH226689   5.764   4.383   0.507  0.1166 -0.1243 -0.2383
 1733TIP3    H126690   5.725   4.471   0.511  0.1200 -0.0499 -1.6085
 1733TIP3    H226691   5.694   4.327   0.476  0.3520 -0.4683 -0.1539
 1734TIP3   OH226692   6.292   0.810  12.684  0.3116  0.2929 -0.3607
 1734TIP3    H126693   6.320   0.852  12.765 -1.5301  2.0542 -0.5651
 1734TIP3    H226694   6.342   0.854  12.615  0.2833  0.3267 -0.3591
 1735TIP3   OH226695   3.535   0.012   3.666  0.1914  0.5197 -0.0662
 1735TIP3    H126696   3.472   0.047   3.729  1.0932  1.1515  0.4920
 1735TIP3    H226697   3.499   0.036   3.581 -1.2308 -0.6613  0.1636
 1736TIP3   OH226698   4.182   4.039  16.738  0.3692  0.0432 -0.5848
 1736TIP3    H126699   4.245   4.111  16.740  1.6292 -1.0209 -0.2863
 1736TIP3    H226700   4.103   4.075  16.779 -0.1449  2.1822 -3.1725
 1737TIP3   OH226701   3.915   1.225  12.606 -0.3221 -0.6710  0.5011
 1737TIP3    H126702   3.868   1.302  12.639  0.6094  0.1358 -0.0144
 1737TIP3    H226703   3.989   1.215  12.665  1.0318  0.4364 -0.9218
 1738TIP3   OH226704   6.025   4.888   0.582  0.6038 -0.3368 -0.6108
 1738TIP3    H126705   6.053   4.918   0.669 -0.8454 -0.9112  0.0882
 1738TIP3    H226706   6.105   4.893   0.529  1.4044  0.5546  0.5906
 1739TIP3   OH226707   4.824   3.934  13.843 -0.2877 -0.2267 -0.2092
 1739TIP3    H126708   4.850   3.937  13.935 -0.5434 -1.0909 -0.1017
 1739TIP3    H226709   4.822   3.841  13.822  1.5938 -0.0031 -1.6203
 1740TIP3   OH226710   5.405   2.642   4.896 -0.3569  0.6803 -0.3270
 1740TIP3    H126711   5.325   2.593   4.877  0.1723 -0.9361  1.2719
 1740TIP3    H226712   5.377   2.733   4.900 -1.9675  0.2296 -0.6147
 1741TIP3   OH226713   2.917   6.146  16.307  0.6339  0.3280 -0.1895
 1741TIP3    H126714   3.001   6.103  16.324  1.1289  0.8262 -1.2913
 1741TIP3    H226715   2.865   6.130  16.386  1.5783 -0.4242  0.2951
 1742TIP3   OH226716   1.561   0.901   4.022  0.1855  0.1082  0.3313
 1742TIP3    H126717   1.656   0.900   4.017  0.3153  2.4277  1.2096
 1742TIP3    H226718   1.532   0.900   3.931  1.2192  3.2794 -0.1476
 1743TIP3   OH226719   1.654   1.042   0.486  0.7742  0.6876 -0.3141
 1743TIP3    H126720   1.745   1.057   0.512  1.7278 -0.5901 -2.6580
 1743TIP3    H226721   1.626   1.125   0.448  0.5190  1.4473  1.4164
 1744TIP3   OH226722   4.574   2.510  13.074 -0.1784  0.5332 -0.2885
 1744TIP3    H126723   4.612   2.423  13.062 -1.3833  0.1692 -1.7839
 1744TIP3    H226724   4.547   2.537  12.987  0.1666  2.4416  0.1351
 1745TIP3   OH226725   4.196   4.774   4.258 -0.3579 -0.4083 -0.0748
 1745TIP3    H126726   4.283   4.755   4.223 -0.3006 -1.6089  0.6798
 1745TIP3    H226727   4.212   4.835   4.330 -0.5376  2.7636 -2.4528
 1746TIP3   OH226728   4.598   4.032   3.041 -0.4701 -0.1910 -0.0705
 1746TIP3    H126729   4.669   4.053   3.102  1.1285 -1.5526 -1.3550
 1746TIP3    H226730   4.567   4.117   3.009  1.0136  0.4290  0.0632
 1747TIP3   OH226731   1.690   3.807   3.834 -0.1619  0.6592  0.4189
 1747TIP3    H126732   1.693   3.745   3.907  1.2938 -0.9895 -0.9678
 1747TIP3    H226733   1.609   3.856   3.848 -1.2571 -1.3840  1.7245
 1748TIP3   OH226734   3.578   6.654  14.143 -0.4358  0.4013 -0.2678
 1748TIP3    H126735   3.662   6.613  14.123 -0.2165  1.4151 -1.5722
 1748TIP3    H226736   3.536   6.666  14.058 -1.0330  1.7148  0.1776
 1749TIP3   OH226737   4.394   3.360   4.981  0.6127  0.2454  0.0586
 1749TIP3    H126738   4.457   3.288   4.976 -1.2271 -1.3999 -1.2761
 1749TIP3    H226739   4.367   3.374   4.890 -1.2400  0.5721  0.6211
 1750TIP3   OH226740   1.727   0.654  11.513 -1.0703  0.4515 -0.2423
 1750TIP3    H126741   1.648   0.605  11.536 -0.8369 -0.1998 -0.8180
 1750TIP3    H226742   1.695   0.724  11.456 -1.0241 -0.9263 -2.0378
 1751TIP3   OH226743   2.221   3.476  16.713 -0.1676  0.4412 -0.0468
 1751TIP3    H126744   2.297   3.430  16.748 -1.0248  1.0490  2.8228
 1751TIP3    H226745   2.181   3.414  16.652  0.8282 -1.1092  0.8208
 1752TIP3   OH226746   3.938   0.578  14.322 -0.3954 -0.1246  0.4599
 1752TIP3    H126747   3.948   0.645  14.390 -2.0244 -1.3110  1.9566
 1752TIP3    H226748   3.946   0.495  14.369 -1.2870 -0.9963 -0.8646
 1753TIP3   OH226749   6.242   3.517   4.090  0.3680 -0.2590  0.9342
 1753TIP3    H126750   6.200   3.602   4.079 -0.0593 -0.4532  1.0216
 1753TIP3    H226751   6.286   3.523   4.175 -0.4994 -0.4555  1.4205
 1754TIP3   OH226752   1.423   6.550   4.148 -0.0223 -0.3026  0.5887
 1754TIP3    H126753   1.341   6.571   4.192 -1.0603  0.6650 -1.6515
 1754TIP3    H226754   1.489   6.600   4.196 -1.1242  0.8358  0.9674
 1755TIP3   OH226755   6.644   4.756   0.612  0.1235  0.0651 -0.1690
 1755TIP3    H126756   6.589   4.678   0.605 -1.1800  0.7911  1.2623
 1755TIP3    H226757   6.720   4.737   0.557 -0.2700 -2.1011 -0.0582
 1756TIP3   OH226758   0.923   0.472  12.181  0.4154  0.1251 -0.6120
 1756TIP3    H126759   0.866   0.411  12.135  1.7328 -0.3716 -1.6458
 1756TIP3    H226760   0.954   0.423  12.257  0.5800 -0.1037 -0.8247
 1757TIP3   OH226761   1.117   0.703   0.247 -0.4371  0.1379 -0.3811
 1757TIP3    H126762   1.182   0.639   0.217  0.6507  1.1502 -0.2528
 1757TIP3    H226763   1.105   0.684   0.340  0.3214  0.4598 -0.2053
 1758TIP3   OH226764   4.420   1.380  11.580 -0.0290  0.3271 -0.2492
 1758TIP3    H126765   4.482   1.421  11.520 -0.8791  1.2469 -0.5378
 1758TIP3    H226766   4.471   1.315  11.628  0.5043 -1.0896 -2.5866
 1759TIP3   OH226767   1.581   2.015   1.189 -0.0937  0.4133  0.0144
 1759TIP3    H126768   1.604   1.986   1.277 -1.8463  1.3197  0.8186
 1759TIP3    H226769   1.606   2.107   1.187 -0.3137  0.4683 -0.3438
 1760TIP3   OH226770   2.739   5.769  15.067 -0.1024  0.1923 -0.0785
 1760TIP3    H126771   2.805   5.830  15.098 -0.5605  0.7637 -0.2159
 1760TIP3    H226772   2.668   5.824  15.035 -1.1645 -0.4141  1.1539
 1761TIP3   OH226773   5.059   1.706   3.854  0.3217  0.5899 -0.0408
 1761TIP3    H126774   5.020   1.793   3.842 -0.1735  0.4419  0.4268
 1761TIP3    H226775   5.092   1.682   3.768 -1.4146  0.3521 -0.6870
 1762TIP3   OH226776   4.042   6.662   3.253 -0.4254 -0.0677 -0.6651
 1762TIP3    H126777   3.977   6.724   3.288 -1.0017 -1.0559  0.0605
 1762TIP3    H226778   3.996   6.578   3.250  0.8766 -0.8321  0.0403
 1763TIP3   OH226779   5.298   1.582   3.377  0.7728 -0.2925  0.2801
 1763TIP3    H126780   5.328   1.497   3.407 -0.5727 -1.5001 -1.6159
 1763TIP3    H226781   5.204   1.573   3.369  0.3775  1.9280  1.5922
 1764TIP3   OH226782   4.255   5.659   2.631  0.2721  0.3509  0.0086
 1764TIP3    H126783   4.267   5.741   2.582  0.3420  0.3552  0.0326
 1764TIP3    H226784   4.336   5.610   2.615  1.0378  1.0706  1.5161
 1765TIP3   OH226785   2.549   6.352   0.479  0.2998  0.0547 -0.3683
 1765TIP3    H126786   2.595   6.388   0.555 -2.7421  0.9667  1.1943
 1765TIP3    H226787   2.593   6.393   0.403  2.3750  0.3588  0.9117
 1766TIP3   OH226788   0.558   2.232  13.818 -0.5509 -0.0679 -0.4820
 1766TIP3    H126789   0.653   2.237  13.812 -0.4700 -0.8546 -0.0514
 1766TIP3    H226790   0.537   2.142  13.791 -0.9877 -0.5455  1.3105
 1767TIP3   OH226791   1.982   3.279  14.103 -0.5281  0.7541  0.7493
 1767TIP3    H126792   2.069   3.319  14.113  0.8005 -1.5656 -0.5714
 1767TIP3    H226793   1.954   3.261  14.193  0.8741  0.5483  1.1793
 1768TIP3   OH226794   1.736   1.048  15.026  0.0762  0.5265  0.6059
 1768TIP3    H126795   1.770   1.087  14.946 -0.0316  1.1135  0.8375
 1768TIP3    H226796   1.789   0.970  15.040  1.9134  1.8423  1.3914
 1769TIP3   OH226797   6.154   4.994   1.463  0.0244  0.3026 -0.1928
 1769TIP3    H126798   6.103   4.942   1.526  0.3483  0.8222  0.5142
 1769TIP3    H226799   6.098   5.068   1.442 -0.2500 -0.0793 -0.8487
 1770TIP3   OH226800   3.299   0.595   2.460  0.0222 -0.3515  0.1322
 1770TIP3    H126801   3.259   0.540   2.393 -0.0796  0.7415 -0.7451
 1770TIP3    H226802   3.227   0.614   2.521 -0.1001 -0.6572  0.0862
 1771TIP3   OH226803   5.115   3.469   2.994  0.5178  0.2433  0.0433
 1771TIP3    H126804   5.201   3.489   3.032  0.1291 -0.6384  1.4545
 1771TIP3    H226805   5.119   3.375   2.975  0.7540  0.6724 -2.3454
 1772TIP3   OH226806   6.198   6.252  17.385 -0.0697  0.2549  0.1812
 1772TIP3    H126807   6.183   6.163  17.352  1.6865 -0.4411  1.1365
 1772TIP3    H226808   6.224   6.302  17.307  2.2641 -0.9286  0.1091
 1773TIP3   OH226809   0.627   5.513   3.300 -0.1702 -0.3220  0.2083
 1773TIP3    H126810   0.662   5.495   3.213  1.4146  0.5551  0.6248
 1773TIP3    H226811   0.563   5.582   3.287 -1.5100 -1.6565 -0.5158
 1774TIP3   OH226812   6.403   4.488   0.020 -0.1397  0.5164  0.1358
 1774TIP3    H126813   6.465   4.451   0.083 -1.6366 -2.4632  0.0644
 1774TIP3    H226814   6.337   4.419   0.008 -1.0552  1.7594 -3.1470
 1775TIP3   OH226815   1.599   2.044   1.798 -0.2344  0.3317  0.2155
 1775TIP3    H126816   1.613   2.062   1.705  0.8524 -0.6098  0.1754
 1775TIP3    H226817   1.663   1.976   1.819  0.4506  1.4664  1.9696
 1776TIP3   OH226818   2.624   2.978  11.059  0.0193 -0.2898 -0.1601
 1776TIP3    H126819   2.653   3.066  11.034  0.7687 -0.1800  1.0276
 1776TIP3    H226820   2.529   2.981  11.047  0.0696  0.5701 -0.4533
 1777TIP3   OH226821   1.663   3.118  10.732  0.4030  0.2793 -0.4804
 1777TIP3    H126822   1.576   3.091  10.763  0.4000 -1.1861 -1.5972
 1777TIP3    H226823   1.721   3.045  10.756  0.6253 -0.3574 -2.6505
 1778TIP3   OH226824   6.319   6.225   5.940  0.3763  0.0242  0.0144
 1778TIP3    H126825   6.352   6.216   6.029 -0.5232  0.1568  0.3662
 1778TIP3    H226826   6.299   6.318   5.931 -0.7383 -0.1980  0.1108
 1779TIP3   OH226827   2.855   0.518  12.244 -0.1355 -0.0670  0.6082
 1779TIP3    H126828   2.941   0.525  12.287 -0.5881 -0.8572  1.6912
 1779TIP3    H226829   2.858   0.436  12.196  0.2202  0.6181 -0.5763
 1780TIP3   OH226830   2.164   1.237   2.551 -0.2584  0.4119  0.0350
 1780TIP3    H126831   2.187   1.149   2.580 -0.3451  0.0905 -0.8476
 1780TIP3    H226832   2.164   1.232   2.455 -3.2894  0.5392 -0.0817
 1781TIP3   OH226833   0.887   4.296   1.345  0.2377 -0.8297  0.2606
 1781TIP3    H126834   0.903   4.268   1.436 -1.4778 -0.2509  0.7734
 1781TIP3    H226835   0.898   4.216   1.294 -1.7611 -1.8763  1.3698
 1782TIP3   OH226836   2.457   5.824   0.371  0.3537 -0.0296  0.1366
 1782TIP3    H126837   2.402   5.901   0.364  1.8096  1.0777  0.3832
 1782TIP3    H226838   2.544   5.854   0.345  1.2517 -1.2366  1.5950
 1783TIP3   OH226839   0.207   5.268  13.202 -0.0731  0.0626 -0.1675
 1783TIP3    H126840   0.188   5.358  13.225 -0.5665  0.3654 -1.6350
 1783TIP3    H226841   0.145   5.247  13.132 -0.4962 -1.6752  0.6551
 1784TIP3   OH226842   6.513   1.317  13.966 -0.4910  0.0628  0.0618
 1784TIP3    H126843   6.587   1.372  13.939  0.3847 -1.5665 -0.9917
 1784TIP3    H226844   6.486   1.354  14.050 -0.2969  2.4149 -0.8387
 1785TIP3   OH226845   1.193   1.531   3.879  0.6585  0.2890  0.2424
 1785TIP3    H126846   1.101   1.522   3.903  0.4932  2.2138  0.4940
 1785TIP3    H226847   1.234   1.569   3.956  1.3283  1.0166 -0.4572
 1786TIP3   OH226848   4.971   3.894   1.633  0.0495  0.0923  0.1802
 1786TIP3    H126849   5.033   3.868   1.701  0.0744 -0.6180 -0.1088
 1786TIP3    H226850   4.885   3.877   1.673 -0.0661  2.9043  1.3327
 1787TIP3   OH226851   0.141   0.168  11.687  0.2207 -0.5979 -0.1193
 1787TIP3    H126852   0.140   0.178  11.592  0.3490 -0.0247 -0.0601
 1787TIP3    H226853   0.228   0.131  11.706  0.3646 -0.2904 -0.1813
 1788TIP3   OH226854   4.393   3.417  15.899 -0.2795 -0.3010  0.2335
 1788TIP3    H126855   4.372   3.390  15.988  1.1041 -1.0206  0.3656
 1788TIP3    H226856   4.408   3.336  15.851 -0.4879  0.0944 -0.5246
 1789TIP3   OH226857   3.072   4.796   0.722 -0.2082 -0.1078  0.1818
 1789TIP3    H126858   3.092   4.808   0.815 -0.8138 -1.2771  0.4748
 1789TIP3    H226859   3.043   4.883   0.693  0.7311  0.4693  0.8687
 1790TIP3   OH226860   5.457   2.241  16.113  0.4781 -0.1875 -0.4690
 1790TIP3    H126861   5.514   2.174  16.148 -0.0888 -0.1359  0.5725
 1790TIP3    H226862   5.394   2.259  16.183 -0.5642  0.0468 -1.4319
 1791TIP3   OH226863   6.568   0.040   4.533 -0.3049  0.3133 -0.4218
 1791TIP3    H126864   6.656   0.075   4.518  0.4449 -1.1936  0.2394
 1791TIP3    H226865   6.582  -0.037   4.588 -1.9888 -0.3270 -0.8225
 1792TIP3   OH226866   3.567   1.866  14.157  0.2310  0.3054  0.4420
 1792TIP3    H126867   3.652   1.896  14.125 -0.3608  0.4220 -1.1157
 1792TIP3    H226868   3.579   1.856  14.251  1.7513  1.0362  0.3585
 1793TIP3   OH226869   0.555   4.998  14.603 -0.1015 -0.7942 -0.4730
 1793TIP3    H126870   0.598   4.912  14.599 -1.0320 -1.3326  0.4822
 1793TIP3    H226871   0.462   4.977  14.612 -0.2198  0.2699  1.1916
 1794TIP3   OH226872   5.940   4.409  13.942  0.5978 -0.2208  0.2241
 1794TIP3    H126873   5.995   4.458  14.003  1.1865 -1.7179  0.9264
 1794TIP3    H226874   5.956   4.451  13.857  2.4347 -0.2917  0.4953
 1795TIP3   OH226875   1.204   6.272   1.668 -0.6294  0.1560  0.4513
 1795TIP3    H126876   1.279   6.268   1.608  0.5844 -1.1121  1.9730
 1795TIP3    H226877   1.129   6.246   1.614  0.3751 -0.6030 -0.6342
 1796TIP3   OH226878   1.013   1.578   3.605  0.1111  0.6613 -0.0941
 1796TIP3    H126879   1.059   1.527   3.538 -0.1375 -0.0148  0.2369
 1796TIP3    H226880   1.066   1.567   3.684 -1.2639 -1.2628  0.6553
 1797TIP3   OH226881   0.778   3.723   3.245 -0.0523 -0.2341  0.0156
 1797TIP3    H126882   0.854   3.697   3.298  0.1605  2.0727  0.9641
 1797TIP3    H226883   0.703   3.691   3.295  0.2125  0.3168  0.7946
 1798TIP3   OH226884   5.905   5.640  12.044  0.0365  0.0762 -0.7368
 1798TIP3    H126885   5.981   5.691  12.017  2.9257 -2.0691  2.4766
 1798TIP3    H226886   5.923   5.551  12.015 -1.3658 -0.4607 -0.0923
 1799TIP3   OH226887   1.270   1.313  16.570 -0.0963 -0.2864 -0.1354
 1799TIP3    H126888   1.261   1.408  16.565 -1.8022 -0.4734 -1.5259
 1799TIP3    H226889   1.336   1.292  16.504 -0.7138 -0.1583 -0.8109
 1800TIP3   OH226890   2.124   1.565   4.628  0.6662  0.3668  0.3746
 1800TIP3    H126891   2.202   1.620   4.622  0.5288  0.5631  0.4026
 1800TIP3    H226892   2.147   1.486   4.578  0.9190  0.3803  0.4677
 1801TIP3   OH226893   1.618   6.339  12.192 -0.6467  0.0590  0.3824
 1801TIP3    H126894   1.541   6.287  12.168 -1.7896  0.7935  2.2197
 1801TIP3    H226895   1.612   6.417  12.136 -1.2135  0.0730  0.4541
 1802TIP3   OH226896   4.951   4.648   6.452 -0.2157 -0.6210  0.5376
 1802TIP3    H126897   5.031   4.693   6.423 -0.0051 -1.2692  0.1089
 1802TIP3    H226898   4.893   4.719   6.480 -0.5613  0.1031 -1.7572
 1803TIP3   OH226899   4.690   5.945  16.228 -0.0224  0.2224 -0.1855
 1803TIP3    H126900   4.720   5.988  16.148  0.1207 -0.2500 -0.3872
 1803TIP3    H226901   4.675   6.017  16.289 -0.1257  0.5901 -0.6336
 1804TIP3   OH226902   2.624   6.499  16.179  0.0631 -0.0254  0.4012
 1804TIP3    H126903   2.678   6.565  16.222  1.4437 -0.4521 -0.5674
 1804TIP3    H226904   2.534   6.530  16.188  0.3004  0.0344  3.2663
 1805TIP3   OH226905   6.718   1.189   6.234  0.0737 -0.4388  0.3891
 1805TIP3    H126906   6.674   1.113   6.197 -0.7554  0.3366 -0.2868
 1805TIP3    H226907   6.653   1.260   6.228  0.2772 -0.0176  2.4051
 1806TIP3   OH226908   3.710   5.140  15.832  0.0877 -0.4867  0.4156
 1806TIP3    H126909   3.716   5.204  15.903 -1.2588  0.1109  0.0192
 1806TIP3    H226910   3.688   5.057  15.875  0.0136 -0.2873  0.7565
 1807TIP3   OH226911   0.720   2.122   6.832  0.0577  0.2542  0.2679
 1807TIP3    H126912   0.643   2.091   6.784  1.4802 -0.8332 -1.4614
 1807TIP3    H226913   0.707   2.217   6.838 -2.5854 -0.1251  2.3189
 1808TIP3   OH226914   6.343   2.719   5.633  0.1149 -0.3972 -0.5183
 1808TIP3    H126915   6.296   2.781   5.689  0.1492 -0.6553 -0.2029
 1808TIP3    H226916   6.408   2.679   5.691  1.2170  0.4693 -1.1043
 1809TIP3   OH226917   3.868   3.681   1.084  0.3339  0.3364 -0.1446
 1809TIP3    H126918   3.803   3.711   1.021  0.5950  0.4653 -0.3516
 1809TIP3    H226919   3.858   3.586   1.085  0.4769  0.3185 -0.5349
 1810TIP3   OH226920   1.455   0.889  13.945  0.0763 -0.5523 -0.3761
 1810TIP3    H126921   1.498   0.820  13.893 -0.5346 -1.9133  0.8505
 1810TIP3    H226922   1.368   0.896  13.906 -0.1458 -1.0816  0.0141
 1811TIP3   OH226923   6.443   2.852  10.872  0.1966  0.5465 -0.3498
 1811TIP3    H126924   6.383   2.926  10.865  0.1838  0.9511  2.7851
 1811TIP3    H226925   6.420   2.796  10.798 -1.1695  2.6623 -1.6489
 1812TIP3   OH226926   1.889   0.302  14.456 -0.2147  0.3144 -0.5745
 1812TIP3    H126927   1.963   0.356  14.427  0.3807 -0.0911  0.1504
 1812TIP3    H226928   1.841   0.282  14.375 -0.5576  2.0606 -0.8373
 1813TIP3   OH226929   3.796   2.098  15.632  0.2096 -0.2174  0.0088
 1813TIP3    H126930   3.702   2.106  15.614  0.4621 -2.2641 -2.8943
 1813TIP3    H226931   3.804   2.015  15.680  0.6518 -0.9671 -1.3230
 1814TIP3   OH226932   5.643   2.845   3.251 -0.5033  0.2310  0.5498
 1814TIP3    H126933   5.693   2.794   3.315  2.1913  0.2526 -1.3494
 1814TIP3    H226934   5.685   2.931   3.250 -2.2259  1.1225  0.6152
 1815TIP3   OH226935   1.614   5.724   2.156  0.0631 -0.0837 -0.6615
 1815TIP3    H126936   1.549   5.654   2.158 -0.8081  0.7181  0.5573
 1815TIP3    H226937   1.563   5.803   2.138  0.6372  0.6106  0.6104
 1816TIP3   OH226938   2.719   5.757   5.872 -0.3876  0.4420 -0.2638
 1816TIP3    H126939   2.788   5.753   5.939 -0.8194  1.0657  0.2337
 1816TIP3    H226940   2.667   5.678   5.887 -2.3730  2.0738  2.2763
 1817TIP3   OH226941   1.198   1.378   0.618  0.2881  0.0442 -0.7448
 1817TIP3    H126942   1.146   1.326   0.679 -0.1858  3.0294  1.5945
 1817TIP3    H226943   1.140   1.393   0.543 -0.1125 -1.3922 -0.7490
 1818TIP3   OH226944   5.786   0.143   2.634  0.2662 -0.0299  0.4826
 1818TIP3    H126945   5.755   0.068   2.583  0.9959  1.0029 -1.6051
 1818TIP3    H226946   5.881   0.141   2.623  0.4713  0.0762  2.0749
 1819TIP3   OH226947   5.605   5.591   5.885 -0.9441 -0.0507  0.0796
 1819TIP3    H126948   5.636   5.572   5.974 -1.3155  2.5280  0.8459
 1819TIP3    H226949   5.671   5.650   5.849 -0.7507 -1.1464 -1.4386
 1820TIP3   OH226950   1.371   0.567   1.747  0.1886  0.2495 -0.3385
 1820TIP3    H126951   1.424   0.554   1.668  0.6386 -0.2987  0.0437
 1820TIP3    H226952   1.310   0.493   1.747 -1.0333  1.2086 -1.1088
 1821TIP3   OH226953   0.381   0.027  12.272  0.3335 -0.0005 -0.8089
 1821TIP3    H126954   0.298  -0.017  12.254  0.4566 -0.7372  0.2976
 1821TIP3    H226955   0.391   0.021  12.367  1.8076 -0.2411 -0.9541
 1822TIP3   OH226956   3.122   6.149  13.469 -0.0911  0.5143 -0.1257
 1822TIP3    H126957   3.089   6.165  13.380  0.6776  3.4202  0.0122
 1822TIP3    H226958   3.198   6.092  13.456  1.5287  2.8708 -1.6856
 1823TIP3   OH226959   3.379   1.660  11.825 -0.4897  0.2482 -0.5151
 1823TIP3    H126960   3.309   1.715  11.789 -1.7176 -1.5785 -1.0361
 1823TIP3    H226961   3.375   1.579  11.774 -0.3494 -1.2934  1.7828
 1824TIP3   OH226962   3.277   1.844  14.829  0.2052 -0.9083  0.0535
 1824TIP3    H126963   3.367   1.877  14.827  1.0517 -2.9634  1.0918
 1824TIP3    H226964   3.234   1.898  14.894  1.5326 -1.6935  1.6741
 1825TIP3   OH226965   0.584   1.531  13.827  0.1474 -0.0537 -0.4217
 1825TIP3    H126966   0.533   1.520  13.907  0.0438 -1.0542 -0.6240
 1825TIP3    H226967   0.607   1.624  13.827  0.4940 -0.1153  0.9745
 1826TIP3   OH226968   1.300   5.180  14.952  0.1053  0.2770  0.2540
 1826TIP3    H126969   1.360   5.178  15.027 -1.3922 -2.4924  1.5359
 1826TIP3    H226970   1.355   5.158  14.877  0.7858 -2.2091  1.3818
 1827TIP3   OH226971   6.078   0.889   3.730 -0.0070  0.3113  0.7795
 1827TIP3    H126972   6.072   0.795   3.747  1.9726  0.0906  0.5501
 1827TIP3    H226973   6.038   0.930   3.807 -0.1535 -0.7075  1.2648
 1828TIP3   OH226974   0.026   0.954  11.444 -0.2401  0.2936 -0.7086
 1828TIP3    H126975   0.038   0.944  11.539 -0.6577 -1.0150 -0.7669
 1828TIP3    H226976   0.112   0.935  11.407  0.2028  1.8662 -0.5610
 1829TIP3   OH226977   4.952   0.509   4.301  0.0774 -0.1427  0.1979
 1829TIP3    H126978   5.036   0.500   4.257 -0.3191  0.9476 -0.8504
 1829TIP3    H226979   4.897   0.556   4.238 -0.9354  0.2666  1.3435
 1830TIP3   OH226980   0.130   1.936  17.048  0.0442 -0.4350  0.8717
 1830TIP3    H126981   0.159   2.023  17.073  1.8939 -0.6127 -0.4612
 1830TIP3    H226982   0.100   1.945  16.958  0.4372 -1.2033  0.6522
 1831TIP3   OH226983   3.453   5.046  14.737  0.1736 -0.1551  0.1464
 1831TIP3    H126984   3.384   5.088  14.788  0.5909 -0.4504  0.9697
 1831TIP3    H226985   3.496   4.987  14.798  0.0986 -1.2201 -0.7981
 1832TIP3   OH226986   4.686   6.702  16.605 -0.1499  0.8740 -0.7259
 1832TIP3    H126987   4.630   6.758  16.660  1.0623  1.1658  0.2702
 1832TIP3    H226988   4.771   6.705  16.648  0.3783 -0.3729 -1.6367
 1833TIP3   OH226989   2.298   2.727  16.883 -0.2373 -0.0676 -0.2170
 1833TIP3    H126990   2.372   2.788  16.875 -0.4420  0.2932  0.5513
 1833TIP3    H226991   2.335   2.641  16.864  0.2559  0.1847 -0.4037
 1834TIP3   OH226992   6.053   5.673  17.019  0.5305 -0.6728  0.1437
 1834TIP3    H126993   6.021   5.760  16.996  1.5305 -0.6956 -1.6040
 1834TIP3    H226994   5.980   5.615  17.002  0.1409 -0.2669  0.4242
 1835TIP3   OH226995   6.108   5.782  12.610  0.0857  0.6612  0.3056
 1835TIP3    H126996   6.184   5.785  12.552 -0.7786 -0.3636 -0.9158
 1835TIP3    H226997   6.143   5.750  12.693  0.5703 -2.8938 -1.0882
 1836TIP3   OH226998   5.604   2.727   3.717  0.1558 -1.0596  0.0017
 1836TIP3    H126999   5.547   2.666   3.670 -2.0850 -0.0167  1.2161
 1836TIP3    H227000   5.611   2.691   3.805  0.6215 -0.6791  0.1278
 1837TIP3   OH227001   2.492   3.689   5.745 -1.2309  0.2340 -0.1331
 1837TIP3    H127002   2.416   3.641   5.712 -1.5153  0.2918  0.4226
 1837TIP3    H227003   2.523   3.637   5.819 -0.1444 -0.2891 -0.9378
 1838TIP3   OH227004   5.778   3.021   4.226  0.1068  0.4238  0.2703
 1838TIP3    H127005   5.789   3.104   4.181  0.9623  0.2411  0.1258
 1838TIP3    H227006   5.854   2.969   4.200 -1.2412 -1.0133 -0.9530
 1839TIP3   OH227007   3.094   3.569   2.987 -0.5536  0.0730 -0.3628
 1839TIP3    H127008   3.071   3.609   3.071 -2.1910  0.0530 -0.7788
 1839TIP3    H227009   3.176   3.612   2.963  0.4140 -0.5279  1.6241
 1840TIP3   OH227010   2.449   6.109   6.620  0.1097 -0.3596  0.0180
 1840TIP3    H127011   2.390   6.095   6.545  1.1697 -0.0641 -0.9073
 1840TIP3    H227012   2.394   6.153   6.685 -0.2794  1.5931 -1.5167
 1841TIP3   OH227013   4.902   3.507  11.596  0.3177 -0.2333  0.0267
 1841TIP3    H127014   4.851   3.478  11.520  0.6334 -0.4430 -0.1101
 1841TIP3    H227015   4.976   3.554  11.558  0.8373 -0.9098  0.1672
 1842TIP3   OH227016   3.017   1.794  12.162  0.4037 -0.2280  0.2271
 1842TIP3    H127017   3.030   1.776  12.256  1.4305 -2.1875 -0.2460
 1842TIP3    H227018   3.085   1.743  12.118 -0.0442  0.6767 -1.6090
 1843TIP3   OH227019   0.029   5.983   5.215 -0.1573  0.1003  0.3768
 1843TIP3    H127020   0.065   6.067   5.187  0.0325 -0.4821 -1.2179
 1843TIP3    H227021   0.106   5.931   5.241 -0.3539  0.7557  2.4776
 1844TIP3   OH227022   2.581   4.394   6.232  0.1759  0.3102 -0.3814
 1844TIP3    H127023   2.659   4.443   6.262  1.0593 -0.1550 -1.8198
 1844TIP3    H227024   2.510   4.428   6.286  1.1185  1.7798  0.0016
 1845TIP3   OH227025   4.438   3.414   0.224 -0.5172 -0.2841  0.1251
 1845TIP3    H127026   4.502   3.482   0.203  0.6254 -1.2125  0.4655
 1845TIP3    H227027   4.473   3.334   0.185 -1.6473 -0.7569  0.0342
 1846TIP3   OH227028   3.180   4.218  16.424  0.4130  0.1558  0.1659
 1846TIP3    H127029   3.158   4.133  16.385 -0.5568  0.3676  0.2361
 1846TIP3    H227030   3.155   4.210  16.516 -1.6733  1.1922 -0.2552
 1847TIP3   OH227031   0.362   3.418  12.986 -0.3259 -0.2376  0.1624
 1847TIP3    H127032   0.441   3.447  13.032 -0.0575 -0.1632 -0.3268
 1847TIP3    H227033   0.395   3.359  12.917 -0.7516 -0.6693  0.3227
 1848TIP3   OH227034   5.012   0.324   1.110 -0.1653  0.2949  0.3721
 1848TIP3    H127035   4.955   0.257   1.148  0.6045 -0.0462  0.9455
 1848TIP3    H227036   5.086   0.330   1.171 -0.2929  1.7787  0.4187
 1849TIP3   OH227037   0.039   0.970   4.504 -0.1274 -0.0383 -0.5255
 1849TIP3    H127038  -0.013   0.894   4.530 -1.3949  0.8391 -0.4060
 1849TIP3    H227039   0.130   0.942   4.516 -0.5808 -1.2677  0.2329
 1850TIP3   OH227040   3.293   5.875  12.157  0.1189 -0.0199 -0.0383
 1850TIP3    H127041   3.324   5.860  12.246  0.7697  0.2110 -0.2119
 1850TIP3    H227042   3.213   5.925  12.167  0.4985  0.5145  0.4086
 1851TIP3   OH227043   3.762   2.194   3.621  0.1676  0.4508 -0.2372
 1851TIP3    H127044   3.782   2.266   3.563 -0.0090  0.5500 -0.1759
 1851TIP3    H227045   3.847   2.165   3.655  0.1222  1.7149  1.0422
 1852TIP3   OH227046   4.040   4.492   0.823  0.9668 -0.1919 -0.2337
 1852TIP3    H127047   4.045   4.587   0.809 -1.6778 -0.1607 -1.4433
 1852TIP3    H227048   4.049   4.482   0.918  1.4064  1.2450 -0.0890
 1853TIP3   OH227049   2.610   1.446   2.929  0.0636 -0.2361 -0.0555
 1853TIP3    H127050   2.699   1.414   2.941  1.2128  1.6552 -2.5070
 1853TIP3    H227051   2.555   1.369   2.938  2.1456 -1.8421 -0.3478
 1854TIP3   OH227052   5.612   5.160   3.889  0.8476  0.4184 -0.1646
 1854TIP3    H127053   5.581   5.224   3.953  3.2829  0.1907  1.3645
 1854TIP3    H227054   5.583   5.075   3.923  1.2396  0.3777  0.0655
 1855TIP3   OH227055   1.644   0.960  11.638 -0.2839  0.7798  0.1214
 1855TIP3    H127056   1.628   0.959  11.543 -1.0979  0.7385  0.2479
 1855TIP3    H227057   1.580   0.899  11.674  0.9871 -0.3217  0.5728
 1856TIP3   OH227058   3.781   1.438  14.353 -0.7135  0.5747 -0.1834
 1856TIP3    H127059   3.729   1.419  14.432  0.7437 -1.2962  0.4083
 1856TIP3    H227060   3.855   1.490  14.386  0.2321 -0.7385 -0.1516
 1857TIP3   OH227061   5.508   6.002   2.917 -0.2660 -0.3815  0.0945
 1857TIP3    H127062   5.579   5.948   2.882 -0.6199 -2.1556  1.9309
 1857TIP3    H227063   5.531   6.013   3.009 -2.1949 -0.7328  0.6538
 1858TIP3   OH227064   2.033   4.454  15.239  0.4042  0.6477  0.7371
 1858TIP3    H127065   2.047   4.375  15.291 -0.9409 -0.2059 -0.1318
 1858TIP3    H227066   1.962   4.500  15.283 -1.8255 -0.8543 -1.0627
 1859TIP3   OH227067   2.106   4.563   4.993  0.4872  0.4592  0.4843
 1859TIP3    H127068   2.090   4.477   5.033  0.7939 -0.3332 -1.0229
 1859TIP3    H227069   2.200   4.562   4.972  0.3191  0.8150 -0.3026
 1860TIP3   OH227070   2.431   5.313   1.424  0.2271 -0.3760 -0.5881
 1860TIP3    H127071   2.440   5.229   1.470  0.4248 -0.0467 -0.0062
 1860TIP3    H227072   2.509   5.319   1.369 -0.9032 -1.6227 -2.4173
 1861TIP3   OH227073   6.352   2.729   0.190 -0.1191  0.3253 -0.1494
 1861TIP3    H127074   6.291   2.661   0.163  0.5082 -0.9800  1.5715
 1861TIP3    H227075   6.345   2.796   0.122 -1.9579 -0.7026 -1.0330
 1862TIP3   OH227076   5.234   6.431   4.242  0.0158  0.5474  0.2815
 1862TIP3    H127077   5.227   6.485   4.163  0.9274  1.8307  1.0420
 1862TIP3    H227078   5.285   6.484   4.303 -0.4511 -0.5231  1.6556
 1863TIP3   OH227079   6.709   1.245  14.602 -0.0566  0.1703 -0.0733
 1863TIP3    H127080   6.790   1.294  14.585 -0.6785  1.3993  0.3930
 1863TIP3    H227081   6.700   1.245  14.697 -1.0447  0.7989 -0.1542
 1864TIP3   OH227082   1.800   3.904   2.515 -0.2902  0.3173 -0.0168
 1864TIP3    H127083   1.778   3.865   2.430  0.7398  0.6264 -0.4281
 1864TIP3    H227084   1.718   3.898   2.565 -1.0229  0.4984 -1.1583
 1865TIP3   OH227085   0.152   1.335   1.498  0.0709  0.6719 -0.1316
 1865TIP3    H127086   0.130   1.410   1.442 -2.0411 -0.2721 -0.6721
 1865TIP3    H227087   0.188   1.271   1.437 -0.2518  0.4179 -0.0543
 1866TIP3   OH227088   1.965   1.158   0.215 -0.3358  0.1193 -0.0814
 1866TIP3    H127089   1.983   1.070   0.246 -2.4481 -0.5479 -0.5834
 1866TIP3    H227090   1.874   1.155   0.183 -0.0453  2.1216 -1.3323
 1867TIP3   OH227091   3.179   5.806  14.103 -0.1332 -0.6398  0.2194
 1867TIP3    H127092   3.106   5.821  14.043  1.2302  0.1927 -1.3004
 1867TIP3    H227093   3.180   5.883  14.159 -0.2104 -0.4866  0.0135
 1868TIP3   OH227094   0.659   4.251   0.079 -0.4954  0.2922 -0.0850
 1868TIP3    H127095   0.666   4.319   0.011 -0.4432 -0.1705 -0.5462
 1868TIP3    H227096   0.732   4.268   0.138 -0.4489  0.6016 -0.2314
 1869TIP3   OH227097   6.095   4.683  14.630 -0.1935 -0.2883 -0.2462
 1869TIP3    H127098   6.139   4.639  14.557 -2.1699  0.9736 -2.3523
 1869TIP3    H227099   6.055   4.612  14.680 -1.4846 -1.0897 -2.3065
 1870TIP3   OH227100   4.226   5.578   6.259 -0.3119 -0.3762  0.4754
 1870TIP3    H127101   4.195   5.639   6.326 -0.7337  2.0843 -1.7865
 1870TIP3    H227102   4.146   5.544   6.220 -0.1403  0.2698 -0.4788
 1871TIP3   OH227103   4.095   2.201   6.340  0.0092 -0.3165 -0.4338
 1871TIP3    H127104   4.017   2.252   6.363 -0.3620 -0.3055 -1.6566
 1871TIP3    H227105   4.152   2.210   6.416 -1.2385 -0.4658  0.5696
 1872TIP3   OH227106   6.124   1.429   3.144 -0.5444  0.2001 -0.5869
 1872TIP3    H127107   6.046   1.428   3.088  0.4583  0.8684 -2.0631
 1872TIP3    H227108   6.186   1.371   3.100  0.1333  0.4083  0.0621
 1873TIP3   OH227109   6.127   0.714  17.453 -0.0661  0.0912  0.8631
 1873TIP3    H127110   6.177   0.786  17.416  0.1776 -0.5861 -0.1780
 1873TIP3    H227111   6.134   0.644  17.388  0.2040 -1.0891  2.1174
 1874TIP3   OH227112   6.045   0.989  17.039 -0.4196 -0.1569  0.4047
 1874TIP3    H127113   6.006   0.935  16.970 -0.4957 -0.3020  0.5592
 1874TIP3    H227114   5.987   0.977  17.114 -0.6595  0.4668  0.3158
 1875TIP3   OH227115   1.270   0.121  15.973 -0.4103 -0.3906 -0.3734
 1875TIP3    H127116   1.236   0.186  15.910 -1.5560 -1.4381 -0.8635
 1875TIP3    H227117   1.309   0.053  15.918  1.0314 -0.0136  0.1469
 1876TIP3   OH227118   0.301   4.118  11.584 -0.1628 -0.5505 -0.6363
 1876TIP3    H127119   0.257   4.084  11.662 -1.8491 -0.4073 -1.4962
 1876TIP3    H227120   0.344   4.199  11.614 -1.6452  0.0564 -0.0674
 1877TIP3   OH227121   0.511   2.182   5.518  0.5916 -0.4792 -0.2207
 1877TIP3    H127122   0.587   2.137   5.555  2.1492  1.9319 -0.2210
 1877TIP3    H227123   0.497   2.140   5.433  2.1130 -0.8256 -0.3270
 1878TIP3   OH227124   3.794   0.009   3.909 -0.4385  0.1533  0.2795
 1878TIP3    H127125   3.814  -0.060   3.846  2.1952  0.7874  0.2978
 1878TIP3    H227126   3.796  -0.035   3.994 -0.4310 -0.0644  0.1673
 1879TIP3   OH227127   5.318   1.939   3.952  0.5006  0.1520 -0.1460
 1879TIP3    H127128   5.236   1.890   3.958  1.1623 -0.9026  0.6368
 1879TIP3    H227129   5.294   2.029   3.974 -0.3774 -0.2280  0.5087
 1880TIP3   OH227130   0.713   0.796   0.219  0.2204  0.0634  0.1169
 1880TIP3    H127131   0.753   0.840   0.294  0.2539 -0.2728  0.3027
 1880TIP3    H227132   0.634   0.847   0.199  1.4981  1.6352 -1.2097
 1881TIP3   OH227133   1.269   0.714   2.154 -0.7363  0.2810 -0.9669
 1881TIP3    H127134   1.194   0.767   2.181 -0.6675 -0.3454  0.4950
 1881TIP3    H227135   1.345   0.761   2.188 -0.7016 -0.9748  0.7661
 1882TIP3   OH227136   3.850   0.083   2.344  0.3012 -0.4348  0.6459
 1882TIP3    H127137   3.766   0.037   2.347 -0.2623  0.5917  3.4370
 1882TIP3    H227138   3.827   0.176   2.342  1.4064 -0.1570 -0.4652
 1883TIP3   OH227139   1.181   3.423  14.354  0.4773  0.5210  0.0827
 1883TIP3    H127140   1.114   3.355  14.347  0.1735  0.8602 -0.3380
 1883TIP3    H227141   1.212   3.435  14.264 -0.7940  2.2626 -0.1750
 1884TIP3   OH227142   5.081   1.211   6.164 -0.4864  0.2162  0.4791
 1884TIP3    H127143   5.162   1.184   6.120 -1.4731  0.3820 -1.5887
 1884TIP3    H227144   5.031   1.255   6.095 -3.4582 -2.1671  0.9288
 1885TIP3   OH227145   3.600   0.077   0.558 -0.3324  0.1826  0.3994
 1885TIP3    H127146   3.647   0.146   0.604 -2.9578  1.9932  0.6049
 1885TIP3    H227147   3.522   0.062   0.611 -1.0757 -1.1445 -0.9864
 1886TIP3   OH227148   0.482   4.767   1.133 -0.0444  0.0066 -0.5465
 1886TIP3    H127149   0.547   4.698   1.139  0.8404  0.8871  0.3704
 1886TIP3    H227150   0.421   4.737   1.065  1.6008 -0.5798 -1.8134
 1887TIP3   OH227151   2.361   1.203   1.058 -0.0847 -0.3404 -0.2947
 1887TIP3    H127152   2.280   1.252   1.041 -0.1545  0.4096  1.8548
 1887TIP3    H227153   2.428   1.271   1.069  0.4754 -0.8745 -0.3625
 1888TIP3   OH227154   0.310   4.821   3.321  0.2516 -0.5897 -0.0474
 1888TIP3    H127155   0.350   4.907   3.310  0.1893 -0.7295 -1.5777
 1888TIP3    H227156   0.278   4.821   3.411 -1.7444  1.8569 -0.6341
 1889TIP3   OH227157   4.131   5.055   4.521  0.3148 -0.0850  0.1359
 1889TIP3    H127158   4.211   5.005   4.538  0.5581 -0.0222 -0.7943
 1889TIP3    H227159   4.161   5.138   4.486 -0.0599  1.0168  2.2639
 1890TIP3   OH227160   4.928   4.570  13.144 -0.4819 -0.2521  0.2529
 1890TIP3    H127161   5.005   4.571  13.087 -1.2247  0.5149 -0.8039
 1890TIP3    H227162   4.961   4.549  13.231  0.9800  0.4976 -0.0967
 1891TIP3   OH227163   5.301   0.380   2.508  0.1445 -0.4851 -0.2808
 1891TIP3    H127164   5.383   0.377   2.557  0.2645 -1.3202 -0.5149
 1891TIP3    H227165   5.252   0.452   2.548 -0.2614 -1.8625  1.8703
 1892TIP3   OH227166   1.868   5.365   6.634 -0.0399 -0.1191 -0.5383
 1892TIP3    H127167   1.917   5.291   6.670  0.7939  1.5840  2.1396
 1892TIP3    H227168   1.778   5.349   6.660 -0.1346 -0.9188 -1.3200
 1893TIP3   OH227169   2.969   2.095   3.724  0.1248 -0.7416  0.1299
 1893TIP3    H127170   3.039   2.160   3.731  0.4822 -0.9585 -1.1875
 1893TIP3    H227171   3.008   2.014   3.758  0.3364 -0.7319 -0.0867
 1894TIP3   OH227172   4.952   4.594   2.475 -0.3958  0.2998  0.1016
 1894TIP3    H127173   4.875   4.649   2.488 -1.0423 -0.9298  1.7037
 1894TIP3    H227174   4.941   4.557   2.387 -1.3797  0.5310  0.1211
 1895TIP3   OH227175   1.087   5.048   1.025 -0.3683  0.6543 -0.1125
 1895TIP3    H127176   1.008   5.022   0.976 -0.0405 -1.8982  0.5991
 1895TIP3    H227177   1.157   5.047   0.960 -0.4544  0.2908 -0.1981
 1896TIP3   OH227178   5.186   0.621   5.415 -0.2240 -0.0126  0.9497
 1896TIP3    H127179   5.280   0.611   5.400 -0.2855  1.6586 -1.1050
 1896TIP3    H227180   5.180   0.662   5.501  0.6651 -3.2388  2.6841
 1897TIP3   OH227181   3.831   3.563   6.555 -0.3542 -0.3219  0.4120
 1897TIP3    H127182   3.785   3.515   6.623 -0.9488  0.2758  0.4388
 1897TIP3    H227183   3.848   3.649   6.593  3.1354 -1.2840  1.4048
 1898TIP3   OH227184   5.088   1.931   0.032  0.5733 -0.0323  0.4986
 1898TIP3    H127185   5.052   2.019   0.025  0.1427 -0.2757 -0.5425
 1898TIP3    H227186   5.171   1.943   0.078  0.7627  0.9922 -0.0647
 1899TIP3   OH227187   1.356   3.668  16.369  0.0971 -0.2082  0.0213
 1899TIP3    H127188   1.299   3.742  16.349 -1.8412 -1.9428 -1.3155
 1899TIP3    H227189   1.343   3.652  16.462 -2.0156 -0.7878 -0.3123
 1900TIP3   OH227190   3.492   2.697  17.389  0.3688 -0.2053  0.4222
 1900TIP3    H127191   3.551   2.645  17.334 -1.2722 -0.3628 -1.3109
 1900TIP3    H227192   3.518   2.677  17.478  0.9601 -2.6202 -0.2289
 1901TIP3   OH227193   1.292   5.278  13.052 -0.1786  0.4086 -0.2029
 1901TIP3    H127194   1.385   5.293  13.034  0.1408 -2.2919 -1.3945
 1901TIP3    H227195   1.284   5.284  13.147  1.6844 -1.1877  0.1296
 1902TIP3   OH227196   0.853   4.838   1.595  0.1047 -0.1446  0.2264
 1902TIP3    H127197   0.766   4.830   1.633  0.5076  0.1668  1.2447
 1902TIP3    H227198   0.850   4.784   1.516 -0.7079 -0.9077  0.7715
 1903TIP3   OH227199   1.751   6.191   4.725 -0.2936  0.1197  0.5737
 1903TIP3    H127200   1.710   6.149   4.800  1.5940  0.0184  1.6149
 1903TIP3    H227201   1.811   6.125   4.690 -0.2170  0.5989 -0.2312
 1904TIP3   OH227202   5.667   3.027  15.531  0.5106  0.5206 -0.4473
 1904TIP3    H127203   5.758   3.052  15.516  0.5567 -1.0063 -3.4649
 1904TIP3    H227204   5.654   2.948  15.477 -2.3013  0.0148  0.7613
 1905TIP3   OH227205   5.084   3.164   3.259  0.3988 -0.2708 -0.3132
 1905TIP3    H127206   5.025   3.213   3.202 -0.1893 -0.0108  0.4995
 1905TIP3    H227207   5.171   3.187   3.228  0.1219  0.9502 -0.2330
 1906TIP3   OH227208   1.837   5.364  11.746 -0.3743  0.2004 -0.8099
 1906TIP3    H127209   1.763   5.415  11.713 -0.0395  0.7431 -0.7356
 1906TIP3    H227210   1.807   5.328  11.829 -0.7120  0.0374 -1.0013
 1907TIP3   OH227211   4.006   5.818  15.152  0.2346 -0.5681  0.0868
 1907TIP3    H127212   3.934   5.771  15.193  0.1490 -0.6065 -0.1086
 1907TIP3    H227213   3.997   5.908  15.182 -0.3075 -0.4222 -0.4938
 1908TIP3   OH227214   1.992   1.852  15.510  0.5623  0.2890 -0.0676
 1908TIP3    H127215   1.897   1.854  15.522  0.6935 -0.0572  1.1062
 1908TIP3    H227216   2.005   1.885  15.420 -0.5095  2.8454  0.6075
 1909TIP3   OH227217   0.656   6.391   4.119 -1.0611 -0.5686 -0.1611
 1909TIP3    H127218   0.603   6.409   4.042  0.6907 -2.3999 -1.9161
 1909TIP3    H227219   0.602   6.333   4.173 -2.7436  1.6301  0.6309
 1910TIP3   OH227220   1.954   1.034  17.156  0.2883 -1.5070  0.2633
 1910TIP3    H127221   1.882   1.084  17.119  0.3316 -1.1449  0.6628
 1910TIP3    H227222   1.931   0.942  17.139 -2.0712 -1.6562  3.4640
 1911TIP3   OH227223   5.244   3.885  11.567  0.3422  0.5239 -0.3570
 1911TIP3    H127224   5.278   3.966  11.530 -2.0909  0.8663 -2.0570
 1911TIP3    H227225   5.173   3.913  11.625 -0.0743 -0.3383 -0.4308
 1912TIP3   OH227226   5.932   6.367  15.421  0.2602  0.2829  0.3752
 1912TIP3    H127227   5.919   6.416  15.339 -2.0377 -0.5101  0.2074
 1912TIP3    H227228   5.967   6.282  15.393  0.4915  0.3973  0.3166
 1913TIP3   OH227229   6.526   6.463  17.368  0.4202  0.0540 -0.0394
 1913TIP3    H127230   6.546   6.402  17.440 -0.9472 -1.7325 -1.0730
 1913TIP3    H227231   6.598   6.453  17.307  2.3763  2.6821  1.6118
 1914TIP3   OH227232   1.354   3.890  13.445  0.3381  0.4017 -0.2564
 1914TIP3    H127233   1.399   3.845  13.373  0.7464  0.0988  0.1879
 1914TIP3    H227234   1.412   3.962  13.468  0.3076  0.3716 -0.0861
 1915TIP3   OH227235   0.348   4.454   2.310 -0.0134 -0.5559  0.1762
 1915TIP3    H127236   0.336   4.406   2.228  0.0469 -1.6346  0.7760
 1915TIP3    H227237   0.264   4.499   2.324  0.4947  0.9171 -1.2421
 1916TIP3   OH227238   5.554   6.061   0.772  0.5909  0.4607 -0.2183
 1916TIP3    H127239   5.556   6.075   0.677  2.9798  0.5360 -0.2222
 1916TIP3    H227240   5.591   5.974   0.784 -0.9002 -0.0971  0.6189
 1917TIP3   OH227241   0.544   2.831  16.014 -0.1629  0.7386 -0.4395
 1917TIP3    H127242   0.565   2.793  16.099 -1.3538  0.4667 -0.2514
 1917TIP3    H227243   0.473   2.893  16.032 -0.1650  0.9606 -1.1802
 1918TIP3   OH227244   0.604   3.107  12.440  0.2265 -0.0519  0.2870
 1918TIP3    H127245   0.603   3.199  12.465 -1.6746 -0.5619  2.4280
 1918TIP3    H227246   0.515   3.089  12.410  0.1518 -1.5123  1.2981
 1919TIP3   OH227247   5.351   1.541  17.316 -0.3083  0.4313 -0.2170
 1919TIP3    H127248   5.433   1.566  17.274  0.3740 -0.9373  0.2685
 1919TIP3    H227249   5.286   1.544  17.245  0.5063 -0.2421 -1.0068
 1920TIP3   OH227250   5.600   1.251   3.255 -0.6914  0.0725  0.0835
 1920TIP3    H127251   5.531   1.186   3.267 -1.5549  0.7097 -1.1364
 1920TIP3    H227252   5.575   1.324   3.311 -0.1866 -0.2926  0.7927
 1921TIP3   OH227253   4.242   6.254   2.519  0.4375 -0.1196 -0.3085
 1921TIP3    H127254   4.249   6.220   2.608 -1.0159  0.3817  0.0160
 1921TIP3    H227255   4.207   6.342   2.529  1.4261  0.3997 -1.3152
 1922TIP3   OH227256   4.408   5.980   3.231 -0.3718  0.3667  0.1018
 1922TIP3    H127257   4.499   6.010   3.231 -0.7074  1.4515 -0.7409
 1922TIP3    H227258   4.380   5.985   3.322  0.4074  0.0161  0.3630
 1923TIP3   OH227259   3.674   6.466  14.927 -0.4650 -0.2652 -0.3150
 1923TIP3    H127260   3.728   6.544  14.910  3.3517 -3.0838 -2.8924
 1923TIP3    H227261   3.598   6.477  14.871 -0.9089  2.2378  0.6301
 1924TIP3   OH227262   3.066   3.764   4.382 -0.9053  0.5722 -0.6194
 1924TIP3    H127263   3.015   3.837   4.346 -1.9268  1.2153  1.9410
 1924TIP3    H227264   3.003   3.713   4.433  0.7463  0.9830  2.0545
 1925TIP3   OH227265   6.763   5.953   3.025  0.1780  0.3072  0.0492
 1925TIP3    H127266   6.736   6.022   2.965  1.1322  0.3937 -0.3044
 1925TIP3    H227267   6.824   5.899   2.974  2.2135  1.2565  1.3175
 1926TIP3   OH227268   6.581   3.031  16.474 -0.1925 -0.0752 -0.7380
 1926TIP3    H127269   6.512   2.994  16.529 -1.6280  0.8526 -1.8191
 1926TIP3    H227270   6.612   2.958  16.421  2.4229 -1.4162  2.3176
 1927TIP3   OH227271   4.117   0.464   4.828 -0.2161  0.1657  0.4015
 1927TIP3    H127272   4.198   0.485   4.875  0.9346  0.2736 -1.5285
 1927TIP3    H227273   4.141   0.470   4.735 -1.4589 -3.3048 -0.3054
 1928TIP3   OH227274   5.203   4.761  15.945  0.2223  0.2709  0.4816
 1928TIP3    H127275   5.202   4.838  16.002 -0.1103  2.1246 -1.8552
 1928TIP3    H227276   5.296   4.742  15.932  0.3015 -0.8831  2.4579
 1929TIP3   OH227277   1.447   0.100  13.416  0.2432 -0.0882  0.1881
 1929TIP3    H127278   1.443   0.032  13.348  0.7917 -2.0325  1.9859
 1929TIP3    H227279   1.514   0.068  13.477  0.5850  2.1548  1.0785
 1930TIP3   OH227280   4.733   0.038   0.488 -0.0888  0.0949 -0.9122
 1930TIP3    H127281   4.677   0.055   0.564  0.5738  1.3731 -0.6762
 1930TIP3    H227282   4.691   0.084   0.416 -0.1884 -0.2912 -1.1037
 1931TIP3   OH227283   2.511   3.304   2.826 -0.1002  0.3374 -0.2318
 1931TIP3    H127284   2.516   3.272   2.916 -0.1855  0.1344 -0.2962
 1931TIP3    H227285   2.602   3.314   2.798 -0.0445 -1.0546 -0.6223
 1932TIP3   OH227286   0.002   5.081  12.857 -0.4869  0.6423 -0.8985
 1932TIP3    H127287   0.067   5.017  12.829 -0.5630  1.0405 -2.0169
 1932TIP3    H227288  -0.068   5.028  12.896  0.2426  0.1787 -0.1672
 1933TIP3   OH227289   4.969   0.559   4.870 -0.3526 -0.3770 -0.1833
 1933TIP3    H127290   4.933   0.476   4.837  0.2859 -1.4102  1.5567
 1933TIP3    H227291   4.976   0.546   4.965  2.3374  0.6445 -0.1581
 1934TIP3   OH227292   4.312   2.860  11.316  0.0790 -0.2385  0.2438
 1934TIP3    H127293   4.263   2.942  11.306 -1.2960 -0.6719  2.6659
 1934TIP3    H227294   4.251   2.792  11.289  0.2370 -0.6295  0.8554
 1935TIP3   OH227295   2.190   1.910  13.120 -0.1300  0.3933 -0.4346
 1935TIP3    H127296   2.250   1.934  13.050  0.5463  2.1799  0.6986
 1935TIP3    H227297   2.234   1.837  13.165  0.0022  0.0447 -1.1206
 1936TIP3   OH227298   5.916   0.340  13.254 -0.5797  0.3454  0.2664
 1936TIP3    H127299   5.870   0.260  13.231 -1.2813  0.8774 -0.2136
 1936TIP3    H227300   6.000   0.310  13.289 -0.5791 -0.5722 -0.4777
 1937TIP3   OH227301   1.612   4.541   5.445  0.4022 -0.4197 -0.0855
 1937TIP3    H127302   1.640   4.464   5.396 -1.3473 -1.2602  0.1539
 1937TIP3    H227303   1.562   4.593   5.381 -2.1247 -1.6557  0.7601
 1938TIP3   OH227304   2.866   1.288   3.005 -0.1386  0.4332  0.3193
 1938TIP3    H127305   2.943   1.287   2.948 -1.2629  2.6505 -1.3883
 1938TIP3    H227306   2.902   1.277   3.093  2.0763  0.7238 -0.4660
 1939TIP3   OH227307   4.364   5.196   2.215 -0.2927  0.4111  0.4768
 1939TIP3    H127308   4.318   5.115   2.193 -0.4799 -0.0296  2.3272
 1939TIP3    H227309   4.375   5.241   2.131 -1.3077 -0.9329 -0.4181
 1940TIP3   OH227310   6.666   5.000  17.154  0.1063  0.4666  0.7923
 1940TIP3    H127311   6.665   4.912  17.192 -0.6063 -0.2831 -0.8453
 1940TIP3    H227312   6.590   5.001  17.096  0.6002  1.8771  0.1452
 1941TIP3   OH227313   1.846   5.555  14.021  0.4941 -0.0603  0.1881
 1941TIP3    H127314   1.894   5.480  13.985  1.5024  0.6211  0.0710
 1941TIP3    H227315   1.880   5.631  13.973 -1.7877  0.3118 -0.9702
 1942TIP3   OH227316   1.590   4.067   3.528 -0.1419 -0.0148 -0.0754
 1942TIP3    H127317   1.549   4.149   3.500 -2.2576 -0.5163  1.2788
 1942TIP3    H227318   1.568   4.004   3.460  0.7082  0.3154 -0.6681
 1943TIP3   OH227319   6.094   4.665  13.365  0.7837  0.4119 -0.8320
 1943TIP3    H127320   6.133   4.605  13.302  0.8659  0.9277 -1.2736
 1943TIP3    H227321   6.016   4.619  13.396  1.2865 -0.2769 -0.5466
 1944TIP3   OH227322   5.179   2.716  15.355  0.1006 -0.2452  0.1563
 1944TIP3    H127323   5.219   2.631  15.340 -0.2307 -0.1141 -1.6994
 1944TIP3    H227324   5.244   2.779  15.323 -1.3583 -0.0227 -2.6793
 1945TIP3   OH227325   5.420   5.746  13.843 -0.0824  0.4498 -0.1439
 1945TIP3    H127326   5.511   5.720  13.836  0.0678 -0.2265  3.0536
 1945TIP3    H227327   5.397   5.777  13.755  2.9501 -0.0914 -1.2299
 1946TIP3   OH227328   4.275   1.383   3.421  0.3874  0.7962  0.4926
 1946TIP3    H127329   4.223   1.366   3.343  0.8823 -0.3993  0.3906
 1946TIP3    H227330   4.363   1.401   3.387  1.1245 -1.8356  0.7910
 1947TIP3   OH227331   5.999   4.579  15.004  0.1539 -0.1425  0.0168
 1947TIP3    H127332   6.010   4.513  15.072 -0.4472 -1.3457 -1.0078
 1947TIP3    H227333   6.009   4.530  14.922  0.0859  1.1190 -0.7654
 1948TIP3   OH227334   3.135   0.631  11.558  0.0013  0.4771 -0.5854
 1948TIP3    H127335   3.211   0.590  11.599 -1.7369 -1.3169  1.0092
 1948TIP3    H227336   3.104   0.567  11.494 -1.1321  0.4580 -0.0411
 1949TIP3   OH227337   5.512   5.227   3.352 -0.3644  0.3027  0.4333
 1949TIP3    H127338   5.601   5.199   3.330  0.0994  0.3371  2.1195
 1949TIP3    H227339   5.491   5.293   3.287  1.2378  0.9989  0.5816
 1950TIP3   OH227340   5.768   5.061  17.226 -0.3324 -0.4422 -0.3147
 1950TIP3    H127341   5.813   5.146  17.218  0.6557 -0.9883 -0.6450
 1950TIP3    H227342   5.750   5.035  17.136 -1.7525 -0.0257 -0.1805
 1951TIP3   OH227343   2.626   2.423   5.211  0.3843 -0.0347  0.5588
 1951TIP3    H127344   2.603   2.393   5.299 -1.1503  0.5248  0.3727
 1951TIP3    H227345   2.664   2.510   5.224  0.9312 -0.2975  0.7330
 1952TIP3   OH227346   2.337   5.880  16.996 -0.0987  0.5442  0.2753
 1952TIP3    H127347   2.292   5.839  16.922  0.2069 -0.5452  0.6750
 1952TIP3    H227348   2.279   5.866  17.070  1.0303 -1.2201  0.8754
 1953TIP3   OH227349   2.647   2.648  17.034  0.7153 -0.5597 -0.3922
 1953TIP3    H127350   2.653   2.743  17.041  0.0959 -0.5557  0.0373
 1953TIP3    H227351   2.722   2.625  16.979  0.6938  0.2035 -0.7618
 1954TIP3   OH227352   2.701   4.163   6.317  0.5167  0.3495 -0.2899
 1954TIP3    H127353   2.671   4.246   6.353 -3.0460 -1.3758  1.2055
 1954TIP3    H227354   2.686   4.170   6.222 -0.9332  1.0200 -0.0329
 1955TIP3   OH227355   6.675   0.448   2.463  0.2277 -0.4805  0.1352
 1955TIP3    H127356   6.654   0.427   2.554 -0.9697 -1.4577 -0.3421
 1955TIP3    H227357   6.598   0.421   2.413  0.7652  0.2557 -1.1518
 1956TIP3   OH227358   5.356   5.926   1.871  0.4820 -0.0330 -0.3218
 1956TIP3    H127359   5.343   5.839   1.910  1.4367  0.7983  2.0173
 1956TIP3    H227360   5.267   5.959   1.857  0.0933 -0.5977  0.6851
 1957TIP3   OH227361   1.619   0.874   2.350  0.1747 -1.0246  0.0703
 1957TIP3    H127362   1.536   0.911   2.382 -0.0649 -1.1346 -0.4261
 1957TIP3    H227363   1.685   0.938   2.377 -0.3192  0.1733 -1.4662
 1958TIP3   OH227364   4.250   1.384   5.440  0.6052 -0.7242  0.0636
 1958TIP3    H127365   4.240   1.478   5.454 -1.4832 -0.9335  0.2047
 1958TIP3    H227366   4.182   1.361   5.377  0.9054 -2.1838  0.2260
 1959TIP3   OH227367   3.149   5.829   0.424  0.4629 -0.4954 -0.0905
 1959TIP3    H127368   3.224   5.856   0.371 -1.0085  3.5407 -0.4186
 1959TIP3    H227369   3.095   5.777   0.364  1.1851 -0.2071 -1.0126
 1960TIP3   OH227370   5.513   1.804  12.866  0.2541 -0.1111  0.0227
 1960TIP3    H127371   5.430   1.850  12.859  0.7495  0.9457  0.7406
 1960TIP3    H227372   5.575   1.857  12.817  0.1556 -1.9646 -2.2956
 1961TIP3   OH227373   2.150   2.641  15.774 -0.0621 -0.0107 -0.3759
 1961TIP3    H127374   2.229   2.694  15.758  0.4928 -1.3307 -2.3612
 1961TIP3    H227375   2.106   2.685  15.847  2.2063  1.1020  0.4138
 1962TIP3   OH227376   4.068   5.465   2.420  0.4191 -0.5468  0.2032
 1962TIP3    H127377   4.046   5.555   2.399  1.1269 -0.1795  0.9848
 1962TIP3    H227378   3.990   5.431   2.464  0.1693 -0.3069 -0.0516
 1963TIP3   OH227379   0.011   5.897  16.428 -0.2293 -0.1878  0.2918
 1963TIP3    H127380  -0.066   5.896  16.371  0.1918  1.2694 -0.3586
 1963TIP3    H227381   0.041   5.988  16.426  1.6709 -0.7722  0.3223
 1964TIP3   OH227382   5.423   2.734  10.555  0.0408 -0.0689 -0.2556
 1964TIP3    H127383   5.448   2.681  10.631  1.8392  2.0954  0.7850
 1964TIP3    H227384   5.483   2.707  10.486 -0.5795 -0.9579 -0.4671
 1965TIP3   OH227385   2.547   3.225  15.009  0.7276  0.1855  0.8162
 1965TIP3    H127386   2.512   3.314  15.013  0.4355  0.0696  0.8586
 1965TIP3    H227387   2.613   3.228  14.939 -0.0574  0.1674  0.0574
 1966TIP3   OH227388   0.126   1.794   3.103 -0.1875 -0.1758  0.2520
 1966TIP3    H127389   0.034   1.769   3.103 -0.1939 -0.1714 -0.6507
 1966TIP3    H227390   0.127   1.885   3.131 -0.5576  0.1634 -0.8266
 1967TIP3   OH227391   0.990   2.265   3.317  0.0990 -0.6284 -0.0982
 1967TIP3    H127392   0.913   2.306   3.278  0.4488 -0.3005 -0.4513
 1967TIP3    H227393   0.977   2.274   3.411 -0.3525 -0.6847 -0.1523
 1968TIP3   OH227394   4.958   5.147  14.726 -0.1176 -0.0745  0.0634
 1968TIP3    H127395   5.012   5.079  14.768  1.7844 -0.3759 -2.5725
 1968TIP3    H227396   4.988   5.229  14.765  0.0891 -0.4880  0.7870
 1969TIP3   OH227397   5.794   0.972  12.853  0.2137  0.0132 -0.0126
 1969TIP3    H127398   5.879   1.015  12.848  2.4377 -3.9465 -0.8460
 1969TIP3    H227399   5.744   1.006  12.779  1.8252  0.9777 -0.6966
 1970TIP3   OH227400   2.769   1.577   0.026  0.1546 -0.1238  0.0031
 1970TIP3    H127401   2.733   1.495  -0.008  1.9423 -1.2107  0.5713
 1970TIP3    H227402   2.737   1.644  -0.034 -1.2808 -1.2396 -0.5346
 1971TIP3   OH227403   4.358   0.939   1.836 -0.2196  0.0053 -0.3901
 1971TIP3    H127404   4.281   0.989   1.863 -0.4465  0.9916 -2.6028
 1971TIP3    H227405   4.429   1.003   1.834  0.1958 -0.4454 -0.3258
 1972TIP3   OH227406   4.566   1.973   2.812  0.8803 -0.1990 -0.3975
 1972TIP3    H127407   4.519   1.971   2.895 -0.4081 -0.5925 -1.1051
 1972TIP3    H227408   4.568   2.065   2.787 -0.1277 -0.2318 -0.6660
 1973TIP3   OH227409   5.049   3.159   2.668 -0.5553 -0.7494  0.5160
 1973TIP3    H127410   5.052   3.180   2.574  0.3793  2.1778  1.0802
 1973TIP3    H227411   5.069   3.066   2.672  0.9177 -0.6608 -2.1284
 1974TIP3   OH227412   1.634   2.759  16.528 -0.3142 -0.5711  0.7099
 1974TIP3    H127413   1.602   2.768  16.618 -0.9184  0.5413  0.4020
 1974TIP3    H227414   1.618   2.845  16.488  0.9205 -0.7080 -0.1555
 1975TIP3   OH227415   2.245   1.595   5.172  0.2213 -0.6755 -0.1175
 1975TIP3    H127416   2.326   1.637   5.200  0.9590 -2.2763  0.1992
 1975TIP3    H227417   2.227   1.634   5.086  0.8208  0.3365  0.1935
 1976TIP3   OH227418   2.461   3.400  16.849  0.4929 -0.0012 -0.9629
 1976TIP3    H127419   2.506   3.432  16.927  0.8443 -0.5604 -0.9279
 1976TIP3    H227420   2.494   3.456  16.778 -0.3265  0.9449 -0.6268
 1977TIP3   OH227421   6.082   4.005  16.086 -0.1579 -0.2623  0.1716
 1977TIP3    H127422   6.045   4.038  16.168 -0.2880 -2.6582  1.1392
 1977TIP3    H227423   6.139   3.933  16.113 -0.5810 -1.4301 -1.8755
 1978TIP3   OH227424   3.282   6.450  14.555  0.1460 -0.1223  0.6131
 1978TIP3    H127425   3.208   6.395  14.584 -1.2014  0.5996 -1.2722
 1978TIP3    H227426   3.292   6.429  14.462  1.8744  0.3363  0.6701
 1979TIP3   OH227427   2.157   2.380  15.099  0.2178  0.1409  0.2662
 1979TIP3    H127428   2.085   2.389  15.037  0.2079 -0.2971  0.2124
 1979TIP3    H227429   2.114   2.374  15.184  0.2465  1.0919  0.3540
 1980TIP3   OH227430   5.492   5.767   0.587 -0.2599  0.5006  0.6846
 1980TIP3    H127431   5.415   5.785   0.642  0.0606  1.1014  0.9469
 1980TIP3    H227432   5.566   5.783   0.645  0.0767  0.8771  0.1518
 1981TIP3   OH227433   1.362   3.699   2.683 -0.3892  0.0670  0.5470
 1981TIP3    H127434   1.275   3.726   2.655 -0.5089  1.3596  2.0726
 1981TIP3    H227435   1.420   3.770   2.653  0.3430 -1.2521 -1.3572
 1982TIP3   OH227436   3.501   2.121   6.891  0.1948 -0.3219 -0.2466
 1982TIP3    H127437   3.556   2.053   6.853  0.3805 -1.2732  1.6035
 1982TIP3    H227438   3.530   2.202   6.848  0.9342 -1.2059 -1.4757
 1983TIP3   OH227439   3.702   0.962  12.697  0.0710 -0.1964 -0.4648
 1983TIP3    H127440   3.782   0.992  12.654  1.2455  0.7853  2.2021
 1983TIP3    H227441   3.718   0.976  12.790 -2.3245 -2.1755  0.3503
 1984TIP3   OH227442   4.149   4.954   3.188  0.1307  0.2537 -0.3562
 1984TIP3    H127443   4.194   4.984   3.109  0.0130 -0.1760 -0.5894
 1984TIP3    H227444   4.142   4.860   3.177 -0.1744  0.2317  0.0210
 1985TIP3   OH227445   5.858   0.066  13.018 -0.3586 -0.0297 -0.0180
 1985TIP3    H127446   5.840  -0.017  12.973 -2.6752  0.5009 -0.1829
 1985TIP3    H227447   5.953   0.066  13.031 -0.3974 -3.3998  1.3132
 1986TIP3   OH227448   6.338   1.494   4.389  0.2346 -0.2048 -0.3483
 1986TIP3    H127449   6.418   1.462   4.431 -0.3870 -2.1455 -0.5116
 1986TIP3    H227450   6.268   1.447   4.434 -0.9603  2.3159  0.5950
 1987TIP3   OH227451   6.614   5.963   3.457 -0.2105  0.0691  0.3744
 1987TIP3    H127452   6.702   5.927   3.453 -0.5118 -0.7175  0.5513
 1987TIP3    H227453   6.575   5.922   3.534 -0.3704  1.2552  0.9426
 1988TIP3   OH227454   3.653   1.475  11.309  0.2711 -0.3346 -0.7321
 1988TIP3    H127455   3.708   1.441  11.239  0.8478  0.5527 -0.7236
 1988TIP3    H227456   3.667   1.569  11.307  0.1779 -0.2761  0.4634
 1989TIP3   OH227457   2.163   0.482  16.281 -0.2954 -0.0234  0.1781
 1989TIP3    H127458   2.159   0.510  16.373 -2.8457  0.5919 -0.0655
 1989TIP3    H227459   2.138   0.559  16.231  2.0207 -0.0575 -1.1846
 1990TIP3   OH227460   0.927   2.628  17.420  0.0116 -0.8325 -0.4404
 1990TIP3    H127461   0.900   2.542  17.450  0.8213 -0.9506 -0.0153
 1990TIP3    H227462   0.866   2.650  17.349  1.2220 -2.7966 -2.2039
 1991TIP3   OH227463   5.720   0.507   2.847 -0.2048 -0.5257 -0.0206
 1991TIP3    H127464   5.663   0.431   2.841  0.6297 -1.1355 -0.3712
 1991TIP3    H227465   5.807   0.475   2.824  0.3519  0.3230  0.7865
 1992TIP3   OH227466   3.375   5.448   2.784 -0.0733  0.9509  0.3958
 1992TIP3    H127467   3.360   5.399   2.865  1.8395  0.1706  0.3270
 1992TIP3    H227468   3.322   5.403   2.719 -2.0158  1.8707  1.2480
 1993TIP3   OH227469   5.623   6.357  15.960 -0.3708 -0.3271  0.2858
 1993TIP3    H127470   5.632   6.269  15.996 -0.6502 -0.5120 -0.0806
 1993TIP3    H227471   5.651   6.415  16.030 -2.0181 -0.6135  1.2364
 1994TIP3   OH227472   1.071   5.407  13.687 -0.4822  0.1071 -0.4071
 1994TIP3    H127473   1.140   5.371  13.743 -0.9522  0.3453  0.3362
 1994TIP3    H227474   1.118   5.460  13.622 -0.0547  2.1420  1.4550
 1995TIP3   OH227475   1.680   2.088  15.667  0.5443 -0.1027  0.1644
 1995TIP3    H127476   1.770   2.119  15.674  0.5891 -0.1836 -0.0516
 1995TIP3    H227477   1.687   1.993  15.671  0.5558 -0.1540 -0.7246
 1996TIP3   OH227478   1.911   4.811  13.084 -0.2910 -0.5025 -0.0488
 1996TIP3    H127479   1.990   4.863  13.075 -0.6769 -0.2229 -2.2681
 1996TIP3    H227480   1.940   4.721  13.071 -0.3698 -0.3682 -1.2223
 1997TIP3   OH227481   4.025   4.234  11.900  0.6120 -0.1261 -0.3142
 1997TIP3    H127482   4.059   4.155  11.859  2.5038  0.3560  0.2136
 1997TIP3    H227483   4.093   4.300  11.886 -0.1192  0.9156  0.7938
 1998TIP3   OH227484   2.002   6.651  16.441  0.2221 -0.0555 -0.4927
 1998TIP3    H127485   2.005   6.576  16.382 -0.0299 -0.1974 -0.3313
 1998TIP3    H227486   1.961   6.721  16.391  1.4100  0.3087 -0.9992
 1999TIP3   OH227487   2.174   6.566   4.900  1.0893  0.1748 -0.2277
 1999TIP3    H127488   2.193   6.633   4.835  0.7361  0.8367  0.3395
 1999TIP3    H227489   2.088   6.532   4.875  0.4744  1.1596  0.4760
 2000TIP3   OH227490   3.279   4.694  17.261 -0.5942  0.1971 -0.3891
 2000TIP3    H127491   3.253   4.660  17.176 -1.3463  1.5740 -0.7422
 2000TIP3    H227492   3.200   4.687  17.315  0.1879 -1.7375  0.5804
 2001TIP3   OH227493   3.891   4.339  17.106 -0.3076 -0.3344 -0.1704
 2001TIP3    H127494   3.896   4.415  17.163  0.7932 -0.7397  0.2895
 2001TIP3    H227495   3.804   4.302  17.122  0.2463 -0.8614  1.7899
 2002TIP3   OH227496   1.482   3.061   5.542 -0.0918  0.0540  0.0168
 2002TIP3    H127497   1.496   3.029   5.453 -0.7492  0.4819 -0.2505
 2002TIP3    H227498   1.418   3.001   5.580 -1.6879  1.2826 -0.6453
 2003TIP3   OH227499   5.871   6.763  14.695 -0.3366 -0.0469 -0.0414
 2003TIP3    H127500   5.792   6.812  14.671 -0.8839 -0.1603  1.4348
 2003TIP3    H227501   5.852   6.728  14.782  1.0962 -0.6339  0.0594
 2004TIP3   OH227502   1.340   3.489   5.044  0.4741 -0.2294  0.5047
 2004TIP3    H127503   1.420   3.487   4.992  1.5578 -3.1457  2.0241
 2004TIP3    H227504   1.269   3.477   4.981  1.4777 -0.5930 -0.5846
 2005TIP3   OH227505   3.086   4.276  14.377  0.5325 -0.2808  0.1680
 2005TIP3    H127506   3.107   4.343  14.442 -1.3086 -0.1772  0.7000
 2005TIP3    H227507   3.059   4.200  14.429  0.2613 -0.6258 -0.4690
 2006TIP3   OH227508   1.971   4.810  11.635 -0.6416  0.5184 -0.1724
 2006TIP3    H127509   1.898   4.762  11.596 -0.7238  0.8214 -0.3988
 2006TIP3    H227510   2.048   4.759  11.611 -0.7393  0.4328 -0.3110
 2007TIP3   OH227511   3.780   5.233   1.172  0.7788 -0.2718 -0.5875
 2007TIP3    H127512   3.852   5.278   1.216  0.3489  0.2584 -0.4059
 2007TIP3    H227513   3.732   5.304   1.128 -0.3222 -0.4465  0.2850
 2008TIP3   OH227514   3.698   6.440  12.702  0.1486 -0.0365  0.2512
 2008TIP3    H127515   3.702   6.344  12.700  1.1157 -0.0621  1.8838
 2008TIP3    H227516   3.789   6.467  12.704 -0.1211  0.8380  1.8986
 2009TIP3   OH227517   4.873   3.855  11.249  0.3556 -1.0428  0.7485
 2009TIP3    H127518   4.967   3.839  11.248  0.4991 -0.3426 -0.9688
 2009TIP3    H227519   4.861   3.932  11.193 -1.0402  0.2367  2.6467
 2010TIP3   OH227520   6.448   6.006   4.108 -0.0096 -0.0850 -0.0645
 2010TIP3    H127521   6.384   6.062   4.151  0.2100 -1.2208  1.8869
 2010TIP3    H227522   6.484   6.059   4.037 -1.1137  1.5528  0.5587
 2011TIP3   OH227523   2.467   4.505  13.151  0.0242  0.1194 -0.0290
 2011TIP3    H127524   2.413   4.452  13.210 -2.1944  0.6868 -1.4102
 2011TIP3    H227525   2.445   4.596  13.173  2.2058  0.4682  0.9041
 2012TIP3   OH227526   2.934   0.369   2.752  0.1297  0.0779  0.0079
 2012TIP3    H127527   2.877   0.313   2.700  1.9272 -1.1200 -0.7603
 2012TIP3    H227528   2.967   0.312   2.821  0.2975  0.8005  0.5365
 2013TIP3   OH227529   4.577   0.331   3.215 -0.3460  0.3107 -0.2296
 2013TIP3    H127530   4.580   0.348   3.120  0.4736 -0.6880 -0.3940
 2013TIP3    H227531   4.668   0.335   3.243 -0.4564 -0.6296  0.2862
 2014TIP3   OH227532   1.051   0.010   2.293 -0.2813  0.1602 -0.1506
 2014TIP3    H127533   1.136   0.001   2.335 -0.8618 -0.5775  0.9050
 2014TIP3    H227534   1.071   0.039   2.204  1.2146 -2.0004 -0.6032
 2015TIP3   OH227535   6.527   4.015   1.942 -0.6051 -0.1583  0.0437
 2015TIP3    H127536   6.472   4.081   1.899 -0.8491 -0.3784  0.0121
 2015TIP3    H227537   6.555   3.958   1.870  0.0988  0.2493 -0.0229
 2016TIP3   OH227538   0.179   0.199   4.771  0.5802 -0.1122  0.6064
 2016TIP3    H127539   0.129   0.257   4.714  0.8024 -1.0851 -0.6162
 2016TIP3    H227540   0.147   0.111   4.751  0.3795 -0.4540  2.2971
 2017TIP3   OH227541   2.421   2.730   1.932  0.4112  0.3037 -0.3081
 2017TIP3    H127542   2.377   2.769   2.008 -1.7447 -1.5392 -0.4934
 2017TIP3    H227543   2.439   2.640   1.959 -0.4749 -0.4086 -1.9645
 2018TIP3   OH227544   5.628   3.269   1.252  0.3216 -0.7929 -0.7083
 2018TIP3    H127545   5.581   3.320   1.187 -1.0879  1.9368  2.2132
 2018TIP3    H227546   5.562   3.212   1.291 -0.1930  1.3139  1.7400
 2019TIP3   OH227547   5.716   4.903   3.216 -0.1938 -0.1880  0.3925
 2019TIP3    H127548   5.800   4.924   3.257  0.1139 -1.5159  0.4804
 2019TIP3    H227549   5.651   4.918   3.285  0.0959 -0.3390  0.6984
 2020TIP3   OH227550   0.793   6.337  11.860  0.3208  0.2776  0.2742
 2020TIP3    H127551   0.819   6.429  11.856  1.7086  0.0088  1.8711
 2020TIP3    H227552   0.854   6.293  11.801 -0.2665  0.3401 -0.3971
 2021TIP3   OH227553   5.134   1.727  13.792 -0.4078  0.2541  0.0788
 2021TIP3    H127554   5.192   1.722  13.868  0.6580 -1.5059 -0.7787
 2021TIP3    H227555   5.050   1.757  13.827 -0.5023 -2.2822  2.3083
 2022TIP3   OH227556   5.704   4.247  14.290 -0.4120 -0.2037  0.0270
 2022TIP3    H127557   5.700   4.341  14.305 -1.4205 -0.4074  1.1864
 2022TIP3    H227558   5.729   4.238  14.198  0.7245  1.1781  0.1740
 2023TIP3   OH227559   5.171   5.596  14.285 -0.5619 -0.2575 -0.2327
 2023TIP3    H127560   5.109   5.548  14.340 -1.6654  0.2487 -0.9927
 2023TIP3    H227561   5.138   5.584  14.196  0.2633  0.2753 -0.6183
 2024TIP3   OH227562   2.253   1.648  11.295 -0.0001  0.3176 -0.3816
 2024TIP3    H127563   2.221   1.620  11.209 -1.5492 -2.4632  0.9528
 2024TIP3    H227564   2.334   1.599  11.307 -0.8963 -0.9877  0.5520
 2025TIP3   OH227565   4.228   3.469   3.475 -0.1905  0.4516 -0.5618
 2025TIP3    H127566   4.226   3.373   3.474 -1.2730  0.4312  0.6769
 2025TIP3    H227567   4.320   3.492   3.484 -0.0933 -0.5460  1.4824
 2026TIP3   OH227568   3.797   4.195  15.200  0.7858  0.1333 -0.2998
 2026TIP3    H127569   3.833   4.224  15.116 -1.3986  1.6706 -0.8125
 2026TIP3    H227570   3.766   4.106  15.183  1.6121 -0.0887 -0.6938
 2027TIP3   OH227571   3.342   2.483   2.323  0.3115  0.5429 -0.8123
 2027TIP3    H127572   3.364   2.400   2.281 -0.0704  0.1762 -0.3064
 2027TIP3    H227573   3.304   2.536   2.253 -1.2349 -0.4156 -0.7427
 2028TIP3   OH227574   4.765   1.920  12.942  0.1206  0.0503 -0.4127
 2028TIP3    H127575   4.824   1.918  13.017  0.0089  1.4386 -0.2498
 2028TIP3    H227576   4.731   1.831  12.934  2.5384 -0.9091 -0.7674
 2029TIP3   OH227577   3.735   2.136   0.650 -0.2398 -0.2798  0.0869
 2029TIP3    H127578   3.650   2.179   0.658  0.0457 -0.0368  2.6981
 2029TIP3    H227579   3.742   2.113   0.557 -2.9450  0.0617 -0.2791
 2030TIP3   OH227580   5.304   0.366   4.496  0.9114 -0.7225  0.3648
 2030TIP3    H127581   5.311   0.459   4.475  0.9865 -0.5636  1.0605
 2030TIP3    H227582   5.364   0.323   4.435  2.0220 -0.1645  1.0275
 2031TIP3   OH227583   5.177   0.501   0.694 -0.2473  0.2125  0.4081
 2031TIP3    H127584   5.250   0.557   0.722 -0.1693 -0.5374  1.7971
 2031TIP3    H227585   5.116   0.504   0.768 -0.3846 -1.2800  0.3693
 2032TIP3   OH227586   0.738   1.406   0.142  0.5567 -0.1119  0.2385
 2032TIP3    H127587   0.791   1.382   0.218  0.8905  1.7968  0.6550
 2032TIP3    H227588   0.802   1.435   0.077  0.1113  1.0633  0.3111
 2033TIP3   OH227589   4.529   3.541   6.222  0.3414  0.2502 -0.1482
 2033TIP3    H127590   4.523   3.618   6.278  0.5963  0.7348 -0.7840
 2033TIP3    H227591   4.520   3.467   6.283 -1.8493  0.7679  0.2679
 2034TIP3   OH227592   0.229   4.957  14.623  0.8031  0.5922 -0.5004
 2034TIP3    H127593   0.257   4.956  14.715  0.7999  0.3795 -0.4995
 2034TIP3    H227594   0.147   4.906  14.623  0.1188  1.6565 -0.4092
 2035TIP3   OH227595   0.910   1.658   4.355  0.2051  0.2560  0.1706
 2035TIP3    H127596   0.985   1.605   4.382  0.1125  0.7265  1.3857
 2035TIP3    H227597   0.948   1.739   4.323  0.3827 -0.6885 -2.2004
 2036TIP3   OH227598   6.397   2.747  11.402  0.2166  0.8413  0.3097
 2036TIP3    H127599   6.423   2.701  11.481  0.2661 -1.4914 -0.9919
 2036TIP3    H227600   6.302   2.758  11.411 -0.2137 -1.7446 -0.3860
 2037TIP3   OH227601   5.116   2.981   1.773 -0.2929  0.1742  0.3746
 2037TIP3    H127602   5.040   2.981   1.716 -0.3002  0.1443  0.3841
 2037TIP3    H227603   5.093   3.043   1.843 -0.1262  0.5118  0.1355
 2038TIP3   OH227604   0.701   5.707   4.855  0.4476  0.7470 -0.1602
 2038TIP3    H127605   0.763   5.636   4.870  0.8363  1.0213 -0.4265
 2038TIP3    H227606   0.705   5.723   4.761 -1.7727 -0.7807 -0.5847
 2039TIP3   OH227607   0.520   6.409   3.445  0.3396 -0.3251  0.0313
 2039TIP3    H127608   0.608   6.422   3.408  1.3297  0.5035  2.4665
 2039TIP3    H227609   0.463   6.406   3.368  2.2130  1.4169 -1.5895
 2040TIP3   OH227610   0.282   1.751   6.114  0.3476 -1.2388  0.2777
 2040TIP3    H127611   0.304   1.845   6.112  1.3672 -1.4584  0.5913
 2040TIP3    H227612   0.361   1.709   6.147 -0.3167 -2.1626  0.7251
 2041TIP3   OH227613   5.577   1.373  13.452 -0.8486 -0.3852  0.0905
 2041TIP3    H127614   5.633   1.336  13.520 -0.8277  0.1979  0.4014
 2041TIP3    H227615   5.503   1.312  13.446 -1.4286  0.1488  1.4672
 2042TIP3   OH227616   2.409   1.421  16.919  0.6558  0.1191 -0.3729
 2042TIP3    H127617   2.363   1.342  16.893  1.6188 -0.8595  0.7426
 2042TIP3    H227618   2.345   1.491  16.910 -0.3148 -0.8320 -1.0808
 2043TIP3   OH227619   3.722   0.577   5.181  0.1569  0.0139 -0.5683
 2043TIP3    H127620   3.808   0.618   5.191 -0.2191  0.4629  1.0392
 2043TIP3    H227621   3.742   0.486   5.157  1.0965  0.0075  0.1685
 2044TIP3   OH227622   1.539   5.023   2.800  0.1622 -0.0515 -0.2175
 2044TIP3    H127623   1.513   4.935   2.828 -2.0350  0.5817 -0.1049
 2044TIP3    H227624   1.484   5.040   2.723  1.3492  0.8196 -0.8920
 2045TIP3   OH227625   0.192   5.391   1.821 -0.0702 -0.0257 -0.6279
 2045TIP3    H127626   0.194   5.389   1.725 -0.9804 -0.0702 -0.6521
 2045TIP3    H227627   0.145   5.311   1.846  0.5428 -0.2374 -0.1257
 2046TIP3   OH227628   4.108   2.417  16.943 -0.5364 -0.6912 -0.0130
 2046TIP3    H127629   4.202   2.401  16.934 -0.5413 -1.2531  0.8751
 2046TIP3    H227630   4.090   2.407  17.036 -1.6243 -1.4296 -0.2843
 2047TIP3   OH227631   0.429   3.338  17.243 -0.7723 -1.0393 -0.2661
 2047TIP3    H127632   0.484   3.413  17.220 -0.3925 -1.5749 -1.1464
 2047TIP3    H227633   0.419   3.344  17.338 -1.8157  0.8338 -0.4531
 2048TIP3   OH227634   4.348   1.178  16.374  0.0482  0.2812  0.2130
 2048TIP3    H127635   4.310   1.207  16.457 -1.2554 -1.1186  0.1472
 2048TIP3    H227636   4.279   1.127  16.333  1.0261  0.1115 -1.2874
 2049TIP3   OH227637   4.091   1.482   5.147  0.2292 -0.1131  0.3370
 2049TIP3    H127638   4.183   1.505   5.157  0.4683 -1.4706  1.5139
 2049TIP3    H227639   4.089   1.424   5.071  0.7986 -2.2674  1.8948
 2050TIP3   OH227640   4.052   5.347  13.222 -0.3590 -0.4994 -0.0181
 2050TIP3    H127641   4.086   5.326  13.135 -0.1323 -1.8002  0.3609
 2050TIP3    H227642   4.019   5.263  13.255  0.3695 -0.2113  1.4996
 2051TIP3   OH227643   3.048   6.545   2.557  0.3337  0.5069  0.8562
 2051TIP3    H127644   3.141   6.533   2.573  0.5823 -1.9951 -1.6992
 2051TIP3    H227645   3.005   6.497   2.628  0.9168  1.4282  1.8803
 2052TIP3   OH227646   5.794   3.861   1.708  0.0110 -0.3320  0.7633
 2052TIP3    H127647   5.849   3.846   1.631 -1.1878 -2.1092  0.1844
 2052TIP3    H227648   5.705   3.867   1.672 -0.7241 -2.4516  2.0591
 2053TIP3   OH227649   3.956   5.935   0.328 -0.0542  0.5160  0.1629
 2053TIP3    H127650   3.896   5.866   0.300 -2.0376  1.3376  2.0927
 2053TIP3    H227651   3.960   5.926   0.423  1.8941  1.3118  0.1912
 2054TIP3   OH227652   4.372   3.511   1.404 -0.4290 -0.0213 -0.2805
 2054TIP3    H127653   4.365   3.599   1.367  0.5855 -0.3160 -1.2042
 2054TIP3    H227654   4.332   3.519   1.491 -1.1473  1.1309 -0.6916
 2055TIP3   OH227655   2.770   0.053   3.358 -0.8401 -0.0843  0.5214
 2055TIP3    H127656   2.758  -0.036   3.389  0.4821 -0.5264 -0.1450
 2055TIP3    H227657   2.684   0.094   3.366 -0.9969 -0.7216  2.9421
 2056TIP3   OH227658   0.683   4.711   5.489 -0.3740 -0.0820  0.6326
 2056TIP3    H127659   0.709   4.803   5.491  0.0084 -0.1871  2.1187
 2056TIP3    H227660   0.686   4.684   5.581  0.4032 -1.8157  0.1431
 2057TIP3   OH227661   5.481   1.663  12.122 -0.2723 -0.2765 -0.2699
 2057TIP3    H127662   5.572   1.663  12.149 -0.0322 -1.2891 -1.0240
 2057TIP3    H227663   5.483   1.699  12.033 -1.0176  2.7888  0.8182
 2058TIP3   OH227664   6.551   5.808   4.286 -0.1445 -0.4193 -0.1496
 2058TIP3    H127665   6.519   5.887   4.243  0.5531 -0.8187 -1.4672
 2058TIP3    H227666   6.552   5.742   4.217  1.2144 -1.0434  0.4287
 2059TIP3   OH227667   0.522   2.273  17.481  0.0878 -0.0778 -0.4346
 2059TIP3    H127668   0.528   2.211  17.409  0.8022 -1.0851  0.4462
 2059TIP3    H227669   0.442   2.323  17.464 -0.1884 -0.8471 -1.4784
 2060TIP3   OH227670   2.285   4.994   2.872  0.5562  0.2898  0.5259
 2060TIP3    H127671   2.229   4.970   2.797 -0.0480  0.5016  0.8970
 2060TIP3    H227672   2.295   5.089   2.864  2.3126  0.0528 -0.5125
 2061TIP3   OH227673   0.087   3.979   0.395 -0.0751 -0.2003  0.0886
 2061TIP3    H127674   0.040   3.939   0.469  1.9985 -1.2332  0.9382
 2061TIP3    H227675   0.107   3.905   0.337  1.2299  0.0604  0.1893
 2062TIP3   OH227676   4.715   4.987  13.206  0.2562 -0.6062 -0.3156
 2062TIP3    H127677   4.716   4.990  13.110  0.9281  1.3990 -0.2894
 2062TIP3    H227678   4.656   4.914  13.227 -0.2678 -0.7914 -2.2378
 2063TIP3   OH227679   4.939   2.903   4.308  0.2962 -0.2750 -0.7276
 2063TIP3    H127680   5.027   2.928   4.281  0.0752  2.2404  0.6773
 2063TIP3    H227681   4.944   2.893   4.403 -0.4136 -2.5901 -0.8710
 2064TIP3   OH227682   0.371   2.669  11.424  0.0098  0.3925 -0.1602
 2064TIP3    H127683   0.406   2.596  11.373  0.3707  2.9280 -3.8847
 2064TIP3    H227684   0.439   2.736  11.419 -1.1925  1.8040  1.3232
 2065TIP3   OH227685   2.010   4.775  14.645 -0.3594  0.5466  0.6378
 2065TIP3    H127686   2.052   4.721  14.713 -0.1579  0.1590  0.2114
 2065TIP3    H227687   1.972   4.711  14.584 -0.8127  0.8950  0.5534
 2066TIP3   OH227688   1.268   5.068   3.044  0.6541 -0.6258 -0.0800
 2066TIP3    H127689   1.353   5.101   3.015  1.2771 -0.3669  1.9035
 2066TIP3    H227690   1.242   5.126   3.115 -1.4845 -0.3583 -1.0066
 2067TIP3   OH227691   5.201   6.518   2.095  0.1686  0.0406 -0.4858
 2067TIP3    H127692   5.188   6.553   2.007  1.4329 -0.7491 -1.0131
 2067TIP3    H227693   5.130   6.556   2.147 -0.9585  0.0228 -1.9745
 2068TIP3   OH227694   0.920   0.444  13.139  0.2259  0.3950 -0.2084
 2068TIP3    H127695   0.858   0.477  13.074 -2.5312  0.3034  2.1606
 2068TIP3    H227696   0.910   0.503  13.214  2.6985  0.0463  0.4882
 2069TIP3   OH227697   0.469   3.999   0.347  0.2311  0.3266 -0.0996
 2069TIP3    H127698   0.538   3.933   0.360  0.0745  0.0450 -0.6854
 2069TIP3    H227699   0.417   3.995   0.428 -0.8267 -1.5314 -0.8003
 2070TIP3   OH227700   0.692   1.811  10.981 -0.0881  0.2569 -0.0009
 2070TIP3    H127701   0.705   1.857  10.898  0.3859  0.2870  0.0852
 2070TIP3    H227702   0.721   1.722  10.963 -0.1528  0.2197  0.0827
 2071TIP3   OH227703   3.039   1.475  15.162 -0.2623 -0.3600  0.1849
 2071TIP3    H127704   3.089   1.405  15.120  0.7241  0.9471 -0.9245
 2071TIP3    H227705   3.090   1.500  15.239 -0.1135 -0.2118  0.0386
 2072TIP3   OH227706   6.479   1.602  14.396 -0.0708 -0.7073  0.1614
 2072TIP3    H127707   6.483   1.570  14.306 -1.1040 -0.4570  0.0182
 2072TIP3    H227708   6.397   1.567  14.430 -0.2731  0.1899  0.6157
 2073TIP3   OH227709   3.246   2.903  14.125  0.0546 -0.5209  0.1157
 2073TIP3    H127710   3.209   2.984  14.161  0.4388 -0.4398  0.3286
 2073TIP3    H227711   3.235   2.839  14.195  0.4261 -0.4673  0.2220
 2074TIP3   OH227712   4.643   3.339  16.124  0.5247 -0.0165 -0.2479
 2074TIP3    H127713   4.571   3.286  16.090  1.2362 -0.8681 -0.4583
 2074TIP3    H227714   4.714   3.277  16.139  0.7128  0.5522  1.4745
 2075TIP3   OH227715   6.318   2.052  14.097  0.1085  0.0141 -0.5702
 2075TIP3    H127716   6.334   1.992  14.025  1.3660  0.7715 -0.9553
 2075TIP3    H227717   6.319   2.139  14.057 -1.2749  0.3376  0.0393
 2076TIP3   OH227718   5.789   2.107   3.396 -0.2289 -0.0413 -0.0171
 2076TIP3    H127719   5.733   2.047   3.445  0.0459 -0.3226 -0.0411
 2076TIP3    H227720   5.868   2.055   3.376 -0.0140  0.3086 -0.0874
 2077TIP3   OH227721   5.779   0.536  14.936  0.2338 -0.5712 -0.2962
 2077TIP3    H127722   5.697   0.490  14.953 -0.2567  0.6063  0.7736
 2077TIP3    H227723   5.813   0.557  15.023  1.4746 -0.6958 -0.7295
 2078TIP3   OH227724   2.325   2.460   5.128  0.0420 -0.2996 -0.5966
 2078TIP3    H127725   2.327   2.432   5.036 -2.1217  0.5782 -0.9617
 2078TIP3    H227726   2.393   2.408   5.170  0.5129 -1.3401 -2.5289
 2079TIP3   OH227727   4.848   3.612   5.309  0.1403 -0.0898  0.6054
 2079TIP3    H127728   4.776   3.568   5.355 -0.8953 -1.3626 -2.0113
 2079TIP3    H227729   4.853   3.698   5.350 -0.9238 -0.9623  2.7940
 2080TIP3   OH227730   5.040   2.792  12.447  1.1480  0.4659 -0.0428
 2080TIP3    H127731   5.102   2.728  12.413  1.8367  1.0204  0.1434
 2080TIP3    H227732   4.984   2.742  12.506  0.1421 -0.4508 -1.7009
 2081TIP3   OH227733   6.768   3.017  16.871  0.6028 -0.0709  0.3054
 2081TIP3    H127734   6.792   3.043  16.782 -2.9957 -1.2005 -1.1857
 2081TIP3    H227735   6.783   3.095  16.924  3.0746  0.5685 -1.1613
 2082TIP3   OH227736   2.060   4.221   6.198  0.2933 -0.9949  0.0203
 2082TIP3    H127737   2.029   4.133   6.178  0.5354 -1.5144  1.7784
 2082TIP3    H227738   2.150   4.222   6.167 -0.2349 -0.7491 -1.6075
 2083TIP3   OH227739   0.787   1.392  16.765 -0.0945  0.4737 -0.2878
 2083TIP3    H127740   0.786   1.296  16.759  0.0326  0.4014  0.8187
 2083TIP3    H227741   0.865   1.413  16.816 -0.7375  1.1006  0.4641
 2084TIP3   OH227742   5.005   4.933   0.347  0.2531 -0.1458 -0.1903
 2084TIP3    H127743   4.947   4.859   0.331  1.3421 -0.3650 -4.0055
 2084TIP3    H227744   5.092   4.894   0.356  0.3702  0.4566  1.7752
 2085TIP3   OH227745   3.392   1.285  12.208 -0.5858 -0.1512  0.3201
 2085TIP3    H127746   3.323   1.329  12.257  0.2679  1.2871  0.3055
 2085TIP3    H227747   3.347   1.240  12.136 -1.5083  0.7269  0.3318
 2086TIP3   OH227748   6.087   1.290  13.341 -0.0658  0.1286  0.3915
 2086TIP3    H127749   6.020   1.349  13.375 -1.1098 -0.5176 -0.4838
 2086TIP3    H227750   6.138   1.343  13.280 -1.8246 -0.1440 -1.4066
 2087TIP3   OH227751   4.254   4.358   1.679 -0.0912 -0.6682  0.3614
 2087TIP3    H127752   4.180   4.413   1.707  0.3466  0.5234 -0.7252
 2087TIP3    H227753   4.214   4.275   1.654 -0.9387 -0.4100  0.8070
 2088TIP3   OH227754   5.115   6.723  17.406 -0.1096  0.2637 -0.2627
 2088TIP3    H127755   5.019   6.721  17.399 -0.1357 -1.0432  0.2660
 2088TIP3    H227756   5.142   6.783  17.336 -1.1398 -1.8733 -2.6315
 2089TIP3   OH227757   5.466   5.290  15.037 -0.8462 -0.6396  0.2479
 2089TIP3    H127758   5.391   5.256  14.988  0.0283 -0.7516 -1.0739
 2089TIP3    H227759   5.524   5.326  14.970 -0.5423  1.1095  1.3832
 2090TIP3   OH227760   1.405   3.360   1.612 -0.0895  0.3225  0.2201
 2090TIP3    H127761   1.362   3.367   1.527 -1.7729  0.4029  1.0365
 2090TIP3    H227762   1.497   3.347   1.591 -0.4609  0.3388 -1.6083
 2091TIP3   OH227763   5.791   1.782  14.587 -0.1455 -0.0288 -0.0339
 2091TIP3    H127764   5.842   1.850  14.631  0.2699 -0.6741  0.5009
 2091TIP3    H227765   5.726   1.831  14.536  0.5362  0.7866 -0.1554
 2092TIP3   OH227766   3.754   5.875   2.543  0.1926  0.7794 -0.6181
 2092TIP3    H127767   3.728   5.824   2.619  0.1779  0.2458 -0.9755
 2092TIP3    H227768   3.721   5.963   2.561 -0.2325  0.5451 -0.2277
 2093TIP3   OH227769   2.155   2.749  14.786 -0.4273  0.1739  1.0276
 2093TIP3    H127770   2.105   2.809  14.842 -0.2407  0.4360  0.9185
 2093TIP3    H227771   2.246   2.757  14.817 -0.4659 -0.3863  1.3019
 2094TIP3   OH227772   3.397   0.817  12.707  0.2675 -0.6884 -0.9174
 2094TIP3    H127773   3.382   0.900  12.752  0.2568 -0.4369 -1.3854
 2094TIP3    H227774   3.357   0.828  12.621  0.9620 -0.8853 -1.2754
 2095TIP3   OH227775   3.532   1.334  14.206  0.1388 -0.4270 -0.2537
 2095TIP3    H127776   3.603   1.389  14.174  1.6407 -1.4330  1.2256
 2095TIP3    H227777   3.542   1.333  14.301 -2.4485  0.1543  0.1123
 2096TIP3   OH227778   2.874   4.175  16.921 -0.3468  0.0695 -0.1746
 2096TIP3    H127779   2.779   4.176  16.913 -0.5533 -1.4714  1.4756
 2096TIP3    H227780   2.895   4.249  16.977 -0.5669  0.3323 -0.4360
 2097TIP3   OH227781   3.632   5.744   5.444 -0.6621 -0.2546 -0.3997
 2097TIP3    H127782   3.690   5.754   5.368  0.5215 -0.7287  0.4069
 2097TIP3    H227783   3.691   5.748   5.520 -1.3823 -2.7876  0.3914
 2098TIP3   OH227784   4.072   1.574   0.450 -0.3957  0.0888 -0.0515
 2098TIP3    H127785   3.995   1.630   0.465  0.1141  0.7630  0.1082
 2098TIP3    H227786   4.046   1.517   0.378 -0.5781  1.2349 -0.9325
 2099TIP3   OH227787   0.255   4.171   4.286 -0.2214  0.1556  0.7466
 2099TIP3    H127788   0.276   4.150   4.195  0.9585  1.7814  0.5941
 2099TIP3    H227789   0.161   4.158   4.292 -0.4908  0.9670 -0.9989
 2100TIP3   OH227790   3.993   3.610   0.666 -0.1134 -0.1898 -0.0679
 2100TIP3    H127791   4.001   3.537   0.728 -0.1831 -0.6108 -0.5493
 2100TIP3    H227792   3.899   3.617   0.649 -0.0550 -0.3907 -0.4924
 2101TIP3   OH227793   6.281   5.352  17.412 -0.1666  0.2074  0.0118
 2101TIP3    H127794   6.357   5.398  17.377  1.5066 -2.4930 -0.2099
 2101TIP3    H227795   6.250   5.407  17.484  0.5846  2.4645 -1.3175
 2102TIP3   OH227796   5.160   5.614  12.827  0.5033  0.3462 -0.1239
 2102TIP3    H127797   5.096   5.607  12.898 -0.0795 -0.5881 -0.7099
 2102TIP3    H227798   5.243   5.589  12.867 -0.0638 -1.6295 -0.0719
 2103TIP3   OH227799   4.154   5.601  15.769 -0.2538  0.2703 -0.2211
 2103TIP3    H127800   4.125   5.539  15.703 -1.2578 -1.0475  1.3766
 2103TIP3    H227801   4.123   5.686  15.738  0.0841 -0.1712 -1.8455
 2104TIP3   OH227802   5.282   0.308   4.844 -0.3616 -0.2883 -0.3895
 2104TIP3    H127803   5.296   0.263   4.761  1.3525  0.4297 -0.5403
 2104TIP3    H227804   5.247   0.394   4.819 -0.7816 -0.4325 -0.3012
 2105TIP3   OH227805   4.356   2.253  12.721  0.2677  0.1397  0.3067
 2105TIP3    H127806   4.350   2.282  12.630 -1.1369  0.1155  0.3717
 2105TIP3    H227807   4.440   2.208  12.726  0.3980  0.2007 -0.9556
 2106TIP3   OH227808   0.527   3.959   2.543 -0.0150  0.3276  0.3042
 2106TIP3    H127809   0.501   3.868   2.555  1.1591 -0.0347  0.2483
 2106TIP3    H227810   0.557   3.987   2.630  1.3584  0.0601 -0.0492
 2107TIP3   OH227811   6.388   5.511   0.615  0.0901 -0.4991 -0.0253
 2107TIP3    H127812   6.331   5.494   0.690 -0.0026  1.0781  0.2987
 2107TIP3    H227813   6.329   5.533   0.544  0.2506  0.1425  0.0354
 2108TIP3   OH227814   5.889   0.081  12.644 -0.0011  0.5328  0.1287
 2108TIP3    H127815   5.822   0.053  12.581 -1.0938 -0.6187  1.7197
 2108TIP3    H227816   5.840   0.098  12.724  1.7422 -2.3943  2.0207
 2109TIP3   OH227817   1.225   1.370   5.083  0.2039 -0.2221  0.4972
 2109TIP3    H127818   1.157   1.396   5.022 -1.1298 -1.3571  1.4265
 2109TIP3    H227819   1.202   1.413   5.165 -0.4661 -1.9924  1.3000
 2110TIP3   OH227820   0.532   6.264  13.715 -0.0587  0.2599 -0.0833
 2110TIP3    H127821   0.437   6.258  13.726 -0.0801 -1.0887 -0.8531
 2110TIP3    H227822   0.554   6.193  13.656  1.7816 -1.1762  2.1885
 2111TIP3   OH227823   5.405   6.149  16.493 -0.3846 -0.2215  0.6371
 2111TIP3    H127824   5.462   6.083  16.531  1.5022  0.7838 -0.3199
 2111TIP3    H227825   5.452   6.180  16.415 -2.5524  0.1694 -0.6149
 2112TIP3   OH227826   2.325   3.217   2.268  0.2527  0.1016 -0.0536
 2112TIP3    H127827   2.368   3.184   2.189  0.1056  0.8460 -0.4556
 2112TIP3    H227828   2.377   3.293   2.294 -0.6720  0.8767 -0.4163
 2113TIP3   OH227829   6.105   6.631   1.609  0.0293  0.5970 -0.0649
 2113TIP3    H127830   6.023   6.679   1.621  0.3924  0.9165  1.3487
 2113TIP3    H227831   6.171   6.687   1.651  0.8330 -0.0769 -0.4091
 2114TIP3   OH227832   0.130   4.540  13.283  0.6702 -0.3328  0.7474
 2114TIP3    H127833   0.157   4.457  13.324  0.3630 -0.6085  0.3967
 2114TIP3    H227834   0.047   4.561  13.325  0.0114 -0.9704 -0.2081
 2115TIP3   OH227835   4.925   5.149  12.816 -0.2810  0.5207  0.1904
 2115TIP3    H127836   4.863   5.202  12.766  2.1320  2.6843 -0.7573
 2115TIP3    H227837   4.963   5.090  12.751  0.0053  0.5375  0.3416
 2116TIP3   OH227838   4.304   2.702   3.189  1.1857 -0.1968 -0.2346
 2116TIP3    H127839   4.388   2.746   3.200  0.8481  0.2306  0.8335
 2116TIP3    H227840   4.310   2.625   3.246  0.4788  0.4254  0.7310
 2117TIP3   OH227841   0.080   3.795  11.193  0.7459  0.3111 -0.1305
 2117TIP3    H127842   0.023   3.839  11.130  0.6111  1.8691  1.0395
 2117TIP3    H227843   0.167   3.799  11.153  0.3765 -0.4147 -1.0611
 2118TIP3   OH227844   4.085   0.375   2.625  0.4194 -0.5337 -0.6753
 2118TIP3    H127845   4.117   0.287   2.604  0.6168 -0.6602  0.1261
 2118TIP3    H227846   3.991   0.372   2.606  0.2053 -1.2649  0.3796
 2119TIP3   OH227847   1.754   0.602   1.701 -0.0308 -0.2810  0.3360
 2119TIP3    H127848   1.689   0.583   1.633 -0.1951 -1.5753  0.8125
 2119TIP3    H227849   1.709   0.581   1.783  0.4732  0.3559  0.7862
 2120TIP3   OH227850   1.460   4.536   0.277  0.0521 -0.0252  0.0206
 2120TIP3    H127851   1.521   4.609   0.278 -1.6467  1.4930 -1.0687
 2120TIP3    H227852   1.513   4.460   0.300  1.5773  1.7112  2.7382
 2121TIP3   OH227853   1.055   4.250   2.377  0.7208  0.6054  0.7974
 2121TIP3    H127854   1.013   4.240   2.463  0.5969  0.2444  0.6961
 2121TIP3    H227855   1.007   4.320   2.334  0.1827  0.1568  0.6601
 2122TIP3   OH227856   2.642   2.994   4.066  0.3386 -0.2248  0.4875
 2122TIP3    H127857   2.603   2.972   3.981  0.5877  0.5393  0.1702
 2122TIP3    H227858   2.641   3.089   4.069  1.2937 -0.2206  0.8941
 2123TIP3   OH227859   0.584   6.368   4.961  0.0796 -0.5081 -0.0971
 2123TIP3    H127860   0.549   6.329   5.041  1.6916 -0.3123  0.7325
 2123TIP3    H227861   0.672   6.332   4.953 -0.2371 -0.9200 -2.0763
 2124TIP3   OH227862   0.511   3.507   3.669 -0.3146  0.4710  0.0648
 2124TIP3    H127863   0.556   3.516   3.753  0.2405  1.1574 -0.2931
 2124TIP3    H227864   0.531   3.419   3.640  0.2891  0.5541  0.2103
 2125TIP3   OH227865   1.144   0.463   2.130 -0.0059  0.0472 -0.1329
 2125TIP3    H127866   1.166   0.554   2.151 -0.3304  0.1875 -0.4050
 2125TIP3    H227867   1.078   0.469   2.062 -1.7347 -0.3511  1.4249
 2126TIP3   OH227868   6.651   4.356   0.381 -0.3052  0.3459 -0.2521
 2126TIP3    H127869   6.673   4.287   0.443  1.8468  1.4648  0.3543
 2126TIP3    H227870   6.567   4.330   0.343 -0.5265 -1.5435  1.4090
 2127TIP3   OH227871   6.249   1.553   5.973 -0.1680  0.1555 -0.1342
 2127TIP3    H127872   6.238   1.504   6.055 -0.9823 -1.6269 -1.2558
 2127TIP3    H227873   6.230   1.644   5.997  0.4830 -0.1844  1.8211
 2128TIP3   OH227874   4.994   3.293   0.525 -0.2405  0.2289  0.3045
 2128TIP3    H127875   5.004   3.267   0.433 -2.2817  0.8876 -0.1578
 2128TIP3    H227876   5.078   3.333   0.548  0.0803  0.6900 -1.4985
 2129TIP3   OH227877   3.232   0.995  16.020 -0.5610  0.0014 -0.2805
 2129TIP3    H127878   3.188   0.912  16.000 -0.0276 -0.4450  0.3375
 2129TIP3    H227879   3.315   0.990  15.974 -0.0428 -0.3140  0.6574
 2130TIP3   OH227880   4.354   1.009  11.588 -0.6954  0.2909 -0.1135
 2130TIP3    H127881   4.429   0.968  11.546 -0.8061  0.0897 -0.1151
 2130TIP3    H227882   4.324   1.075  11.526 -0.7172  0.1521 -0.2484
 2131TIP3   OH227883   2.868   5.773  11.472  0.2797 -0.1718 -0.2393
 2131TIP3    H127884   2.951   5.726  11.468 -0.2553 -1.1606 -0.0132
 2131TIP3    H227885   2.830   5.749  11.556  1.0848  2.6079  1.0221
 2132TIP3   OH227886   0.765   2.864  10.540 -0.3874  0.5135  0.3799
 2132TIP3    H127887   0.794   2.772  10.540 -1.0022  0.3042  1.2795
 2132TIP3    H227888   0.829   2.909  10.595  0.7989  0.9419 -1.2976
 2133TIP3   OH227889   3.036   2.870  13.412 -0.0549  0.3865  0.3984
 2133TIP3    H127890   2.989   2.938  13.363  0.4495  0.8968  0.6182
 2133TIP3    H227891   3.093   2.918  13.471 -0.1462 -0.2304  0.9998
 2134TIP3   OH227892   1.233   1.957  17.208  0.1595  0.2315  0.3696
 2134TIP3    H127893   1.270   2.001  17.131  2.3280 -2.4292 -0.2466
 2134TIP3    H227894   1.297   1.972  17.277 -0.4492  0.3004  0.9347
 2135TIP3   OH227895   0.088   6.693   3.838  0.4742 -0.4276  0.3815
 2135TIP3    H127896   0.119   6.674   3.749  0.3146 -0.4110  0.3231
 2135TIP3    H227897   0.108   6.785   3.852  2.4188 -0.8991  1.1249
 2136TIP3   OH227898   1.274   1.946  13.513  0.1795 -0.1277  0.0936
 2136TIP3    H127899   1.291   1.860  13.473  0.2360 -1.1419  2.1543
 2136TIP3    H227900   1.361   1.983  13.528  0.2940 -0.8209  1.3662
 2137TIP3   OH227901   3.684   6.661   1.520  0.2253  0.2243  0.2071
 2137TIP3    H127902   3.632   6.739   1.540  0.7531  0.4762  0.6300
 2137TIP3    H227903   3.772   6.682   1.553  0.4736 -0.3844 -0.0572
 2138TIP3   OH227904   6.596   0.101  14.753 -0.4933  0.1714  0.3639
 2138TIP3    H127905   6.648   0.066  14.681 -0.1019  0.6166  0.4239
 2138TIP3    H227906   6.556   0.180  14.716 -0.5475  0.2247  0.5377
 2139TIP3   OH227907   3.477   2.826   2.759 -0.1985  0.2051 -0.1336
 2139TIP3    H127908   3.555   2.800   2.808 -0.6360 -0.4083  0.2637
 2139TIP3    H227909   3.474   2.767   2.684 -1.2381 -1.0205  0.8135
 2140TIP3   OH227910   1.720   6.704   1.165  0.3431  0.2498 -0.2829
 2140TIP3    H127911   1.662   6.632   1.140  0.6344 -0.2956  0.5662
 2140TIP3    H227912   1.727   6.697   1.260  0.1493  1.5821 -0.1455
 2141TIP3   OH227913   5.416   4.925   1.223 -0.3255 -0.9523 -0.6162
 2141TIP3    H127914   5.403   5.014   1.255 -1.0375 -1.3992  0.3935
 2141TIP3    H227915   5.340   4.909   1.167 -0.7471 -1.2659  0.0267
 2142TIP3   OH227916   6.760   4.894  10.850  0.1771 -0.2574  0.4200
 2142TIP3    H127917   6.824   4.862  10.914 -0.6328  0.2307  1.5009
 2142TIP3    H227918   6.809   4.957  10.798  0.8580 -0.6707  0.5397
 2143TIP3   OH227919   1.433   1.922  14.062 -0.2242 -0.3780  0.0292
 2143TIP3    H127920   1.473   1.875  13.989 -1.3161 -1.4904  0.1196
 2143TIP3    H227921   1.357   1.869  14.087 -0.7538  0.7717  0.9883
 2144TIP3   OH227922   0.304   2.768   0.778 -0.4288  0.1223 -0.9877
 2144TIP3    H127923   0.366   2.696   0.772 -1.4816 -0.7659 -1.8465
 2144TIP3    H227924   0.219   2.727   0.761 -1.1434  1.4384 -0.7018
 2145TIP3   OH227925   5.040   1.411   5.387 -0.0458  0.4537 -0.0449
 2145TIP3    H127926   5.040   1.447   5.475 -0.8560 -0.2407  0.2574
 2145TIP3    H227927   4.982   1.469   5.337 -1.4341 -0.4247  0.4674
 2146TIP3   OH227928   3.765   1.067  12.936 -0.6017 -0.3512 -0.2206
 2146TIP3    H127929   3.839   1.082  12.995 -2.0031  1.1861  1.2505
 2146TIP3    H227930   3.691   1.049  12.994 -1.6384 -0.7737 -1.6097
 2147TIP3   OH227931   1.920   6.649   2.669 -0.4355 -0.1397 -0.3543
 2147TIP3    H127932   1.934   6.563   2.707 -1.1706  0.1683  0.6542
 2147TIP3    H227933   2.006   6.675   2.636  0.0053 -0.8559  0.2076
 2148TIP3   OH227934   4.767   0.209   1.606  0.1077  0.1752 -0.4660
 2148TIP3    H127935   4.808   0.128   1.636  1.6316  0.8167 -0.7014
 2148TIP3    H227936   4.703   0.230   1.674 -1.4654 -1.9938 -1.1460
 2149TIP3   OH227937   6.361   6.686   3.191 -0.5335 -0.1632 -0.1729
 2149TIP3    H127938   6.305   6.750   3.147 -1.3778 -0.9919 -0.3524
 2149TIP3    H227939   6.342   6.603   3.147  0.3998 -0.5765  0.1758
 2150TIP3   OH227940   6.478   1.158  12.619  0.1671 -0.0897  0.5804
 2150TIP3    H127941   6.441   1.213  12.688 -0.8118 -0.7004  0.5629
 2150TIP3    H227942   6.526   1.219  12.563 -0.3093  0.6446  0.9496
 2151TIP3   OH227943   3.679   0.419   0.224 -0.0672  0.0404 -0.2076
 2151TIP3    H127944   3.740   0.473   0.174  0.6959 -1.0801 -0.5052
 2151TIP3    H227945   3.701   0.329   0.201 -1.9380 -0.4110 -0.4582
 2152TIP3   OH227946   4.941   2.372  10.371 -0.2732 -0.4142  0.2956
 2152TIP3    H127947   5.013   2.311  10.385  0.3207  0.6613  2.2823
 2152TIP3    H227948   4.884   2.360  10.447 -0.7519  0.6814  0.1242
 2153TIP3   OH227949   0.941   2.797   4.817 -0.5012  0.2824  0.0778
 2153TIP3    H127950   0.980   2.716   4.850 -0.7798 -0.5235 -1.4559
 2153TIP3    H227951   0.904   2.772   4.732 -1.6227  1.7569  0.1086
 2154TIP3   OH227952   4.165   3.172   3.426  0.1050 -0.2342 -0.2309
 2154TIP3    H127953   4.151   3.087   3.468  0.2579 -0.5753 -0.8702
 2154TIP3    H227954   4.078   3.201   3.398  0.1837 -0.6434 -0.9043
 2155TIP3   OH227955   2.798   4.495   6.820  0.5380 -0.0075 -0.2232
 2155TIP3    H127956   2.706   4.471   6.833  0.5709  0.5018  1.0994
 2155TIP3    H227957   2.815   4.472   6.729 -1.4634  1.6956 -1.1235
 2156TIP3   OH227958   1.730   5.594   3.206 -0.4672  0.5119  0.0281
 2156TIP3    H127959   1.795   5.526   3.223  1.4040  1.9983 -0.8028
 2156TIP3    H227960   1.656   5.571   3.263  0.0622 -2.1579 -0.2158
 2157TIP3   OH227961   4.220   1.558  11.349  0.3059 -0.5292 -0.1501
 2157TIP3    H127962   4.298   1.549  11.295 -0.8986 -3.1925 -1.6613
 2157TIP3    H227963   4.207   1.653  11.358  1.6128  0.0125 -3.0442
 2158TIP3   OH227964   0.982   2.521  14.796  0.2364 -0.2517 -0.6260
 2158TIP3    H127965   0.985   2.426  14.808 -0.3917 -0.2143 -0.1127
 2158TIP3    H227966   0.962   2.555  14.883  0.2421  0.3394 -0.8532
 2159TIP3   OH227967   6.267   5.809   4.151 -0.0063  0.0048 -0.5561
 2159TIP3    H127968   6.183   5.806   4.105 -0.7823  1.5078  0.6883
 2159TIP3    H227969   6.301   5.897   4.133 -0.8775  1.0908  2.5879
 2160TIP3   OH227970   4.878   6.565  11.048  0.0475 -0.7182  0.1841
 2160TIP3    H127971   4.837   6.484  11.019  1.2837 -0.5380 -2.2831
 2160TIP3    H227972   4.866   6.626  10.976  2.6817  0.0021  0.2208
 2161TIP3   OH227973   5.671   1.526  15.766 -0.5216 -0.6593  0.0670
 2161TIP3    H127974   5.710   1.539  15.680  2.0128 -2.3708  0.8461
 2161TIP3    H227975   5.588   1.572  15.762 -0.5279 -0.7505 -3.3066
 2162TIP3   OH227976   2.968   2.121  13.067  0.5056 -0.2353 -0.6132
 2162TIP3    H127977   3.000   2.179  12.998 -1.5383  1.1302 -0.4920
 2162TIP3    H227978   2.874   2.113  13.051 -0.0764  0.1884  2.0045
 2163TIP3   OH227979   2.745   3.347   0.705  0.0637 -0.2783 -0.1889
 2163TIP3    H127980   2.778   3.429   0.743 -0.5346 -0.5293  0.9144
 2163TIP3    H227981   2.824   3.293   0.694  0.2079 -0.4017  1.2373
 2164TIP3   OH227982   0.412   1.864   3.381 -0.3617  0.4120 -0.0396
 2164TIP3    H127983   0.335   1.884   3.435 -0.2046  0.8946  0.0016
 2164TIP3    H227984   0.442   1.949   3.348 -0.7521  0.0923 -1.2987
 2165TIP3   OH227985   1.752   4.054  11.729 -0.1329 -0.3512  0.6052
 2165TIP3    H127986   1.722   4.009  11.809 -0.8493 -0.9200  0.0314
 2165TIP3    H227987   1.790   3.984  11.676  1.5783  0.2458  0.9954
 2166TIP3   OH227988   2.637   1.810  16.728 -0.0938 -0.3611 -0.2126
 2166TIP3    H127989   2.731   1.791  16.728  0.0896  0.5348 -0.1298
 2166TIP3    H227990   2.607   1.786  16.815 -0.0040 -0.9220 -0.3320
 2167TIP3   OH227991   2.963   0.900  14.430 -0.1097 -0.0003 -0.3280
 2167TIP3    H127992   2.881   0.948  14.423 -0.5604 -0.7766 -0.4793
 2167TIP3    H227993   3.008   0.918  14.347  0.8081  2.0475  0.5426
 2168TIP3   OH227994   4.505   5.062   4.491 -0.4033 -0.3655 -0.6735
 2168TIP3    H127995   4.595   5.048   4.520 -0.1400  0.2034 -1.1916
 2168TIP3    H227996   4.458   4.985   4.522 -0.1255  0.1742  1.1803
 2169TIP3   OH227997   0.220   1.349   0.734 -0.0337  0.0174 -0.2123
 2169TIP3    H127998   0.159   1.301   0.790  1.3217 -1.0761  0.3746
 2169TIP3    H227999   0.213   1.307   0.648  0.4699 -0.6299  0.0615
 2170TIP3   OH228000   3.477   1.252   1.014  0.3988 -0.2452 -0.1425
 2170TIP3    H128001   3.541   1.195   1.056 -0.8067 -1.2017  0.4418
 2170TIP3    H228002   3.523   1.287   0.938  1.2292 -1.8983 -0.4476
 2171TIP3   OH228003   0.170   5.865   4.895 -0.2946  0.2758 -0.5732
 2171TIP3    H128004   0.224   5.926   4.946  1.5580 -1.3340 -0.5072
 2171TIP3    H228005   0.131   5.807   4.960 -0.0181 -0.1590 -0.7870
 2172TIP3   OH228006   5.621   6.087   5.598 -0.1800 -0.0296 -0.2464
 2172TIP3    H128007   5.645   6.090   5.691 -1.0211  1.7705 -0.0393
 2172TIP3    H228008   5.548   6.148   5.590  0.0449  0.0604 -2.1457
 2173TIP3   OH228009   4.894   0.619  16.473  0.0076 -0.2692  0.4852
 2173TIP3    H128010   4.899   0.625  16.568  2.0032 -0.7011  0.4492
 2173TIP3    H228011   4.827   0.552  16.457 -1.5584  0.9898  1.5061
 2174TIP3   OH228012   3.796   3.871  15.277  0.4450  0.2007 -0.0536
 2174TIP3    H128013   3.799   3.868  15.372  0.5859  0.2011 -0.0585
 2174TIP3    H228014   3.822   3.784  15.249  2.7586  0.8624 -0.1407
 2175TIP3   OH228015   6.623   1.580   3.367 -0.0350  0.4291 -0.3533
 2175TIP3    H128016   6.627   1.492   3.330 -0.0124  0.0202  0.5920
 2175TIP3    H228017   6.681   1.577   3.443 -0.4612  1.0967  0.0120
 2176TIP3   OH228018   0.121   1.959   0.362  0.5731  0.0053  0.6215
 2176TIP3    H128019   0.026   1.971   0.355  0.7580  0.5787 -1.6829
 2176TIP3    H228020   0.144   1.909   0.284  2.1455 -0.3288  1.2759
 2177TIP3   OH228021   3.226   5.738   2.125 -0.0989 -0.2990  0.3170
 2177TIP3    H128022   3.244   5.737   2.219  2.6651 -1.0359 -0.1247
 2177TIP3    H228023   3.284   5.672   2.089 -0.2044  0.7919 -2.0600
 2178TIP3   OH228024   0.378   3.897   4.786 -0.1229  0.2370  0.1375
 2178TIP3    H128025   0.335   3.814   4.802 -0.1082  0.1905 -0.0585
 2178TIP3    H228026   0.410   3.925   4.872  1.6975 -0.9768 -0.0962
 2179TIP3   OH228027   6.388   1.563   3.510  0.1148  0.0740 -0.3924
 2179TIP3    H128028   6.306   1.552   3.463  0.3261  1.5262 -1.1774
 2179TIP3    H228029   6.456   1.555   3.443  0.4798  1.0205 -0.1590
 2180TIP3   OH228030   6.122   1.080   0.757  0.1962  0.1930  0.1711
 2180TIP3    H128031   6.121   1.160   0.809 -1.0503  1.2110 -1.3182
 2180TIP3    H228032   6.209   1.042   0.771 -0.1389  0.3258  3.0378
 2181TIP3   OH228033   4.297   4.064   1.153 -0.6676 -0.0103  0.5295
 2181TIP3    H128034   4.275   4.142   1.101  0.5111 -0.9866 -1.6020
 2181TIP3    H228035   4.216   4.013   1.155 -0.3194 -0.8483 -2.1574
 2182TIP3   OH228036   3.086   4.260   3.730  0.4179 -0.6355 -0.3852
 2182TIP3    H128037   3.112   4.168   3.720  2.6231 -0.2027  0.6230
 2182TIP3    H228038   3.132   4.288   3.810 -0.4293  1.2707 -0.5315
 2183TIP3   OH228039   2.816   1.250  17.192  0.1075  0.1408 -0.0234
 2183TIP3    H128040   2.907   1.249  17.224  0.4840 -1.6866 -1.0243
 2183TIP3    H228041   2.820   1.298  17.110 -0.3297  2.2227  1.0973
 2184TIP3   OH228042   0.416   3.267  16.069 -0.3054 -0.1220 -0.3075
 2184TIP3    H128043   0.380   3.335  16.011 -1.3863 -0.0706  0.3904
 2184TIP3    H228044   0.472   3.315  16.129  1.3511 -0.2570 -1.6754
 2185TIP3   OH228045   5.281   0.230  14.301  0.4022  0.0567 -0.4419
 2185TIP3    H128046   5.245   0.285  14.371  0.7825 -2.3555  1.8334
 2185TIP3    H228047   5.222   0.243  14.227  0.2767  3.1323  0.0790
 2186TIP3   OH228048   5.647   4.495  14.427 -0.4679  0.3413  0.0451
 2186TIP3    H128049   5.586   4.520  14.497 -1.1501  2.8940 -1.3616
 2186TIP3    H228050   5.678   4.577  14.391  1.0619 -0.9104 -1.6915
 2187TIP3   OH228051   3.438   2.183   5.699  0.2399 -0.6555 -0.4686
 2187TIP3    H128052   3.503   2.245   5.666 -0.8679  0.1891 -1.1091
 2187TIP3    H228053   3.416   2.128   5.624 -0.8093 -0.0241 -0.6400
 2188TIP3   OH228054   1.268   4.642   4.908 -0.1008  0.7017  0.7618
 2188TIP3    H128055   1.194   4.642   4.969  0.7826  1.7093  1.8799
 2188TIP3    H228056   1.249   4.715   4.848  0.4165  1.5605  1.6207
 2189TIP3   OH228057   5.377   4.371  13.501  0.8222 -0.0265 -0.1476
 2189TIP3    H128058   5.406   4.309  13.569  0.8660 -0.8762 -0.9234
 2189TIP3    H228059   5.313   4.427  13.545  1.4351 -0.0495  0.8023
 2190TIP3   OH228060   6.264   2.643   3.150 -0.6694 -0.2422 -0.4441
 2190TIP3    H128061   6.320   2.624   3.225  1.1903  0.2471 -1.6508
 2190TIP3    H228062   6.176   2.619   3.179 -0.2900  1.4303  2.4519
 2191TIP3   OH228063   0.914   1.886   5.031  0.1225 -0.8993  0.6333
 2191TIP3    H128064   0.922   1.979   5.013 -0.6917 -0.5495  1.9204
 2191TIP3    H228065   0.948   1.843   4.953  3.3069  0.4361  1.1366
 2192TIP3   OH228066   0.604   1.980   5.964  0.9014 -0.0655  0.4401
 2192TIP3    H128067   0.652   1.903   5.994 -0.3914 -1.3474 -0.6245
 2192TIP3    H228068   0.529   1.985   6.024  0.9106  0.2748  0.4219
 2193TIP3   OH228069   6.179   0.349  14.115 -0.5247 -0.5999 -0.3301
 2193TIP3    H128070   6.169   0.443  14.129  0.3441 -0.6282  0.5630
 2193TIP3    H228071   6.099   0.311  14.150 -1.3069 -0.1382 -1.5500
 2194TIP3   OH228072   3.510   0.299   6.097 -0.3347 -0.2547 -0.0819
 2194TIP3    H128073   3.477   0.384   6.069  1.0548 -0.1425 -1.5282
 2194TIP3    H228074   3.571   0.319   6.168 -0.3824 -0.0861 -0.0882
 2195TIP3   OH228075   1.628   2.879   4.407 -0.3607  0.0580  0.5862
 2195TIP3    H128076   1.607   2.884   4.500  0.1350  0.8478  0.6691
 2195TIP3    H228077   1.672   2.962   4.388 -0.3875 -0.1276 -0.3351
 2196TIP3   OH228078   4.887   5.410   2.094 -0.4055  0.6532 -0.2137
 2196TIP3    H128079   4.893   5.454   2.179  1.8585  1.4172 -0.6958
 2196TIP3    H228080   4.928   5.471   2.032 -1.3373 -0.2063 -1.7351
 2197TIP3   OH228081   0.746   5.494  15.759  0.2885 -0.5131  0.2885
 2197TIP3    H128082   0.822   5.436  15.764 -0.3357 -1.5722 -1.4673
 2197TIP3    H228083   0.777   5.578  15.791  1.6673 -1.3983  1.3969
 2198TIP3   OH228084   1.160   1.960   3.503  0.1247  0.0663  0.6657
 2198TIP3    H128085   1.226   1.987   3.439 -0.3941 -1.9671 -0.8455
 2198TIP3    H228086   1.166   2.024   3.573  2.0849  1.2655 -0.5202
 2199TIP3   OH228087   3.965   6.484   3.914 -0.0712  0.8962 -0.0952
 2199TIP3    H128088   4.053   6.493   3.950 -0.8729  1.1518  1.9451
 2199TIP3    H228089   3.915   6.555   3.956 -1.3633  0.4442 -0.8248
 2200TIP3   OH228090   4.558   5.852   5.205 -0.3767 -0.1496 -0.0678
 2200TIP3    H128091   4.544   5.792   5.132  1.4999 -0.6096 -0.0817
 2200TIP3    H228092   4.606   5.926   5.166  0.2501 -0.1945  0.6014
 2201TIP3   OH228093   5.777   1.272   1.680  0.3092 -0.2401  0.2075
 2201TIP3    H128094   5.786   1.227   1.596 -0.6542  0.6563 -0.4004
 2201TIP3    H228095   5.771   1.202   1.745  1.2316 -0.9442 -0.4437
 2202TIP3   OH228096   0.199   6.258  11.118  0.0930  0.0608  0.2816
 2202TIP3    H128097   0.257   6.329  11.091 -0.3662 -0.4439 -2.2540
 2202TIP3    H228098   0.112   6.283  11.087 -0.3993 -0.8294  0.8756
 2203TIP3   OH228099   5.348   1.996   1.221  0.2909 -0.3486 -0.5154
 2203TIP3    H128100   5.437   1.969   1.202  0.4293 -0.1558 -0.1541
 2203TIP3    H228101   5.328   1.956   1.306 -1.0248 -2.8731 -1.8948
 2204TIP3   OH228102   4.599   4.009   2.099 -0.1304 -0.0416  0.0951
 2204TIP3    H128103   4.554   4.093   2.086  0.9301  1.1048  3.0890
 2204TIP3    H228104   4.529   3.948   2.120 -0.6696  0.8926  1.1472
 2205TIP3   OH228105   6.344   0.396  17.214 -0.3892  0.4854 -0.2523
 2205TIP3    H128106   6.365   0.306  17.242  1.0064  1.1187  0.8791
 2205TIP3    H228107   6.420   0.423  17.163  0.6037  2.0005  1.8803
 2206TIP3   OH228108   4.916   0.874  15.552  0.7581 -0.0786  0.1332
 2206TIP3    H128109   4.842   0.931  15.532 -1.0485 -2.0431  0.9192
 2206TIP3    H228110   4.886   0.786  15.533  2.8319 -0.9808  0.6769
 2207TIP3   OH228111   2.936   5.936   0.132  0.2731  0.1509  0.4807
 2207TIP3    H128112   2.985   5.855   0.148  0.2453 -0.0288 -0.2610
 2207TIP3    H228113   3.002   6.004   0.133  1.0242 -0.3233 -2.7252
 2208TIP3   OH228114   0.055   3.874   3.865 -0.2944  0.0411 -0.4831
 2208TIP3    H128115   0.014   3.890   3.780  1.0650 -0.4102 -1.2479
 2208TIP3    H228116   0.124   3.810   3.847  0.2744  0.2286  0.8972
 2209TIP3   OH228117   1.019   4.443   3.545  0.2856  0.1043 -0.5581
 2209TIP3    H128118   1.016   4.493   3.464 -1.8557  0.0506 -0.5848
 2209TIP3    H228119   1.005   4.508   3.614 -1.7960 -0.2754 -0.5474
 2210TIP3   OH228120   5.227   3.699  15.520  0.5520 -0.2548 -0.4189
 2210TIP3    H128121   5.253   3.681  15.610 -0.2917 -0.7601 -0.2649
 2210TIP3    H228122   5.209   3.793  15.519  2.4513  0.1378 -0.5667
 2211TIP3   OH228123   2.486   2.423   5.448 -0.0432 -0.3240 -0.0244
 2211TIP3    H128124   2.509   2.468   5.530  1.1665  0.3295 -0.7017
 2211TIP3    H228125   2.499   2.330   5.467  2.0595 -0.0685  0.0093
 2212TIP3   OH228126   3.736   2.611  15.301  0.0492  0.8524 -0.3653
 2212TIP3    H128127   3.825   2.645  15.295 -0.0566  1.1849 -0.0540
 2212TIP3    H228128   3.727   2.582  15.392  0.4909 -0.9958 -0.8695
 2213TIP3   OH228129   2.794   5.453  14.238 -0.3340  0.0338  0.4892
 2213TIP3    H128130   2.836   5.369  14.218 -0.6884  0.4174 -2.3219
 2213TIP3    H228131   2.709   5.429  14.276 -0.7015 -0.9583 -0.8556
 2214TIP3   OH228132   4.519   3.494  17.243 -0.2204  0.3468  0.2846
 2214TIP3    H128133   4.458   3.553  17.288 -1.5197  0.5059 -1.5626
 2214TIP3    H228134   4.567   3.450  17.314 -0.3430  2.4199  1.7408
 2215TIP3   OH228135   6.222   2.324   4.946 -0.1513 -0.6181 -0.2276
 2215TIP3    H128136   6.271   2.375   5.011 -0.9292  1.0354 -0.8800
 2215TIP3    H228137   6.283   2.256   4.918  0.8924 -0.1290  0.7714
 2216TIP3   OH228138   1.630   4.091  15.272  0.3484  0.3791 -0.4574
 2216TIP3    H128139   1.667   4.075  15.185  0.1215  1.0212 -0.6793
 2216TIP3    H228140   1.575   4.014  15.290 -0.5220  0.7570 -1.3861
 2217TIP3   OH228141   0.004   3.391  15.052  0.8205  0.2187  0.4417
 2217TIP3    H128142  -0.019   3.348  15.135  0.0633 -1.8023 -0.7559
 2217TIP3    H228143  -0.064   3.458  15.041  0.2908 -0.2271  0.9239
 2218TIP3   OH228144   2.207   6.052  13.161  0.2940 -0.1664 -0.2926
 2218TIP3    H128145   2.113   6.060  13.150  0.2151  0.2532  0.6117
 2218TIP3    H228146   2.225   6.088  13.248  0.9646 -2.4727  0.6061
 2219TIP3   OH228147   1.764   3.943   1.518 -0.0359 -0.2054 -0.1399
 2219TIP3    H128148   1.723   3.883   1.455 -1.4107  0.7652 -0.2087
 2219TIP3    H228149   1.788   3.887   1.592 -0.3119 -1.0200 -0.6509
 2220TIP3   OH228150   3.760   6.047   5.953  0.1081  0.5445 -0.1160
 2220TIP3    H128151   3.746   6.083   6.040  1.5018  0.6234  0.0870
 2220TIP3    H228152   3.807   6.116   5.906 -1.8678  1.1172 -1.4294
 2221TIP3   OH228153   0.029   5.076   6.367  0.3941  0.3950  0.0751
 2221TIP3    H128154   0.085   5.076   6.289  1.8057 -0.3754  1.0459
 2221TIP3    H228155   0.072   5.135   6.428  1.0099 -1.3222  1.3834
 2222TIP3   OH228156   5.915   5.338  16.713 -0.6198  0.1199 -0.0065
 2222TIP3    H128157   5.874   5.399  16.652 -0.2366  0.7139  0.3224
 2222TIP3    H228158   5.987   5.299  16.664 -0.5435  0.3188 -0.0538
 2223TIP3   OH228159   0.496   5.621   0.037 -0.2976  0.0132 -0.6385
 2223TIP3    H128160   0.486   5.678   0.114  0.8778  1.0071 -1.1796
 2223TIP3    H228161   0.548   5.547   0.069  0.0705  0.3559 -0.4301
 2224TIP3   OH228162   0.221   1.973   5.571 -0.8671 -0.3440  0.3709
 2224TIP3    H128163   0.301   1.974   5.518 -0.2965  1.5707  1.1590
 2224TIP3    H228164   0.251   1.953   5.659 -1.4227 -0.7582  0.4713
 2225TIP3   OH228165   5.186   4.578   2.655  0.0338 -0.5434 -0.6218
 2225TIP3    H128166   5.265   4.623   2.627  0.2758 -0.5379  0.0584
 2225TIP3    H228167   5.120   4.602   2.590 -0.3585  2.2850  0.6851
 2226TIP3   OH228168   5.879   0.978  13.679 -0.0169  0.3938 -1.0535
 2226TIP3    H128169   5.893   0.890  13.712 -1.5383  0.8454  1.0426
 2226TIP3    H228170   5.930   1.034  13.738 -0.1340  1.0043 -1.5252
 2227TIP3   OH228171   1.558   1.750   4.236  0.5022  0.2932  0.5342
 2227TIP3    H128172   1.572   1.836   4.277 -1.4070  0.5690  0.6997
 2227TIP3    H228173   1.615   1.751   4.159  0.1358  1.9454  0.2347
 2228TIP3   OH228174   6.255   3.818   3.532 -0.0006  0.0613 -0.3720
 2228TIP3    H128175   6.240   3.747   3.469  0.4862 -2.1396  1.8198
 2228TIP3    H228176   6.349   3.817   3.546  0.1941  2.0954 -1.2483
 2229TIP3   OH228177   3.063   5.316   1.396 -0.4344 -0.7238  0.8118
 2229TIP3    H128178   3.097   5.405   1.388  0.6554 -1.2676 -1.8568
 2229TIP3    H228179   2.968   5.326   1.397 -0.3098  0.5154  1.7869
 2230TIP3   OH228180   4.912   3.904   5.261  0.2461 -0.4319 -0.9400
 2230TIP3    H128181   4.977   3.973   5.268 -0.8148  0.5051  0.0555
 2230TIP3    H228182   4.924   3.869   5.172  1.9712 -0.1931 -0.8405
 2231TIP3   OH228183   5.719   2.333   4.908 -0.8997  0.4896 -0.8812
 2231TIP3    H128184   5.789   2.377   4.956 -1.3927 -0.1616  0.4721
 2231TIP3    H228185   5.671   2.403   4.865 -0.4640  1.0855 -0.4023
 2232TIP3   OH228186   2.896   0.043   5.677 -0.0702  0.5249 -0.1479
 2232TIP3    H128187   2.984   0.074   5.656 -0.4464  2.9854  1.4474
 2232TIP3    H228188   2.911  -0.039   5.723  1.6517  1.8823  1.9688
 2233TIP3   OH228189   0.298   4.297   1.772  0.1640  0.5261  0.0816
 2233TIP3    H128190   0.244   4.237   1.720  2.6804  0.2635 -2.3996
 2233TIP3    H228191   0.374   4.315   1.718  1.0585  3.4988  2.0833
 2234TIP3   OH228192   3.917   3.226   3.353  0.2609  0.1597 -0.0853
 2234TIP3    H128193   3.850   3.158   3.362  0.1443  0.1665 -0.8116
 2234TIP3    H228194   3.869   3.304   3.325  0.1914  0.9589  2.0873
 2235TIP3   OH228195   5.869   6.179  15.791 -0.0352 -0.1118 -0.1715
 2235TIP3    H128196   5.919   6.109  15.750  0.7488 -0.1959  0.8890
 2235TIP3    H228197   5.829   6.139  15.868 -2.0670 -0.1311 -1.1595
 2236TIP3   OH228198   3.993   5.372   3.682 -0.2537  0.7508  0.0312
 2236TIP3    H128199   4.004   5.280   3.706 -0.5774  0.5928 -0.4133
 2236TIP3    H228200   4.017   5.376   3.589  0.4809  1.2550  0.2405
 2237TIP3   OH228201   1.156   4.956  15.689  0.1542  0.2383  0.5085
 2237TIP3    H128202   1.126   4.909  15.612  0.5410 -1.9607  1.6388
 2237TIP3    H228203   1.216   5.023  15.655 -1.4770  0.8945 -1.2469
 2238TIP3   OH228204   2.149   2.497   1.545  0.2530  0.0842  0.4058
 2238TIP3    H128205   2.172   2.405   1.540 -1.1978 -0.2582 -0.6090
 2238TIP3    H228206   2.143   2.515   1.639 -2.0686 -1.5890  0.6647
 2239TIP3   OH228207   1.489   4.652  16.353 -0.2595 -0.3623  0.4005
 2239TIP3    H128208   1.582   4.653  16.376  0.0844  1.0200 -0.8394
 2239TIP3    H228209   1.489   4.654  16.257 -1.5559  0.1567  0.3986
 2240TIP3   OH228210   2.556   0.878  11.747  0.3401 -0.3863 -0.2775
 2240TIP3    H128211   2.544   0.783  11.755 -4.4779 -0.0659 -0.6534
 2240TIP3    H228212   2.541   0.912  11.835 -1.6097  0.1470 -0.7709
 2241TIP3   OH228213   5.766   5.239   5.272  0.4516 -0.1456 -0.4374
 2241TIP3    H128214   5.731   5.220   5.185  0.6077 -1.1722 -0.2823
 2241TIP3    H228215   5.716   5.315   5.302 -0.9192 -0.9249 -0.6568
 2242TIP3   OH228216   5.549   4.524  16.856  0.5849 -0.5150 -0.3184
 2242TIP3    H128217   5.493   4.448  16.838  0.7542 -0.2236 -2.2707
 2242TIP3    H228218   5.522   4.553  16.943 -2.8904  0.0656 -1.4021
 2243TIP3   OH228219   4.863   4.539  12.655  0.2899 -0.4324 -0.0940
 2243TIP3    H128220   4.919   4.461  12.655 -1.0356 -1.4336  0.6180
 2243TIP3    H228221   4.786   4.514  12.604 -1.1458 -0.3935  1.9368
 2244TIP3   OH228222   4.223   3.334   0.943 -0.2307 -0.0978 -0.0365
 2244TIP3    H128223   4.197   3.244   0.962 -0.6322 -0.2217 -1.1085
 2244TIP3    H228224   4.305   3.326   0.893 -1.3952 -0.0132 -2.0785
 2245TIP3   OH228225   0.384   5.267  14.226 -0.2622 -0.3650  0.2114
 2245TIP3    H128226   0.390   5.301  14.137  0.8483 -2.0496 -0.4014
 2245TIP3    H228227   0.331   5.187  14.218  0.9211 -1.2446  0.8074
 2246TIP3   OH228228   5.484   0.919  13.458 -0.3405  1.1185  0.4432
 2246TIP3    H128229   5.430   0.998  13.457 -0.6784  0.8862  0.1740
 2246TIP3    H228230   5.452   0.866  13.385  0.9830  1.4540 -0.4253
 2247TIP3   OH228231   4.551   4.254   0.458 -0.1023 -0.1443  0.4415
 2247TIP3    H128232   4.605   4.192   0.506  1.9635  0.0652 -1.4781
 2247TIP3    H228233   4.465   4.212   0.453  0.4125 -1.4467  1.7634
 2248TIP3   OH228234   6.240   6.015  13.203 -0.0284 -0.0706 -0.1241
 2248TIP3    H128235   6.321   5.986  13.162 -0.1799  0.5377 -0.8696
 2248TIP3    H228236   6.268   6.064  13.280  0.4077  1.5054 -1.2295
 2249TIP3   OH228237   5.613   4.023  15.079 -0.3656  0.2175 -0.0105
 2249TIP3    H128238   5.536   4.079  15.089 -1.1845 -0.9129  0.1977
 2249TIP3    H228239   5.601   3.982  14.994 -1.3762 -1.9294  1.0812
 2250TIP3   OH228240   0.966   5.882   6.930 -0.5193 -0.1706 -0.0847
 2250TIP3    H128241   1.011   5.818   6.985  0.7936  0.2613 -0.6163
 2250TIP3    H228242   0.887   5.837   6.901 -0.2121 -1.1219  0.5115
 2251TIP3   OH228243   2.341   5.799  14.271 -0.0034  0.8663 -0.4088
 2251TIP3    H128244   2.382   5.836  14.349  0.9382  0.9249 -0.9093
 2251TIP3    H228245   2.367   5.707  14.272  0.6651  1.0381 -1.0504
 2252TIP3   OH228246   3.188   2.749   5.590 -0.1859  0.1334  0.5973
 2252TIP3    H128247   3.193   2.751   5.686  0.4351  0.0853  0.5714
 2252TIP3    H228248   3.234   2.668   5.566  1.1639  0.9755  0.1824
 2253TIP3   OH228249   0.666   6.767  11.625  0.0107  0.3060 -0.6544
 2253TIP3    H128250   0.654   6.685  11.672  0.9496  0.3332 -0.3497
 2253TIP3    H228251   0.752   6.798  11.652  0.3667  0.5753 -2.0317
 2254TIP3   OH228252   6.584   6.757   3.848 -0.2276 -0.3172  0.2638
 2254TIP3    H128253   6.676   6.733   3.854  0.2833  1.2286 -0.8445
 2254TIP3    H228254   6.558   6.731   3.760 -0.6450 -0.0972  0.3196
 2255TIP3   OH228255   3.082   2.916   3.495  0.2592 -0.9074 -0.2602
 2255TIP3    H128256   3.030   2.864   3.556 -1.4379  0.6776 -0.2593
 2255TIP3    H228257   3.149   2.856   3.463 -1.0493 -2.8192  0.3874
 2256TIP3   OH228258   3.408   2.438  15.033 -0.4683 -0.3064  0.4253
 2256TIP3    H128259   3.425   2.348  15.004  0.0056 -0.0735 -0.0496
 2256TIP3    H228260   3.469   2.452  15.104 -1.2794 -0.7068  1.2259
 2257TIP3   OH228261   3.893   6.575  13.206 -0.4303  0.6308  0.4515
 2257TIP3    H128262   3.901   6.480  13.213 -2.0457  0.3901 -0.3234
 2257TIP3    H228263   3.841   6.600  13.283 -1.6023  0.6094 -0.3113
 2258TIP3   OH228264   5.145   0.343  11.971 -0.2638 -0.5364 -0.1514
 2258TIP3    H128265   5.099   0.425  11.988 -0.7634 -0.8664  0.1033
 2258TIP3    H228266   5.214   0.367  11.909  0.5327  0.3506  1.0495
 2259TIP3   OH228267   0.217   4.269  13.406  0.2940 -0.1114  0.3193
 2259TIP3    H128268   0.299   4.300  13.368  0.7472  0.1825  1.4776
 2259TIP3    H228269   0.240   4.186  13.447 -0.2007 -0.4584 -0.0955
 2260TIP3   OH228270   3.948   5.955  12.579  0.0531 -0.1198  0.0807
 2260TIP3    H128271   4.028   6.004  12.601 -0.3812  0.1751  1.0510
 2260TIP3    H228272   3.980   5.871  12.546  0.8024  0.5898 -1.1122
 2261TIP3   OH228273   1.056   3.644  13.434  0.0348  0.9496 -0.6147
 2261TIP3    H128274   1.004   3.677  13.508  0.0722  0.2911 -0.2877
 2261TIP3    H228275   1.007   3.672  13.356 -1.3294 -0.4372 -0.3107
 2262TIP3   OH228276   2.750   2.715   1.679 -0.3368 -0.5927 -0.4551
 2262TIP3    H128277   2.843   2.714   1.658 -0.1365 -1.1774  0.4210
 2262TIP3    H228278   2.710   2.655   1.615 -0.0461 -0.7080 -0.5281
 2263TIP3   OH228279   2.901   4.429  12.934  0.4619 -0.2303  0.3273
 2263TIP3    H128280   2.886   4.512  12.889  0.5535 -1.5809 -2.4112
 2263TIP3    H228281   2.983   4.442  12.982  0.9965  0.9757 -0.8398
 2264TIP3   OH228282   1.318   4.566   0.049  0.8903 -0.0037  0.4133
 2264TIP3    H128283   1.306   4.482   0.003  0.0608  0.1334  0.3553
 2264TIP3    H228284   1.384   4.548   0.116  1.5450 -0.4066 -0.3341
 2265TIP3   OH228285   1.414   1.191   5.001  0.1074 -0.2828 -0.1752
 2265TIP3    H128286   1.375   1.271   5.036  0.3265 -0.3769  0.2841
 2265TIP3    H228287   1.357   1.121   5.032 -0.5046 -0.2572 -1.1795
 2266TIP3   OH228288   2.580   5.199   4.850  0.3410  0.2893  0.2655
 2266TIP3    H128289   2.673   5.200   4.827  0.1112  1.3022 -0.7054
 2266TIP3    H228290   2.542   5.130   4.796  0.2905  0.8191 -0.3841
 2267TIP3   OH228291   5.952   5.685  12.424 -0.4670  0.0667  0.1293
 2267TIP3    H128292   6.023   5.663  12.364 -0.3136 -0.8359  0.6285
 2267TIP3    H228293   5.991   5.746  12.486 -0.2239 -0.1400  0.1829
 2268TIP3   OH228294   0.460   0.268   1.778 -0.2022 -0.6182  0.4211
 2268TIP3    H128295   0.417   0.231   1.856 -1.4641 -1.1868 -0.5140
 2268TIP3    H228296   0.520   0.200   1.749 -0.0145 -0.5593  0.6653
 2269TIP3   OH228297   5.273   4.052   1.097  0.2959  0.0102  0.3195
 2269TIP3    H128298   5.216   4.041   1.022 -0.8097  0.3885  1.0775
 2269TIP3    H228299   5.300   4.143   1.094  0.0497  0.0911  0.5118
 2270TIP3   OH228300   0.286   0.647   1.056  0.3105  0.1444  0.8259
 2270TIP3    H128301   0.362   0.593   1.034  0.3875  0.0905  1.2236
 2270TIP3    H228302   0.318   0.737   1.046  0.0303  0.1356 -0.3715
 2271TIP3   OH228303   5.690   1.527  11.356 -0.0133 -0.0950  0.3384
 2271TIP3    H128304   5.780   1.520  11.325  0.1747  0.6703  0.6771
 2271TIP3    H228305   5.687   1.472  11.434 -0.1624 -1.0522 -0.3257
 2272TIP3   OH228306   2.299   5.162   6.300 -0.1674  0.1826  0.6401
 2272TIP3    H128307   2.235   5.231   6.282 -0.7350 -0.6804 -0.8689
 2272TIP3    H228308   2.248   5.081   6.296  0.8099 -0.4466  0.5692
 2273TIP3   OH228309   1.302   4.025   3.704  0.6408  0.4609 -0.3955
 2273TIP3    H128310   1.319   4.108   3.660 -0.4100  0.8468 -0.1009
 2273TIP3    H228311   1.209   4.009   3.690  1.0888 -1.3547 -1.6077
 2274TIP3   OH228312   0.696   4.542  17.118 -0.1827 -0.0324 -0.3412
 2274TIP3    H128313   0.745   4.618  17.150 -0.9907 -0.2601  1.5794
 2274TIP3    H228314   0.614   4.579  17.085  0.1087  0.0704 -0.9717
 2275TIP3   OH228315   4.998   2.884   3.590  0.2359  0.5623  0.7244
 2275TIP3    H128316   5.076   2.924   3.628  0.7242  0.9068 -0.5847
 2275TIP3    H228317   4.948   2.957   3.553 -1.4890  0.5387  2.8123
 2276TIP3   OH228318   0.828   4.600  15.656 -0.1917 -0.5110 -0.5299
 2276TIP3    H128319   0.833   4.514  15.698 -0.1785 -0.5261 -0.5618
 2276TIP3    H228320   0.915   4.638  15.668 -0.2155 -0.4776 -0.4630
 2277TIP3   OH228321   0.165   4.704  13.998  0.2488  0.3992 -0.5662
 2277TIP3    H128322   0.084   4.714  13.947  0.7175  0.0284 -1.4110
 2277TIP3    H228323   0.136   4.700  14.089 -1.0376 -3.1023 -0.9604
 2278TIP3   OH228324   4.067   3.335  16.931 -0.3374  0.0819 -0.5897
 2278TIP3    H128325   4.132   3.384  16.881  0.6338  0.8922  1.3603
 2278TIP3    H228326   4.101   3.246  16.933  0.2683  0.3099 -0.3505
 2279TIP3   OH228327   0.695   1.900   0.095 -0.0620 -0.3051  0.3750
 2279TIP3    H128328   0.660   1.811   0.100 -2.0775  0.4836  2.2684
 2279TIP3    H228329   0.681   1.927   0.005 -2.0372 -0.9935  0.4324
 2280TIP3   OH228330   2.085   0.664   4.418  0.1714  0.4550  0.5596
 2280TIP3    H128331   2.027   0.640   4.491  1.1423  1.5123  1.7227
 2280TIP3    H228332   2.157   0.601   4.424 -0.8743 -0.9616 -0.9852
 2281TIP3   OH228333   0.027   4.111  17.282  0.6104 -0.1219  0.1297
 2281TIP3    H128334  -0.024   4.191  17.288  0.3372 -0.3140  0.4284
 2281TIP3    H228335  -0.018   4.050  17.340  0.8132 -0.4926 -0.0996
 2282TIP3   OH228336   1.531   2.007   0.001 -0.3126 -0.0361 -0.0648
 2282TIP3    H128337   1.520   2.035  -0.090  0.3305  1.0204  0.1652
 2282TIP3    H228338   1.448   2.031   0.042 -0.6204 -0.5503 -0.3692
 2283TIP3   OH228339   4.837   4.484   1.637  0.2619 -0.0446  0.6474
 2283TIP3    H128340   4.875   4.436   1.710  2.9185 -0.1531 -0.6738
 2283TIP3    H228341   4.835   4.575   1.666 -0.0582 -0.2758  1.3649
 2284TIP3   OH228342   4.303   5.779  13.476  0.3390 -0.4160  0.0825
 2284TIP3    H128343   4.348   5.746  13.553 -0.9707  0.3233  1.2148
 2284TIP3    H228344   4.223   5.727  13.470 -1.7695  2.2810  1.8989
 2285TIP3   OH228345   4.522   2.844  13.077 -0.1240 -0.2732  0.0650
 2285TIP3    H128346   4.564   2.918  13.033  0.9449 -1.0705 -0.2812
 2285TIP3    H228347   4.483   2.793  13.007 -1.0290  0.0519  0.3225
 2286TIP3   OH228348   2.788   4.524  10.766 -0.6294  0.0280 -0.1976
 2286TIP3    H128349   2.825   4.608  10.739  0.3059 -0.7896 -1.5909
 2286TIP3    H228350   2.693   4.537  10.759 -0.5044  0.9803 -0.3543
 2287TIP3   OH228351   1.781   4.898   0.889 -0.1464 -0.2667  0.0978
 2287TIP3    H128352   1.834   4.977   0.883 -1.3254  0.5843  0.4943
 2287TIP3    H228353   1.783   4.874   0.981 -1.1062  0.2491  0.2612
 2288TIP3   OH228354   0.378   5.886   3.018  0.5164  0.1415 -0.1105
 2288TIP3    H128355   0.309   5.870   2.953 -0.9363  1.0905  1.1370
 2288TIP3    H228356   0.396   5.979   3.011 -0.1162  0.3856  1.2623
 2289TIP3   OH228357   2.944   1.756   3.808 -0.1933 -0.2357  0.1899
 2289TIP3    H128358   2.903   1.677   3.841 -2.6925  0.7633 -0.2594
 2289TIP3    H228359   2.918   1.760   3.716 -0.6774  1.3796  0.3572
 2290TIP3   OH228360   0.630   2.944   3.843  0.1949 -0.4055 -0.0721
 2290TIP3    H128361   0.619   3.004   3.918  0.7978 -1.1736  0.6464
 2290TIP3    H228362   0.724   2.948   3.823  0.3258 -1.4467  0.2821
 2291TIP3   OH228363   6.085   4.041   3.497  0.4448 -0.2253  0.7870
 2291TIP3    H128364   6.006   3.995   3.468  1.4606 -0.5042 -1.8301
 2291TIP3    H228365   6.154   3.974   3.493  1.2025  0.5351  0.9564
 2292TIP3   OH228366   5.738   4.721  10.868  0.1024 -0.5786 -0.1527
 2292TIP3    H128367   5.724   4.712  10.962  1.7711 -2.0114  0.0130
 2292TIP3    H228368   5.710   4.637  10.831  0.4349 -0.4141 -0.7981
 2293TIP3   OH228369   6.714   6.613   1.562 -0.1929 -0.7824 -0.0625
 2293TIP3    H128370   6.729   6.626   1.655 -1.0791 -1.3042  0.1672
 2293TIP3    H228371   6.718   6.700   1.524 -0.4352 -0.4922  0.5626
 2294TIP3   OH228372   1.133   3.909  13.614 -0.6696 -0.3359 -0.0763
 2294TIP3    H128373   1.203   3.890  13.552 -0.6787 -2.8122  0.5637
 2294TIP3    H228374   1.055   3.921  13.560 -0.5915 -1.9973 -0.6262
 2295TIP3   OH228375   3.063   4.860   1.760 -0.4343 -0.0233  0.2243
 2295TIP3    H128376   3.073   4.774   1.721 -1.5809  0.6728 -1.7689
 2295TIP3    H228377   3.041   4.917   1.686  0.4597  2.0221  1.4427
 2296TIP3   OH228378   0.891   6.003   4.194 -0.0898 -0.4775  0.1362
 2296TIP3    H128379   0.918   5.928   4.141  0.0059  0.1321 -0.6975
 2296TIP3    H228380   0.798   6.012   4.178 -0.3153 -1.0375  1.0491
 2297TIP3   OH228381   3.807   1.103   6.119 -0.2522 -0.3114  0.0028
 2297TIP3    H128382   3.794   1.019   6.075 -1.4827  0.5036 -1.3099
 2297TIP3    H228383   3.718   1.134   6.137  0.1865  0.6692  0.5467
 2298TIP3   OH228384   5.423   2.198   6.425  0.1993  0.3187  0.0354
 2298TIP3    H128385   5.362   2.172   6.356 -2.1103  1.1999  1.6487
 2298TIP3    H228386   5.456   2.115   6.461  0.2535 -0.1620 -1.0850
 2299TIP3   OH228387   0.154   1.472  13.209 -0.0355 -0.4900  0.5941
 2299TIP3    H128388   0.202   1.552  13.231  0.3742  0.1290 -2.1399
 2299TIP3    H228389   0.223   1.408  13.189 -0.2833 -0.2881 -1.0773
 2300TIP3   OH228390   4.880   3.163  11.070 -0.6202 -0.0518 -1.0210
 2300TIP3    H128391   4.974   3.183  11.059 -0.5091  0.7550  1.0155
 2300TIP3    H228392   4.836   3.236  11.027 -0.2572  0.9288  0.2118
 2301TIP3   OH228393   2.032   0.454   0.861 -0.1142  0.4421 -0.1155
 2301TIP3    H128394   1.974   0.448   0.936 -0.1529 -1.0102 -0.2311
 2301TIP3    H228395   2.118   0.474   0.898 -0.6382  2.7121  0.0467
 2302TIP3   OH228396   6.508   0.608   0.829 -0.2686  0.3688  0.1318
 2302TIP3    H128397   6.542   0.521   0.850  1.4682  0.4529 -1.9786
 2302TIP3    H228398   6.556   0.634   0.750 -2.2379  2.3840 -0.4996
 2303TIP3   OH228399   4.426   5.188  14.802  0.1841 -0.2333  0.8521
 2303TIP3    H128400   4.378   5.121  14.754 -0.4172 -0.1615  1.3360
 2303TIP3    H228401   4.410   5.167  14.894 -0.7186  1.0613  1.0195
 2304TIP3   OH228402   5.629   0.910  15.598 -0.2538  0.0774 -0.0837
 2304TIP3    H128403   5.710   0.911  15.649 -0.0643  2.9367 -0.2954
 2304TIP3    H228404   5.562   0.880  15.660  0.0671  2.9222  1.8460
 2305TIP3   OH228405   3.802   4.574   2.519 -0.7610 -0.2146 -0.6564
 2305TIP3    H128406   3.807   4.655   2.469  0.4146 -0.1702 -0.4895
 2305TIP3    H228407   3.812   4.504   2.454  1.9101 -0.1450 -0.4376
 2306TIP3   OH228408   0.092   5.128   1.418  0.1368  0.2918  0.0753
 2306TIP3    H128409   0.042   5.074   1.479 -2.9666  3.1767  0.4086
 2306TIP3    H228410   0.175   5.145   1.464 -1.0854  0.3142  2.4531
 2307TIP3   OH228411   0.704   0.844   1.363 -0.5703 -0.0154  0.5205
 2307TIP3    H128412   0.782   0.884   1.402  0.0830 -0.7964  0.0418
 2307TIP3    H228413   0.733   0.814   1.277 -1.8459  1.1808 -0.3810
 2308TIP3   OH228414   4.118   4.621  14.864 -0.1514 -0.4092 -0.0698
 2308TIP3    H128415   4.117   4.685  14.935  0.4745  0.9579 -1.2255
 2308TIP3    H228416   4.119   4.536  14.907  0.3777  0.3835  1.5522
 2309TIP3   OH228417   5.951   5.212   1.334  0.1698 -0.0678 -0.2265
 2309TIP3    H128418   5.887   5.281   1.316 -0.8501 -1.1055 -0.6485
 2309TIP3    H228419   5.906   5.152   1.393  1.0377 -0.4093  0.1039
 2310TIP3   OH228420   3.173   1.095  14.761 -0.3607 -0.4457 -0.0047
 2310TIP3    H128421   3.266   1.074  14.762 -0.3989 -0.6377 -0.5178
 2310TIP3    H228422   3.130   1.013  14.738 -0.5271  0.0937 -1.8022
 2311TIP3   OH228423   6.317   6.109   3.782 -0.7493 -0.4408  0.6525
 2311TIP3    H128424   6.248   6.129   3.845 -1.6767  1.2477 -0.8239
 2311TIP3    H228425   6.397   6.145   3.821 -1.7906  3.4066 -0.3344
 2312TIP3   OH228426   3.378   5.249   1.695  0.3599  0.0115 -0.0135
 2312TIP3    H128427   3.457   5.291   1.660  0.6303  0.0831  0.6629
 2312TIP3    H228428   3.382   5.266   1.789 -0.7001  0.4008 -0.0292
 2313TIP3   OH228429   5.832   4.764  15.772 -0.5703 -0.6438 -0.1803
 2313TIP3    H128430   5.761   4.819  15.740 -1.6691 -1.6940  0.3665
 2313TIP3    H228431   5.895   4.825  15.810 -0.0329  0.5090 -2.6872
 2314TIP3   OH228432   2.597   0.507  16.761 -0.5034 -0.0770 -0.0074
 2314TIP3    H128433   2.620   0.592  16.798 -0.4854  0.3224 -0.9030
 2314TIP3    H228434   2.542   0.466  16.827  1.7744 -0.5581  1.6898
 2315TIP3   OH228435   1.235   6.246   3.058  0.4185  0.4438 -0.2550
 2315TIP3    H128436   1.325   6.277   3.071  0.1127  1.3120 -0.1174
 2315TIP3    H228437   1.245   6.158   3.024  1.3699  1.1673 -2.0002
 2316TIP3   OH228438   1.754   4.635  12.773  0.2297 -0.2109 -0.0948
 2316TIP3    H128439   1.712   4.698  12.831 -0.1378 -0.6561  0.1305
 2316TIP3    H228440   1.688   4.568  12.758  0.0763  0.2308 -1.5822
 2317TIP3   OH228441   5.475   3.677   3.866  0.2080 -0.1873 -0.1467
 2317TIP3    H128442   5.441   3.766   3.877  1.7075  0.5991 -1.3606
 2317TIP3    H228443   5.473   3.639   3.953 -2.4769  0.2317  0.0529
 2318TIP3   OH228444   1.230   0.156   5.286 -0.1613 -0.0712  0.3232
 2318TIP3    H128445   1.271   0.105   5.356 -0.7351  0.0909  0.7826
 2318TIP3    H228446   1.145   0.113   5.271 -1.3552  1.6306  1.8042
 2319TIP3   OH228447   3.242   2.682  13.646  0.1350 -0.3501  0.0555
 2319TIP3    H128448   3.240   2.616  13.715 -1.6740  0.7680  1.1377
 2319TIP3    H228449   3.295   2.753  13.681 -0.8525  0.2543  0.3539
 2320TIP3   OH228450   3.493   1.556  15.333 -1.0102 -0.1420  0.0068
 2320TIP3    H128451   3.488   1.462  15.352  1.0321 -0.1488  0.7890
 2320TIP3    H228452   3.481   1.562  15.238  1.5796 -1.5610 -0.5152
 2321TIP3   OH228453   6.012   4.124   0.847  0.4856 -0.6504  0.2765
 2321TIP3    H128454   6.107   4.130   0.849  0.5580 -1.1810 -1.0168
 2321TIP3    H228455   5.994   4.030   0.844 -0.1688 -0.6819  2.6204
 2322TIP3   OH228456   4.602   5.523   2.279 -0.6605  0.0862 -0.9302
 2322TIP3    H128457   4.511   5.552   2.276 -0.0716  2.1459 -0.2289
 2322TIP3    H228458   4.652   5.594   2.240  0.7561 -0.5988 -0.4468
 2323TIP3   OH228459   3.996   4.745   1.541 -0.4213 -0.1325 -0.7000
 2323TIP3    H128460   3.914   4.774   1.500 -0.9231 -0.3358  0.1450
 2323TIP3    H228461   4.020   4.666   1.494 -1.4061 -0.7964 -0.1091
 2324TIP3   OH228462   0.651   2.421   1.661 -0.2989  0.1381  0.0753
 2324TIP3    H128463   0.664   2.401   1.569  1.0076  0.6937  0.1202
 2324TIP3    H228464   0.558   2.446   1.668  0.0809  2.1886 -1.4939
 2325TIP3   OH228465   5.205   4.610  11.455 -0.4816 -0.1701 -0.0186
 2325TIP3    H128466   5.228   4.552  11.383  0.9700 -0.8207  0.9255
 2325TIP3    H228467   5.279   4.669  11.464 -0.2611 -0.6243  1.4347
 2326TIP3   OH228468   5.525   2.573  10.325 -0.4786 -0.2306 -0.1648
 2326TIP3    H128469   5.477   2.498  10.362  0.7415 -0.6696  0.5840
 2326TIP3    H228470   5.458   2.624  10.280 -1.8752 -0.1750  1.8619
 2327TIP3   OH228471   2.730   6.166   2.791  0.0093 -0.1531  0.2021
 2327TIP3    H128472   2.683   6.148   2.710  0.5751 -0.2978 -0.0978
 2327TIP3    H228473   2.700   6.099   2.852  0.0872 -0.4592 -0.0930
 2328TIP3   OH228474   2.949   4.497  13.878  0.3666 -1.0076 -0.1617
 2328TIP3    H128475   3.004   4.502  13.956 -2.0037 -1.6465  1.6788
 2328TIP3    H228476   2.950   4.586  13.842  1.7003 -0.7629  0.4183
 2329TIP3   OH228477   2.702   0.831   0.145  0.1376 -0.0106 -0.2435
 2329TIP3    H128478   2.736   0.847   0.057 -0.4463 -2.8879 -1.0730
 2329TIP3    H228479   2.607   0.831   0.135 -0.0015 -3.9840 -0.5266
 2330TIP3   OH228480   0.008   6.128   2.474 -0.0916  0.5564 -0.1145
 2330TIP3    H128481  -0.080   6.166   2.468 -0.5786 -0.2460  1.2547
 2330TIP3    H228482   0.062   6.198   2.511 -0.1701  1.0273 -0.8848
 2331TIP3   OH228483   0.300   6.158  16.626  0.0438 -0.0568  0.3160
 2331TIP3    H128484   0.343   6.242  16.641 -0.4511  0.0104  1.4578
 2331TIP3    H228485   0.257   6.137  16.709 -0.3668 -1.1379 -0.1392
 2332TIP3   OH228486   4.477   5.354   0.340 -0.1415 -0.4800 -0.0954
 2332TIP3    H128487   4.567   5.325   0.355 -0.4094 -0.0205  3.0314
 2332TIP3    H228488   4.423   5.293   0.390 -1.4365  0.1582 -0.6604
 2333TIP3   OH228489   0.272   3.793   5.380  0.6941  0.7274 -0.2523
 2333TIP3    H128490   0.276   3.883   5.348  1.0409  1.2739  1.2445
 2333TIP3    H228491   0.179   3.776   5.392  0.6523  1.0490 -0.1106
 2334TIP3   OH228492   3.088   6.575  13.784  0.6852  0.3886 -0.3454
 2334TIP3    H128493   3.007   6.621  13.803  0.1897 -0.6907  0.2479
 2334TIP3    H228494   3.143   6.640  13.741 -0.5981  1.0511 -1.0343
 2335TIP3   OH228495   0.300   1.123   3.471  0.1291  0.3878 -0.0803
 2335TIP3    H128496   0.379   1.127   3.525 -0.1944 -0.6444  0.5080
 2335TIP3    H228497   0.302   1.203   3.419  1.4182  0.5092  0.1193
 2336TIP3   OH228498   2.903   5.885  13.432 -0.3697  0.8117 -0.1900
 2336TIP3    H128499   2.899   5.980  13.436 -0.4050  0.7660  1.0659
 2336TIP3    H228500   2.811   5.858  13.428 -0.3556  0.8223 -0.7630
 2337TIP3   OH228501   6.122   1.017   0.208  0.0725 -0.0715 -0.4382
 2337TIP3    H128502   6.105   1.053   0.296 -0.4879 -1.7244  0.1742
 2337TIP3    H228503   6.037   1.023   0.163 -0.8953 -3.1356  0.6785
 2338TIP3   OH228504   0.279   1.744   4.026 -0.2299 -0.4010  0.2410
 2338TIP3    H128505   0.284   1.821   3.969  1.8929 -0.8947 -0.3266
 2338TIP3    H228506   0.221   1.684   3.980 -0.0888 -0.0152 -0.4547
 2339TIP3   OH228507   3.806   5.781  15.593  0.1130 -0.3086  0.2067
 2339TIP3    H128508   3.891   5.759  15.555 -0.5262 -0.3112 -1.3207
 2339TIP3    H228509   3.760   5.697  15.600 -0.2488 -0.1566 -0.2632
 2340TIP3   OH228510   5.535   3.210   1.936 -0.6025 -0.2766 -0.1517
 2340TIP3    H128511   5.553   3.124   1.897  0.5096  0.0159 -0.2949
 2340TIP3    H228512   5.596   3.217   2.009  0.1471  0.8674 -0.8459
 2341TIP3   OH228513   4.817   6.732  17.269  0.9428 -0.1665  0.5188
 2341TIP3    H128514   4.850   6.644  17.283 -0.4789 -0.9974 -1.0403
 2341TIP3    H228515   4.724   6.728  17.291  0.9493  1.0591  0.8793
 2342TIP3   OH228516   6.394   1.764   4.613 -0.7496  0.1461  0.0641
 2342TIP3    H128517   6.418   1.772   4.705  0.6906 -1.5453 -0.1210
 2342TIP3    H228518   6.474   1.786   4.565 -1.3589  0.5638 -0.7994
 2343TIP3   OH228519   3.618   1.967   3.565  0.0135  0.9805  0.0653
 2343TIP3    H128520   3.685   1.921   3.615 -0.7912 -1.5683 -1.0477
 2343TIP3    H228521   3.639   2.060   3.578  0.9813  0.4391  3.4518
 2344TIP3   OH228522   1.479   0.033  12.238 -0.0868  0.1777  0.5273
 2344TIP3    H128523   1.416   0.104  12.223 -1.5070 -0.6930  2.0178
 2344TIP3    H228524   1.532   0.064  12.311  0.3804  0.3652  0.1151
 2345TIP3   OH228525   5.995   0.286   4.847 -0.5784  0.0682 -0.4160
 2345TIP3    H128526   6.061   0.265   4.913 -1.9718 -0.9024  0.7433
 2345TIP3    H228527   6.036   0.262   4.764  0.1817 -1.5293  0.3627
 2346TIP3   OH228528   4.218   0.723  16.285 -0.0677 -0.5632 -0.6408
 2346TIP3    H128529   4.216   0.685  16.197 -2.4047 -2.7054  0.2119
 2346TIP3    H228530   4.136   0.695  16.325  0.3634  1.3720  1.8390
 2347TIP3   OH228531   5.261   5.824  14.067 -0.1959  0.6858 -0.7038
 2347TIP3    H128532   5.271   5.749  14.125  1.1404  0.9734 -0.5494
 2347TIP3    H228533   5.345   5.833  14.023 -1.2233  0.3208 -2.8987
 2348TIP3   OH228534   4.361   0.188  13.712 -0.2731  0.2556 -0.4747
 2348TIP3    H128535   4.344   0.142  13.630 -0.1222 -0.8411  0.0912
 2348TIP3    H228536   4.451   0.220  13.704  0.1535 -0.8586 -0.2819
 2349TIP3   OH228537   1.298   6.133  13.313 -0.5052 -0.0507  0.1635
 2349TIP3    H128538   1.387   6.113  13.343 -0.7977 -1.3632  0.2174
 2349TIP3    H228539   1.309   6.212  13.259  0.6484 -0.0468  0.3665
 2350TIP3   OH228540   3.070   3.044  14.261  0.2016 -0.1330  0.1491
 2350TIP3    H128541   3.078   3.100  14.338  0.7341  1.2956 -0.8938
 2350TIP3    H228542   3.056   2.956  14.296 -1.7521  0.7881  1.8398
 2351TIP3   OH228543   6.347   4.714   0.888 -0.3352  0.6829  0.3114
 2351TIP3    H128544   6.376   4.629   0.854 -0.6379  0.5926  0.2697
 2351TIP3    H228545   6.252   4.706   0.892 -0.2992  0.6792  1.2289
 2352TIP3   OH228546   2.793   0.241  16.863 -0.3165 -0.0332 -0.2282
 2352TIP3    H128547   2.783   0.313  16.925  0.1493 -0.5441  0.4585
 2352TIP3    H228548   2.886   0.237  16.845 -0.4393  0.0534 -0.9005
 2353TIP3   OH228549   2.665   6.440  13.015  0.2513  0.4360  0.1445
 2353TIP3    H128550   2.569   6.439  13.009  0.2561 -1.4138 -0.4461
 2353TIP3    H228551   2.683   6.426  13.109 -0.1043 -0.8624  0.0428
 2354TIP3   OH228552   2.467   0.758   4.052 -0.5810  0.3180 -0.1823
 2354TIP3    H128553   2.512   0.796   4.128 -0.3328 -0.7515  0.2286
 2354TIP3    H228554   2.530   0.766   3.980  0.6917 -1.9801  0.5900
 2355TIP3   OH228555   1.166   5.763  16.716 -0.4997 -0.5330 -0.8148
 2355TIP3    H128556   1.177   5.729  16.804 -1.6079 -0.4599 -0.6284
 2355TIP3    H228557   1.091   5.823  16.722  0.4942  0.8378 -1.4393
 2356TIP3   OH228558   2.299   3.864   5.622 -0.2679  0.5455  0.2857
 2356TIP3    H128559   2.357   3.922   5.573 -1.0278  1.6287  0.6232
 2356TIP3    H228560   2.312   3.778   5.582  0.1222  1.1391 -0.9258
 2357TIP3   OH228561   4.215   4.711   2.529 -0.4125 -0.6658 -0.5840
 2357TIP3    H128562   4.218   4.662   2.612  1.4495  1.0140  0.4030
 2357TIP3    H228563   4.157   4.785   2.547  0.3688 -0.0400 -0.6396
 2358TIP3   OH228564   3.756   5.128   3.097  0.4056 -0.1044 -0.3431
 2358TIP3    H128565   3.799   5.136   3.182  0.3806  0.1447 -0.3534
 2358TIP3    H228566   3.674   5.178   3.107  0.2637 -0.3207 -0.4196
 2359TIP3   OH228567   5.979   2.964  15.841  0.4946  0.2554 -0.0813
 2359TIP3    H128568   5.908   3.007  15.890 -0.8226 -1.6452 -0.2149
 2359TIP3    H228569   6.030   2.919  15.908  1.4245  1.3440 -0.0253
 2360TIP3   OH228570   5.968   2.680   0.113 -0.2307 -0.9781  0.2477
 2360TIP3    H128571   5.934   2.606   0.063  1.2907 -0.1664 -2.1702
 2360TIP3    H228572   5.980   2.750   0.049 -1.6628  1.4742  2.4315
 2361TIP3   OH228573   0.256   3.892  12.087 -0.0167 -0.1675  0.6657
 2361TIP3    H128574   0.234   3.951  12.159 -1.2672 -0.0511  0.2084
 2361TIP3    H228575   0.347   3.912  12.067  0.5445 -0.5915  2.5690
 2362TIP3   OH228576   3.095   1.352  13.097 -0.0821 -0.1253  0.6222
 2362TIP3    H128577   3.132   1.339  13.185 -3.2910 -4.8646  1.6534
 2362TIP3    H228578   3.156   1.307  13.039 -0.1530 -0.9487  1.1542
 2363TIP3   OH228579   1.114   3.960  17.414  0.1056 -0.2103  0.3665
 2363TIP3    H128580   1.049   3.932  17.350 -0.3756  1.5890 -0.0005
 2363TIP3    H228581   1.196   3.963  17.364 -0.1085  0.3825  0.0448
 2364TIP3   OH228582   5.195   6.400  14.273  0.7498 -0.2502  0.0104
 2364TIP3    H128583   5.284   6.368  14.284  0.0246 -2.5678 -0.3268
 2364TIP3    H228584   5.168   6.367  14.187 -0.5329  0.1641  0.2331
 2365TIP3   OH228585   6.403   5.184  16.313 -0.6320  0.2718 -1.0135
 2365TIP3    H128586   6.350   5.133  16.374  1.0935  0.2783  0.6006
 2365TIP3    H228587   6.448   5.118  16.260 -1.3483  0.2419 -1.6013
 2366TIP3   OH228588   5.578   0.309   3.137 -0.0426  0.0611 -0.5184
 2366TIP3    H128589   5.624   0.238   3.092  0.6707  0.9084 -1.1568
 2366TIP3    H228590   5.489   0.306   3.102  0.2385  0.0754 -1.2343
 2367TIP3   OH228591   5.127   0.854   3.946 -0.0737  0.2566 -0.0940
 2367TIP3    H128592   5.160   0.864   4.035 -0.0803 -0.1140 -0.0484
 2367TIP3    H228593   5.184   0.911   3.893  1.0324 -0.8145 -0.1044
 2368TIP3   OH228594   6.707   3.135  15.847  0.0684 -0.1748 -0.0032
 2368TIP3    H128595   6.717   3.044  15.873  1.8831 -0.1261 -0.4218
 2368TIP3    H228596   6.748   3.185  15.917 -1.2085  0.3609  0.3860
 2369TIP3   OH228597   5.778   4.118  10.962 -0.2224 -0.0409  0.2877
 2369TIP3    H128598   5.704   4.133  10.903  0.8180  0.2311 -0.9799
 2369TIP3    H228599   5.805   4.206  10.989 -0.2418 -0.1309  0.6037
 2370TIP3   OH228600   6.520   6.627  12.597  0.1263  0.3005 -0.1362
 2370TIP3    H128601   6.577   6.559  12.633  1.0910  1.5053  0.7378
 2370TIP3    H228602   6.433   6.604  12.627  0.3684 -0.7964 -0.2485
 2371TIP3   OH228603   3.532   2.783  14.794 -0.5667 -0.2336  0.2109
 2371TIP3    H128604   3.576   2.793  14.879 -0.5263  0.3309  0.1226
 2371TIP3    H228605   3.448   2.743  14.817 -0.4722 -0.2776  0.4967
 2372TIP3   OH228606   2.878   3.289   1.273  0.1012 -0.6918  0.1504
 2372TIP3    H128607   2.951   3.325   1.323  0.0327  0.0430 -0.2669
 2372TIP3    H228608   2.801   3.305   1.329  0.1912 -1.0063  0.3645
 2373TIP3   OH228609   6.282   6.374  17.166 -0.0208 -0.5120  0.4218
 2373TIP3    H128610   6.291   6.460  17.125 -1.4928 -0.1352  0.8223
 2373TIP3    H228611   6.283   6.312  17.093 -0.2553 -0.0456  0.0148
 2374TIP3   OH228612   5.277   2.621  10.963 -0.2221  0.2297 -0.0772
 2374TIP3    H128613   5.298   2.715  10.963  0.0678  0.1641  0.1442
 2374TIP3    H228614   5.327   2.585  10.890 -1.5741  0.5192 -1.1979
 2375TIP3   OH228615   1.513   5.011  15.296  0.4216 -0.3490 -0.0534
 2375TIP3    H128616   1.504   5.099  15.258  0.1616 -0.0516  0.6562
 2375TIP3    H228617   1.486   4.951  15.227 -0.3350  0.1889 -0.2429
 2376TIP3   OH228618   3.996   0.193  17.478 -0.0761 -0.5640  0.1374
 2376TIP3    H128619   3.934   0.255  17.442 -0.8139 -0.8928  0.8173
 2376TIP3    H228620   4.026   0.233  17.560  2.0793  0.4850 -1.0595
 2377TIP3   OH228621   1.315   2.374   4.145  0.3510 -0.1915 -0.1613
 2377TIP3    H128622   1.385   2.311   4.127  1.8566  1.0215  1.0808
 2377TIP3    H228623   1.324   2.439   4.074  0.1490 -0.2925 -0.2802
 2378TIP3   OH228624   3.244   2.019  13.452  0.3732  1.0847  0.2752
 2378TIP3    H128625   3.173   2.065  13.406 -2.6563 -1.4619  1.9685
 2378TIP3    H228626   3.237   2.050  13.542  1.1326  0.4495  0.5621
 2379TIP3   OH228627   0.207   5.958   1.717 -0.4482  0.0623 -0.0358
 2379TIP3    H128628   0.215   5.866   1.741  0.0095  0.4194  1.3003
 2379TIP3    H228629   0.277   6.001   1.766  0.3360  0.9240 -1.8363
 2380TIP3   OH228630   0.220   5.932  14.288  0.3004 -0.2645 -0.2246
 2380TIP3    H128631   0.202   5.923  14.194  1.0988  0.0106 -0.4098
 2380TIP3    H228632   0.184   6.018  14.310 -2.4088 -1.4551  0.3589
 2381TIP3   OH228633   4.734   4.415  17.338 -0.4956 -0.0535  0.1597
 2381TIP3    H128634   4.719   4.478  17.409  0.1402 -0.2009  0.4342
 2381TIP3    H228635   4.706   4.331  17.375 -0.0014 -0.1585  0.3026
 2382TIP3   OH228636   4.881   5.220   5.130  0.0505 -0.3508  0.1465
 2382TIP3    H128637   4.833   5.170   5.196 -1.7149  0.5474 -0.3725
 2382TIP3    H228638   4.934   5.154   5.085  0.1412 -1.2213  1.4611
 2383TIP3   OH228639   3.013   1.333   3.760 -0.1982  0.3194  0.0336
 2383TIP3    H128640   3.082   1.287   3.712  0.1883  0.3915  0.5146
 2383TIP3    H228641   3.018   1.423   3.727 -0.3649  0.2261 -0.2565
 2384TIP3   OH228642   4.000   6.048  14.689 -0.2296 -0.7294  0.4117
 2384TIP3    H128643   3.982   6.134  14.727  1.3257 -0.0903 -0.2318
 2384TIP3    H228644   4.091   6.031  14.710 -0.0823 -1.5343 -0.7940
 2385TIP3   OH228645   3.587   4.664  11.081 -0.3795  0.2466 -0.2224
 2385TIP3    H128646   3.676   4.676  11.047 -0.3238  0.3130 -0.0538
 2385TIP3    H228647   3.555   4.753  11.094  0.0156  0.2230  0.9830
 2386TIP3   OH228648   5.702   2.927   2.077  0.4320  0.5102 -0.3090
 2386TIP3    H128649   5.628   2.872   2.051  0.1242  1.7946 -2.4406
 2386TIP3    H228650   5.661   3.000   2.124  0.5933  0.1190  0.4480
 2387TIP3   OH228651   0.973   1.418  14.442  0.4666 -0.2991 -0.6374
 2387TIP3    H128652   0.943   1.338  14.401  1.3588 -0.0580 -1.8270
 2387TIP3    H228653   0.942   1.413  14.533 -1.4638 -0.9003 -1.2915
 2388TIP3   OH228654   3.053   0.978  12.308 -0.3915 -0.8090 -0.8816
 2388TIP3    H128655   3.021   0.964  12.219  0.0528 -0.4590 -1.0991
 2388TIP3    H228656   3.007   1.056  12.339 -0.8660 -1.1739 -0.6407
 2389TIP3   OH228657   5.668   0.931   6.117  0.1209 -0.2117 -0.4867
 2389TIP3    H128658   5.613   0.865   6.074 -1.1905  0.1457  0.5579
 2389TIP3    H228659   5.683   0.895   6.205 -1.4022  1.2226  0.4396
 2390TIP3   OH228660   0.525   6.566   1.723 -0.1788 -0.4715 -0.1757
 2390TIP3    H128661   0.557   6.652   1.697 -3.1134  0.4124 -1.2057
 2390TIP3    H228662   0.431   6.578   1.737 -0.6028 -3.4094  0.1893
 2391TIP3   OH228663   5.669   1.067   0.568 -0.2796  0.2562 -0.2398
 2391TIP3    H128664   5.666   0.971   0.575  1.2294  0.0324 -1.9688
 2391TIP3    H228665   5.716   1.095   0.646  0.2363 -0.5376 -0.2461
 2392TIP3   OH228666   2.579   5.658   0.571  0.2333 -0.5214  0.3219
 2392TIP3    H128667   2.518   5.616   0.632  1.1560 -1.0600  0.8958
 2392TIP3    H228668   2.523   5.703   0.509 -0.7406  0.5424  1.9082
 2393TIP3   OH228669   0.674   0.732  11.539  0.0170 -0.1213 -0.0965
 2393TIP3    H128670   0.581   0.748  11.554 -0.1377  1.4500 -2.1735
 2393TIP3    H228671   0.692   0.649  11.582 -2.7855 -1.4144 -1.2012
 2394TIP3   OH228672   6.495   1.703   5.238 -0.1041  0.2218 -0.5802
 2394TIP3    H128673   6.585   1.675   5.256 -0.5937 -0.2076  1.3555
 2394TIP3    H228674   6.447   1.683   5.317 -1.7368  1.3139 -1.2400
 2395TIP3   OH228675   1.044   0.037  12.815 -0.0585 -0.8552  0.0551
 2395TIP3    H128676   0.967  -0.015  12.792  0.5344 -1.5724 -0.3206
 2395TIP3    H228677   1.008   0.115  12.858 -0.9298 -1.7365  0.9584
 2396TIP3   OH228678   2.612   5.808  13.396 -0.0360 -0.5538  0.1281
 2396TIP3    H128679   2.578   5.739  13.453 -1.3408  0.8947  1.2062
 2396TIP3    H228680   2.562   5.799  13.315 -1.2158 -0.0644  0.7678
 2397TIP3   OH228681   5.123   1.176   4.703  0.1939  0.0068  0.0335
 2397TIP3    H128682   5.187   1.129   4.756  1.2566  0.1607 -1.0697
 2397TIP3    H228683   5.175   1.237   4.650 -0.9269  0.6349 -0.3982
 2398TIP3   OH228684   2.477   5.634  11.590 -0.0369 -0.6275 -0.1281
 2398TIP3    H128685   2.465   5.540  11.596  1.4843 -0.9120 -0.8406
 2398TIP3    H228686   2.521   5.647  11.506 -0.2675  0.7246 -0.0681
 2399TIP3   OH228687   5.053   4.320  12.703  0.7549 -0.2375  0.4106
 2399TIP3    H128688   4.966   4.308  12.742  0.2161 -1.6995 -1.0779
 2399TIP3    H228689   5.111   4.268  12.759  0.0233 -2.1726 -0.5056
 2400TIP3   OH228690   6.523   3.804  16.187 -0.5218  0.7870 -0.7848
 2400TIP3    H128691   6.516   3.729  16.247  2.0985  1.1706  0.1513
 2400TIP3    H228692   6.439   3.848  16.194 -1.3350 -0.8411  0.3516
 2401TIP3   OH228693   1.131   5.617   1.806  0.0889 -0.8565 -0.6555
 2401TIP3    H128694   1.095   5.683   1.746 -2.4923 -0.6356  0.9930
 2401TIP3    H228695   1.226   5.629   1.801 -0.2474  2.4118 -1.0400
 2402TIP3   OH228696   4.882   5.944   2.857  0.2587 -0.4252  0.1434
 2402TIP3    H128697   4.939   5.941   2.780  0.1064  1.7596 -0.1382
 2402TIP3    H228698   4.841   5.858   2.861  1.1240 -0.9543 -1.5494
 2403TIP3   OH228699   2.390   6.759  12.721  0.0291  0.0176  0.4983
 2403TIP3    H128700   2.418   6.802  12.640 -1.2771 -1.6030 -0.8970
 2403TIP3    H228701   2.470   6.721  12.757  0.4650 -0.2156 -0.6684
 2404TIP3   OH228702   1.920   0.039  15.299 -0.0931 -0.1706  0.0024
 2404TIP3    H128703   1.897  -0.029  15.362 -0.0154  0.2703  0.5113
 2404TIP3    H228704   1.836   0.071  15.267 -0.1746  0.5657  0.9219
 2405TIP3   OH228705   4.560   5.649   5.441  0.2405 -0.7121  0.0308
 2405TIP3    H128706   4.621   5.715   5.409  0.2768 -1.1743 -0.8773
 2405TIP3    H228707   4.580   5.641   5.534 -0.9209  1.8091  0.5885
 2406TIP3   OH228708   4.497   0.481  13.270  0.5811 -0.7067  0.0743
 2406TIP3    H128709   4.478   0.520  13.355 -0.1049  1.8452 -1.1420
 2406TIP3    H228710   4.560   0.412  13.289  2.6171  1.5404  2.4067
 2407TIP3   OH228711   1.449   2.472  11.637  0.7994  0.2798 -0.0780
 2407TIP3    H128712   1.418   2.402  11.579 -0.0320 -0.2752  1.0071
 2407TIP3    H228713   1.394   2.464  11.715  1.0603  1.8103  0.2823
 2408TIP3   OH228714   3.953   5.727   2.398 -0.1258  0.3257  0.1734
 2408TIP3    H128715   3.893   5.785   2.445 -1.2419 -0.4461 -0.2839
 2408TIP3    H228716   3.909   5.707   2.316  0.6172 -0.5187 -0.0354
 2409TIP3   OH228717   2.487   0.416  16.983  1.2726  0.1489 -0.1498
 2409TIP3    H128718   2.472   0.322  16.996  2.3532 -0.2857 -1.7917
 2409TIP3    H228719   2.405   0.457  17.012  0.4553 -1.3658 -0.1968
 2410TIP3   OH228720   3.292   0.330   6.497 -0.5763 -0.2096 -0.6166
 2410TIP3    H128721   3.217   0.370   6.541 -0.7496 -0.6698 -0.4849
 2410TIP3    H228722   3.366   0.385   6.522 -0.3110 -1.5638  1.9558
 2411TIP3   OH228723   3.837   3.025   4.565 -0.1582 -0.5370  0.3068
 2411TIP3    H128724   3.788   3.104   4.542 -0.4676  0.3222  3.5153
 2411TIP3    H228725   3.775   2.954   4.551 -0.7541  0.0478 -0.0858
 2412TIP3   OH228726   2.575   4.071   5.019  0.3672 -0.0624  0.3111
 2412TIP3    H128727   2.624   4.036   5.093 -1.3358 -1.0156  1.0494
 2412TIP3    H228728   2.585   4.004   4.951  0.2227 -0.1886  0.4120
 2413TIP3   OH228729   4.996   0.629   0.394  0.2818 -0.1595  0.5947
 2413TIP3    H128730   5.013   0.718   0.427  1.5012 -0.8570  1.9933
 2413TIP3    H228731   4.940   0.589   0.461  0.6454 -0.7837  0.5348
 2414TIP3   OH228732   6.678   0.721   1.187 -0.2713  0.4569 -0.0695
 2414TIP3    H128733   6.597   0.687   1.225  0.7263 -2.6659 -0.4377
 2414TIP3    H228734   6.741   0.716   1.259  0.0007  1.1842 -0.2553
 2415TIP3   OH228735   3.190   2.224   2.412  0.2365  0.4645  0.1229
 2415TIP3    H128736   3.126   2.292   2.392 -1.0088 -0.7982 -0.3624
 2415TIP3    H228737   3.224   2.248   2.498 -0.5056  1.4548  0.1618
 2416TIP3   OH228738   3.924   5.541   1.585 -0.0159 -0.0830 -0.3837
 2416TIP3    H128739   3.929   5.526   1.491 -0.1004 -1.5068 -0.1754
 2416TIP3    H228740   3.886   5.461   1.621  0.6659  0.1511  0.9430
 2417TIP3   OH228741   1.247   4.350  11.426  0.7196  0.3178 -0.4643
 2417TIP3    H128742   1.273   4.258  11.439  1.8588  0.9230  2.2510
 2417TIP3    H228743   1.328   4.394  11.398  0.7374  0.8337  0.3560
 2418TIP3   OH228744   4.536   5.774  13.996  0.3182  0.0251  0.5849
 2418TIP3    H128745   4.483   5.840  13.953  0.5498 -0.6270 -0.7897
 2418TIP3    H228746   4.624   5.788  13.961  0.7130  0.0310  1.5482
 2419TIP3   OH228747   1.763   3.091   5.652 -0.1105 -0.7110 -0.2032
 2419TIP3    H128748   1.822   3.104   5.577  0.2510 -1.4676 -0.0646
 2419TIP3    H228749   1.677   3.079   5.612 -0.1414  0.1446 -0.4229
 2420TIP3   OH228750   4.773   0.322  15.814  0.0698  0.4640  0.7019
 2420TIP3    H128751   4.849   0.289  15.863 -1.0893 -1.1024  1.5142
 2420TIP3    H228752   4.701   0.321  15.877 -1.2804 -0.8124 -0.7796
 2421TIP3   OH228753   1.325   2.750  14.132  0.4169 -0.0478  0.6521
 2421TIP3    H128754   1.414   2.730  14.101  0.3841  0.0494  0.4952
 2421TIP3    H228755   1.268   2.718  14.062  0.3201 -0.2766  0.8355
 2422TIP3   OH228756   3.442   2.111  13.295  0.1590  0.0210 -0.3755
 2422TIP3    H128757   3.446   2.059  13.214  1.4638 -0.3329 -0.1026
 2422TIP3    H228758   3.384   2.062  13.352 -2.9397  1.5519 -1.9363
 2423TIP3   OH228759   3.187   3.752   5.568  0.1346  0.5655  0.2813
 2423TIP3    H128760   3.241   3.792   5.636  2.2797 -0.9194 -0.4386
 2423TIP3    H228761   3.122   3.818   5.547  0.0974  1.4961  2.9507
 2424TIP3   OH228762   4.881   6.194   4.793  0.4677  0.0957 -0.4328
 2424TIP3    H128763   4.934   6.207   4.872  0.2320  0.3528 -0.3120
 2424TIP3    H228764   4.933   6.135   4.739  1.1306  0.7651 -0.5529
 2425TIP3   OH228765   0.405   0.196   3.545  0.3066  0.3124  0.3143
 2425TIP3    H128766   0.442   0.175   3.460  2.4550 -0.4212  1.3577
 2425TIP3    H228767   0.424   0.120   3.600 -1.8542  0.3661  1.2422
 2426TIP3   OH228768   6.353   1.457   0.739  0.0986  0.1038  0.7115
 2426TIP3    H128769   6.389   1.368   0.742  1.2659  0.5862  1.6663
 2426TIP3    H228770   6.425   1.510   0.704 -0.2762  0.8247  1.0266
 2427TIP3   OH228771   6.595   1.558  13.832  0.3437  0.4703  0.0189
 2427TIP3    H128772   6.500   1.573  13.829  0.1087 -1.0214 -0.7166
 2427TIP3    H228773   6.633   1.643  13.809 -0.8061  1.0436  0.1460
 2428TIP3   OH228774   0.060   0.177   5.497  0.2457 -0.5949  0.0590
 2428TIP3    H128775   0.150   0.163   5.527  0.3495 -0.0282  0.0331
 2428TIP3    H228776   0.067   0.183   5.401  0.4163  0.9557  0.1398
 2429TIP3   OH228777   4.953   2.885  13.842 -0.2231  0.0435 -0.0453
 2429TIP3    H128778   4.887   2.818  13.824  1.3476 -1.3592 -0.8499
 2429TIP3    H228779   4.971   2.926  13.757  0.5857 -0.2228 -0.0122
 2430TIP3   OH228780   6.118   1.098   4.833 -0.0138 -0.8265  0.1645
 2430TIP3    H128781   6.035   1.145   4.838  0.5644  0.3580 -0.8210
 2430TIP3    H228782   6.183   1.165   4.814  0.9147 -1.9459 -0.8313
 2431TIP3   OH228783   2.808   5.329  13.894  0.0353 -0.8705  0.1173
 2431TIP3    H128784   2.869   5.302  13.825 -0.0383 -1.5616  0.3192
 2431TIP3    H228785   2.809   5.258  13.957  0.3664 -0.0779  1.0222
 2432TIP3   OH228786   3.775   6.043  11.394  0.3067  0.2567 -0.0734
 2432TIP3    H128787   3.722   6.018  11.469  1.3804 -1.1378  0.2627
 2432TIP3    H228788   3.712   6.054  11.323 -0.4521 -1.7534  0.2055
 2433TIP3   OH228789   2.666   3.977   4.179 -0.1471  0.1473 -0.0286
 2433TIP3    H128790   2.640   3.885   4.184 -2.6148  0.7483  4.6865
 2433TIP3    H228791   2.748   3.982   4.227  0.5850  0.3426 -1.2552
 2434TIP3   OH228792   1.470   4.208  15.033  0.2168 -0.3524  0.2603
 2434TIP3    H128793   1.457   4.232  14.941  0.2515  0.2946  0.4229
 2434TIP3    H228794   1.488   4.291  15.077 -1.3663 -0.4412  1.1301
 2435TIP3   OH228795   0.594   1.102  15.832  0.0504 -0.0974  0.1638
 2435TIP3    H128796   0.572   1.113  15.924 -0.6723  0.3294 -0.0442
 2435TIP3    H228797   0.666   1.040  15.831  0.9541  0.8853  1.1006
 2436TIP3   OH228798   6.060   2.370   2.491 -0.2796  0.0654  0.0116
 2436TIP3    H128799   6.100   2.455   2.471 -0.6758  0.0420 -0.8930
 2436TIP3    H228800   6.077   2.358   2.585  0.8231  0.5893 -0.0986
 2437TIP3   OH228801   6.492   2.004   2.100 -0.6410 -0.3901 -0.2172
 2437TIP3    H128802   6.407   2.044   2.081 -0.3913 -0.1695 -0.8923
 2437TIP3    H228803   6.515   2.038   2.186 -0.9734 -0.0009 -0.2744
 2438TIP3   OH228804   6.436   4.573  16.598  0.4180 -0.1458  0.2124
 2438TIP3    H128805   6.487   4.604  16.523 -1.9242  0.9205 -1.0376
 2438TIP3    H228806   6.352   4.545  16.560 -0.4679 -0.5493  2.3232
 2439TIP3   OH228807   1.185   3.363   2.464  0.9541  0.1900 -0.4211
 2439TIP3    H128808   1.124   3.424   2.504 -1.0327 -1.1137 -1.2851
 2439TIP3    H228809   1.185   3.287   2.522  1.3941 -0.0077 -0.6694
 2440TIP3   OH228810   2.174   0.741  12.956 -0.0762 -0.6948 -0.3227
 2440TIP3    H128811   2.248   0.696  12.997 -0.7384 -1.0235  0.5132
 2440TIP3    H228812   2.166   0.700  12.870  1.0086 -0.3295 -0.6278
 2441TIP3   OH228813   3.074   6.563  16.835 -0.0112 -0.6345 -0.9118
 2441TIP3    H128814   2.980   6.579  16.836 -0.3427 -2.4357  0.3534
 2441TIP3    H228815   3.111   6.631  16.892 -0.7832 -1.1357  0.2148
 2442TIP3   OH228816   1.833   6.730   3.415 -0.0379 -0.2252 -0.5127
 2442TIP3    H128817   1.827   6.793   3.486  1.5052  0.3690 -0.8701
 2442TIP3    H228818   1.763   6.756   3.354 -1.2780 -0.6584  0.6785
 2443TIP3   OH228819   1.618   6.698   4.294  0.0890 -0.6286 -0.2702
 2443TIP3    H128820   1.550   6.766   4.288  0.3086 -0.4677 -0.9529
 2443TIP3    H228821   1.642   6.697   4.387 -0.1306  0.0204 -0.2015
 2444TIP3   OH228822   6.216   5.956  11.624  0.0233 -0.1538 -0.1145
 2444TIP3    H128823   6.213   5.868  11.588  0.8837 -0.4175  0.4274
 2444TIP3    H228824   6.274   6.005  11.566  1.0184 -0.4497  0.5957
 2445TIP3   OH228825   3.401   2.704   3.283 -0.6231  0.0469 -0.5640
 2445TIP3    H128826   3.408   2.791   3.245 -0.5410  0.4246  0.3071
 2445TIP3    H228827   3.308   2.683   3.277 -0.9464  0.9395  0.8126
 2446TIP3   OH228828   6.197   6.023  17.199 -0.6562 -0.0313  0.2949
 2446TIP3    H128829   6.138   5.990  17.267 -0.4575  0.0843  0.5222
 2446TIP3    H228830   6.240   5.944  17.166 -0.4642 -0.0446  0.5744
 2447TIP3   OH228831   1.616   3.805  11.783 -0.1303  0.0798  0.2466
 2447TIP3    H128832   1.700   3.774  11.750 -0.6011 -1.9383  0.8360
 2447TIP3    H228833   1.552   3.745  11.746 -1.4503  2.0145 -0.7892
 2448TIP3   OH228834   0.707   3.597  17.292  0.0322  0.2019 -0.1119
 2448TIP3    H128835   0.632   3.618  17.237  0.0631 -2.2658 -1.2083
 2448TIP3    H228836   0.676   3.612  17.382 -1.3779  0.3082 -0.6018
 2449TIP3   OH228837   4.439   6.718   2.289  0.2723  0.0805 -0.4386
 2449TIP3    H128838   4.404   6.752   2.207 -1.1677 -0.2192  0.0311
 2449TIP3    H228839   4.444   6.624   2.275 -0.9395 -0.0887  0.1416
 2450TIP3   OH228840   0.026   4.940  11.567 -0.3358 -0.0999  0.3476
 2450TIP3    H128841   0.088   4.926  11.495  0.4005 -3.4824  1.4342
 2450TIP3    H228842  -0.060   4.933  11.526 -0.0236  1.7802 -0.7300
 2451TIP3   OH228843   4.042   3.383   4.492 -0.4922 -0.2347  0.4748
 2451TIP3    H128844   4.066   3.472   4.466 -0.1920  0.2826  2.4252
 2451TIP3    H228845   4.066   3.377   4.584  0.5551 -2.7255  0.1093
 2452TIP3   OH228846   2.418   6.482   1.235  0.5285 -0.2263 -0.1446
 2452TIP3    H128847   2.399   6.573   1.214  1.6239 -0.3005 -1.5946
 2452TIP3    H228848   2.377   6.432   1.165  2.9211 -0.5875 -1.3710
 2453TIP3   OH228849   1.603   4.083  16.737 -0.5655 -0.0903 -0.2523
 2453TIP3    H128850   1.685   4.061  16.780  0.9746  0.3579 -2.7793
 2453TIP3    H228851   1.539   4.089  16.809  1.0658 -2.6006  1.5762
 2454TIP3   OH228852   2.130   2.725  11.264  0.1985 -0.1834 -0.2598
 2454TIP3    H128853   2.175   2.641  11.269 -0.9969 -0.8277 -0.0020
 2454TIP3    H228854   2.139   2.752  11.172  2.6389  0.6015  0.1462
 2455TIP3   OH228855   3.713   2.928   7.993 -0.1963  0.4516 -0.4022
 2455TIP3    H128856   3.789   2.942   7.936  1.0559 -1.9040  0.5702
 2455TIP3    H228857   3.739   2.966   8.077 -0.1277 -0.2783 -0.0908
 2456TIP3   OH228858   2.252   4.687   4.400 -0.1433 -0.2075  0.6292
 2456TIP3    H128859   2.325   4.633   4.370  0.5647  0.6336  0.8185
 2456TIP3    H228860   2.207   4.631   4.464  0.5816 -0.5760  0.8342
 2457TIP3   OH228861   6.597   2.762  13.511  0.0215 -0.0202  0.1067
 2457TIP3    H128862   6.612   2.851  13.480  0.4692  1.5037  4.1222
 2457TIP3    H228863   6.684   2.732  13.539 -0.5287 -0.6769  1.1637
 2458TIP3   OH228864   1.141   5.856   0.380 -0.2263  0.1011  0.2941
 2458TIP3    H128865   1.109   5.839   0.292  0.2329 -2.0022  0.4757
 2458TIP3    H228866   1.126   5.949   0.394 -0.1453  0.5245 -2.0568
 2459TIP3   OH228867   2.945   6.353  15.862  0.2491 -0.1035 -0.0970
 2459TIP3    H128868   2.937   6.419  15.793 -1.6645  0.3541  0.4964
 2459TIP3    H228869   2.959   6.404  15.942  1.1249 -0.5569  0.0424
 2460TIP3   OH228870   3.823   1.218  13.582  0.0850  0.8723  0.5499
 2460TIP3    H128871   3.870   1.188  13.659 -0.2858 -0.2254  0.3584
 2460TIP3    H228872   3.739   1.251  13.616 -0.5362 -0.6215  0.5300
 2461TIP3   OH228873   2.948   0.963   2.668 -0.2262  0.0741 -0.0468
 2461TIP3    H128874   2.997   0.988   2.745 -3.3189  0.5350  1.9612
 2461TIP3    H228875   2.926   1.046   2.625 -1.2213  0.0892  0.4515
 2462TIP3   OH228876   0.879   3.520   0.865 -0.1917  0.1408  0.2134
 2462TIP3    H128877   0.840   3.581   0.927  0.5983  2.2881 -1.2886
 2462TIP3    H228878   0.963   3.560   0.841  0.6923 -1.9105 -0.3141
 2463TIP3   OH228879   4.513   1.262  10.577 -1.3839 -0.1764 -0.9107
 2463TIP3    H128880   4.508   1.213  10.495  0.4825 -0.7400 -0.7161
 2463TIP3    H228881   4.460   1.211  10.638 -0.1175 -1.5565 -0.9244
 2464TIP3   OH228882   1.170   4.035  13.208  0.5263  0.0796  0.8583
 2464TIP3    H128883   1.221   3.968  13.163 -0.2369 -1.2535  1.9183
 2464TIP3    H228884   1.099   3.988  13.251 -0.7414  1.7090  0.6819
 2465TIP3   OH228885   2.111   1.953   0.564  0.2834  0.0770 -0.0545
 2465TIP3    H128886   2.183   1.955   0.501  0.3612 -0.2724  0.0217
 2465TIP3    H228887   2.075   1.865   0.556 -1.0107  0.6702 -1.0742
 2466TIP3   OH228888   3.223   6.753   3.173 -0.4880  0.5347 -0.0634
 2466TIP3    H128889   3.307   6.791   3.145  0.6779 -1.0396  1.1562
 2466TIP3    H228890   3.217   6.775   3.266 -1.0985  0.0444  0.0142
 2467TIP3   OH228891   1.504   5.581   3.399 -0.1988 -0.0033  1.0607
 2467TIP3    H128892   1.442   5.620   3.336  1.2491  1.3750  0.4322
 2467TIP3    H228893   1.549   5.656   3.438  1.3495 -0.9837  1.2227
 2468TIP3   OH228894   2.248   1.635  11.929  0.0449  0.3978 -0.1924
 2468TIP3    H128895   2.188   1.569  11.963 -0.5551  0.7870 -0.4647
 2468TIP3    H228896   2.335   1.601  11.948 -0.2645  0.0359  0.6139
 2469TIP3   OH228897   4.550   6.409   2.355 -0.0385 -0.4237  0.6375
 2469TIP3    H128898   4.604   6.400   2.277 -1.1238  0.7286 -0.2704
 2469TIP3    H228899   4.460   6.405   2.324 -0.5016  0.6746  1.7309
 2470TIP3   OH228900   4.655   4.837  12.191 -0.0486 -0.5312 -0.1353
 2470TIP3    H128901   4.742   4.799  12.205 -0.3720 -0.7163  1.4755
 2470TIP3    H228902   4.596   4.762  12.194 -0.4836 -0.1496  0.9912
 2471TIP3   OH228903   5.063   2.239   1.330  0.3982  0.1014  0.1782
 2471TIP3    H128904   5.047   2.279   1.416 -0.6578 -0.4370  0.2561
 2471TIP3    H228905   5.139   2.285   1.296  0.7029  0.4775  1.3113
 2472TIP3   OH228906   3.955   1.930  15.427  0.1047 -0.1306  0.2411
 2472TIP3    H128907   3.906   2.006  15.459  0.1086  0.4388 -1.0706
 2472TIP3    H228908   3.889   1.874  15.386  0.2836 -0.2370  0.0958
 2473TIP3   OH228909   3.712   6.645  13.407 -0.4823  0.7514 -0.3520
 2473TIP3    H128910   3.692   6.555  13.432 -1.4933  0.8781 -0.6562
 2473TIP3    H228911   3.750   6.684  13.486 -0.5107  0.2054 -0.0638
 2474TIP3   OH228912   1.768   6.336   5.724  0.0834  0.2139 -0.1674
 2474TIP3    H128913   1.824   6.406   5.693 -0.6887  0.9879  0.1284
 2474TIP3    H228914   1.761   6.275   5.651  1.2892  0.1033 -0.2045
 2475TIP3   OH228915   3.055   5.968  12.630 -0.7631  0.3462 -0.0557
 2475TIP3    H128916   3.094   5.933  12.549 -1.4622  0.2820 -0.3711
 2475TIP3    H228917   3.039   6.060  12.611 -0.8548  0.3495  0.0369
 2476TIP3   OH228918   2.697   5.386   1.928 -0.7586 -0.3545  0.0084
 2476TIP3    H128919   2.754   5.423   1.861  2.0799 -2.7604  0.8711
 2476TIP3    H228920   2.616   5.364   1.881  0.4480 -0.3495 -2.2021
 2477TIP3   OH228921   6.147   0.305  15.856  0.2722 -0.0654 -0.4683
 2477TIP3    H128922   6.102   0.388  15.866  0.9164  0.2231  0.1116
 2477TIP3    H228923   6.080   0.239  15.876  0.2230  0.3665  0.8733
 2478TIP3   OH228924   1.059   3.752   3.063  0.3691  0.1746  0.0130
 2478TIP3    H128925   1.031   3.709   3.144 -3.2327  1.1726 -0.5242
 2478TIP3    H228926   1.105   3.684   3.014 -0.3772 -1.4418  1.4545
 2479TIP3   OH228927   0.532   3.937  15.458  0.0515 -0.6100 -0.2285
 2479TIP3    H128928   0.569   3.952  15.371 -0.0470  0.4992 -0.0938
 2479TIP3    H228929   0.474   3.862  15.446 -0.1060 -0.3539 -1.1665
 2480TIP3   OH228930   3.260   0.176  14.173 -0.0701  0.3764  0.4060
 2480TIP3    H128931   3.233   0.183  14.082  3.5045 -1.1742 -0.9785
 2480TIP3    H228932   3.199   0.115  14.212 -0.1265 -1.0742 -1.7734
 2481TIP3   OH228933   5.696   0.883   3.263  0.0853 -0.1602  0.2980
 2481TIP3    H128934   5.716   0.966   3.306 -0.1459 -0.7081  1.4949
 2481TIP3    H228935   5.632   0.906   3.196  2.0064  1.0502 -1.2261
 2482TIP3   OH228936   0.002   6.096   1.612 -0.1994 -0.5714 -0.6492
 2482TIP3    H128937   0.077   6.047   1.647  0.0352  0.6060  0.6061
 2482TIP3    H228938  -0.036   6.139   1.689 -2.0031 -0.8992 -1.3085
 2483TIP3   OH228939   5.821   5.929   3.534  0.0092  0.1191  0.3118
 2483TIP3    H128940   5.740   5.883   3.554  0.5191 -0.9318  0.0058
 2483TIP3    H228941   5.884   5.860   3.515  0.4656  0.9579 -1.4422
 2484TIP3   OH228942   5.367   1.655   6.515  0.6711 -0.1178 -0.3251
 2484TIP3    H128943   5.321   1.739   6.515 -0.3973 -0.6664  0.4023
 2484TIP3    H228944   5.308   1.596   6.563  1.6124 -1.1609 -0.4071
 2485TIP3   OH228945   3.378   1.119  11.711 -0.2769 -0.8317 -0.7095
 2485TIP3    H128946   3.311   1.180  11.679 -1.0305 -0.8575  0.7147
 2485TIP3    H228947   3.440   1.110  11.639 -0.0297  1.7824 -0.8922
 2486TIP3   OH228948   2.278   3.304   0.230 -0.1628 -0.1855 -0.6280
 2486TIP3    H128949   2.347   3.367   0.211 -0.8854  0.8997  0.2005
 2486TIP3    H228950   2.321   3.237   0.285  0.2926  0.3118 -0.3725
 2487TIP3   OH228951   2.337   0.763  14.947  0.4353  0.1958 -0.2414
 2487TIP3    H128952   2.335   0.788  15.040 -0.5670  0.8175 -0.4136
 2487TIP3    H228953   2.417   0.711  14.938  2.1503  2.5265  0.3678
 2488TIP3   OH228954   5.294   4.045   5.179 -0.1333  0.7469 -0.2452
 2488TIP3    H128955   5.326   4.106   5.245 -1.1184 -0.5024  1.4881
 2488TIP3    H228956   5.363   4.043   5.112  0.7479  2.3064  0.5675
 2489TIP3   OH228957   1.823   6.098  14.451 -0.4194  0.1346 -0.3723
 2489TIP3    H128958   1.810   6.131  14.540 -0.7886  0.7788 -0.6621
 2489TIP3    H228959   1.746   6.044  14.434  0.7322 -1.9059  0.5385
 2490TIP3   OH228960   0.658   2.751  12.925 -0.0811  0.0993 -0.4500
 2490TIP3    H128961   0.580   2.806  12.934 -0.3743  0.2505 -3.0890
 2490TIP3    H228962   0.636   2.671  12.973 -0.8377  1.0932  0.9300
 2491TIP3   OH228963   0.378   6.618   6.357  0.2214 -0.0393  0.0612
 2491TIP3    H128964   0.316   6.685   6.329 -0.9948 -1.3962 -0.6118
 2491TIP3    H228965   0.404   6.645   6.445  1.1782  2.2593 -0.8522
 2492TIP3   OH228966   5.419   1.434   4.127 -0.0560  0.2906 -0.3291
 2492TIP3    H128967   5.490   1.418   4.065  1.6797  2.5590  0.8997
 2492TIP3    H228968   5.458   1.414   4.213 -1.9280 -1.3607  0.2091
 2493TIP3   OH228969   4.099   5.942   0.858 -0.0495 -0.3298 -0.4620
 2493TIP3    H128970   4.100   5.988   0.942  1.8093 -0.8885 -0.1322
 2493TIP3    H228971   4.067   5.854   0.878 -0.9707 -0.0448 -0.6172
 2494TIP3   OH228972   0.038   2.798   4.549 -0.3852  0.4282 -0.0866
 2494TIP3    H128973  -0.043   2.802   4.497  0.0939  0.8201 -0.8286
 2494TIP3    H228974   0.011   2.761   4.633 -1.2905  0.3216 -0.4106
 2495TIP3   OH228975   2.704   1.997   3.619  1.1341 -0.4797 -0.2027
 2495TIP3    H128976   2.661   1.935   3.561  0.5927  1.1704 -1.6769
 2495TIP3    H228977   2.788   2.016   3.576  0.6918  0.8268 -0.5552
 2496TIP3   OH228978   4.662   5.874  11.543  0.2750 -0.3379 -0.1835
 2496TIP3    H128979   4.622   5.943  11.596 -0.2207 -0.6794 -0.1103
 2496TIP3    H228980   4.714   5.922  11.478 -0.6779  0.1409 -0.6187
 2497TIP3   OH228981   0.040   2.922   4.063 -0.2431  0.5384  0.3631
 2497TIP3    H128982   0.108   2.867   4.025 -0.2464  0.4308  0.5143
 2497TIP3    H228983  -0.006   2.959   3.987 -0.8340 -0.3973  0.2475
 2498TIP3   OH228984   2.322   0.087   6.269 -0.2795  0.2154  0.0392
 2498TIP3    H128985   2.294   0.033   6.195 -0.8392  1.9417 -1.0469
 2498TIP3    H228986   2.409   0.118   6.245  0.6980 -1.3609  1.3401
 2499TIP3   OH228987   5.783   5.245   3.340  0.3923  0.3671  0.1552
 2499TIP3    H128988   5.806   5.335   3.365 -0.0547 -0.0197  2.1590
 2499TIP3    H228989   5.820   5.191   3.410 -1.0863 -0.8204  0.0687
 2500TIP3   OH228990   0.333   1.939  16.458  0.1250 -0.1661 -0.1408
 2500TIP3    H128991   0.389   1.988  16.399 -1.1490 -0.1367 -1.3933
 2500TIP3    H228992   0.392   1.879  16.503  1.1197 -0.4750 -1.7571
 2501TIP3   OH228993   4.985   4.898  16.449  0.2014  0.0990 -0.7903
 2501TIP3    H128994   5.051   4.967  16.442  1.8828 -1.4588 -0.8430
 2501TIP3    H228995   5.033   4.817  16.434 -1.2210 -1.3325  1.7884
 2502TIP3   OH228996   3.840   5.392   2.539  0.4601  0.0278  0.1729
 2502TIP3    H128997   3.811   5.384   2.630  0.8853 -0.8734  0.2323
 2502TIP3    H228998   3.762   5.425   2.493  0.1962  0.3459  0.8277
 2503TIP3   OH228999   1.985   2.798  14.126 -0.3931  0.0439 -0.0536
 2503TIP3    H129000   2.005   2.820  14.217 -1.1584 -0.6110  0.2847
 2503TIP3    H229001   1.942   2.876  14.091 -0.1418  0.2771  0.1528
 2504TIP3   OH229002   0.869   1.781   1.130  0.8342  0.3679 -0.1418
 2504TIP3    H129003   0.921   1.707   1.162  1.1739 -0.1412 -1.7503
 2504TIP3    H229004   0.856   1.762   1.037 -0.9300  1.2640 -0.1124
 2505TIP3   OH229005   4.492   5.430   4.810  0.2438 -0.0027  1.0057
 2505TIP3    H129006   4.583   5.405   4.828  1.4638  1.5632 -2.1474
 2505TIP3    H229007   4.448   5.347   4.791  2.1877 -0.5743 -1.5514
 2506TIP3   OH229008   1.506   1.718   0.067  0.0018 -0.3305 -0.1415
 2506TIP3    H129009   1.537   1.806   0.043  0.9987 -0.6633 -0.1285
 2506TIP3    H229010   1.559   1.694   0.143  0.3245 -1.2657 -0.6464
 2507TIP3   OH229011   5.225   5.918   2.278 -0.0072 -0.1690  0.1714
 2507TIP3    H129012   5.300   5.894   2.224  0.3329 -1.4826  1.1792
 2507TIP3    H229013   5.238   5.871   2.360 -1.1071  0.8672  0.9850
 2508TIP3   OH229014   5.737   5.073  14.340 -0.1344  0.3351  0.4377
 2508TIP3    H129015   5.824   5.042  14.364 -1.4639 -5.1359 -0.4172
 2508TIP3    H229016   5.741   5.086  14.246 -0.3997 -1.0987  0.1986
 2509TIP3   OH229017   2.583   1.865   3.133 -0.0451  0.6112 -0.6989
 2509TIP3    H129018   2.668   1.854   3.089 -0.1001  0.1419 -0.6889
 2509TIP3    H229019   2.520   1.824   3.074 -0.2011  0.5184 -0.4685
 2510TIP3   OH229020   5.163   5.686   5.339  0.1398 -0.6381  0.2044
 2510TIP3    H129021   5.224   5.734   5.395  1.0715 -0.8105 -0.6271
 2510TIP3    H229022   5.132   5.751   5.276 -1.1240 -0.3767  1.0637
 2511TIP3   OH229023   5.087   2.018   3.806  0.5405  0.2023 -0.3420
 2511TIP3    H129024   5.172   2.042   3.769  0.5188  0.8275  0.0049
 2511TIP3    H229025   5.040   1.975   3.734  0.4170  1.5833 -1.1157
 2512TIP3   OH229026   2.168   5.005  17.122  0.1731  0.5193  0.0633
 2512TIP3    H129027   2.148   4.926  17.173  0.4531 -1.2972 -2.4464
 2512TIP3    H229028   2.243   5.044  17.168  0.2514 -0.8549  1.2092
 2513TIP3   OH229029   4.672   0.767   1.375  0.4264  0.0841  0.0622
 2513TIP3    H129030   4.586   0.797   1.344  0.7323  0.1552 -0.7283
 2513TIP3    H229031   4.695   0.828   1.445 -0.7351 -0.6822  1.1686
 2514TIP3   OH229032   3.620   1.111  12.179 -0.3651  0.1138  0.0328
 2514TIP3    H129033   3.681   1.165  12.230 -0.2424 -0.0789  0.0880
 2514TIP3    H229034   3.534   1.150  12.196 -0.4606 -0.5744  1.2163
 2515TIP3   OH229035   3.855   2.900   5.332  0.5330  0.2698  0.4326
 2515TIP3    H129036   3.894   2.824   5.377 -0.1791  0.1440  0.8570
 2515TIP3    H229037   3.850   2.967   5.400 -0.5420  0.0846  0.5603
 2516TIP3   OH229038   5.974   2.940  16.515  0.0256 -0.3447 -0.1727
 2516TIP3    H129039   6.010   2.873  16.573  1.3636 -0.6142 -1.2675
 2516TIP3    H229040   5.886   2.908  16.494  0.2321 -1.1900  0.2100
 2517TIP3   OH229041   6.600   5.416  15.307  0.1470  0.9229  0.8160
 2517TIP3    H129042   6.538   5.343  15.304 -0.6780  1.6034 -1.8281
 2517TIP3    H229043   6.563   5.477  15.371  0.3062 -0.4693  2.2805
 2518TIP3   OH229044   0.483   2.798  14.564  0.5464 -1.0259  0.0641
 2518TIP3    H129045   0.432   2.779  14.485  1.3497 -0.8528 -0.5090
 2518TIP3    H229046   0.418   2.827  14.629 -0.5758 -4.3199  0.5640
 2519TIP3   OH229047   6.710   0.129   0.691 -0.3529  0.2369  0.3366
 2519TIP3    H129048   6.683   0.037   0.699 -0.5796  0.4266  2.0579
 2519TIP3    H229049   6.655   0.164   0.621 -1.1520 -0.6279  0.5119
 2520TIP3   OH229050   1.636   2.160   2.457  0.0671 -0.0135 -0.4976
 2520TIP3    H129051   1.629   2.128   2.367 -0.0862 -1.8926  0.1410
 2520TIP3    H229052   1.727   2.187   2.466 -0.0621  0.7843 -1.3743
 2521TIP3   OH229053   0.604   1.050   4.548  0.3211 -0.3992 -0.1824
 2521TIP3    H129054   0.644   1.067   4.634  0.8192  0.3532 -0.5451
 2521TIP3    H229055   0.664   1.092   4.486  1.1463 -2.7858 -1.1057
 2522TIP3   OH229056   4.416   0.930   3.164 -0.2766 -0.0896  0.1106
 2522TIP3    H129057   4.410   0.891   3.077 -0.4604 -0.0719  0.1152
 2522TIP3    H229058   4.326   0.933   3.196 -0.1536 -0.5523  0.5040
 2523TIP3   OH229059   5.624   5.156   5.665 -0.8857 -0.1499  0.3568
 2523TIP3    H129060   5.637   5.123   5.754  2.7881  1.4555  0.5982
 2523TIP3    H229061   5.670   5.093   5.609 -0.7090  0.3510 -0.0763
 2524TIP3   OH229062   0.534   4.907  11.613 -0.6771  0.3382  0.7641
 2524TIP3    H129063   0.558   4.978  11.673  0.0922  1.4206 -0.7545
 2524TIP3    H229064   0.475   4.948  11.550 -0.3519 -0.4105 -0.0510
 2525TIP3   OH229065   1.410   1.383  11.826 -0.1087 -0.7885  0.1109
 2525TIP3    H129066   1.371   1.449  11.883  1.7203  0.5803 -0.1662
 2525TIP3    H229067   1.434   1.311  11.885 -1.2167 -0.8286  0.5471
 2526TIP3   OH229068   4.998   3.945  17.257 -0.7127  0.0826 -0.5414
 2526TIP3    H129069   4.958   3.988  17.332 -2.5151  0.9709 -1.9494
 2526TIP3    H229070   4.973   3.853  17.266 -0.1276  0.0028  0.4109
 2527TIP3   OH229071   5.900   3.569   2.732  0.5896  0.2113  0.1199
 2527TIP3    H129072   5.964   3.603   2.794  0.2316 -2.6010  2.2333
 2527TIP3    H229073   5.820   3.561   2.783 -0.2542 -0.3828 -1.2587
 2528TIP3   OH229074   0.489   5.148  17.395  0.5048 -0.2205 -0.1922
 2528TIP3    H129075   0.465   5.120  17.306  1.2473 -1.1118 -0.1280
 2528TIP3    H229076   0.416   5.203  17.423  0.0564 -0.2777 -1.1939
 2529TIP3   OH229077   1.329   2.990  11.388  0.2066  0.0276 -0.4242
 2529TIP3    H129078   1.323   2.894  11.391  1.6650 -0.0544  0.3329
 2529TIP3    H229079   1.354   3.009  11.298 -1.2274 -0.1956 -0.9093
 2530TIP3   OH229080   1.733   6.153  16.292 -0.4722  0.1383 -0.2635
 2530TIP3    H129081   1.643   6.123  16.303 -0.3319 -0.0609  0.3891
 2530TIP3    H229082   1.783   6.105  16.358 -0.2803  1.9189  0.9709
 2531TIP3   OH229083   6.388   5.903  16.617 -0.2207  0.0802 -0.6597
 2531TIP3    H129084   6.482   5.896  16.638  0.1833 -0.2863 -2.4567
 2531TIP3    H229085   6.347   5.835  16.669  0.1333  1.7179  1.9848
 2532TIP3   OH229086   4.829   2.714   0.727  0.1968 -0.0044 -0.2823
 2532TIP3    H129087   4.855   2.680   0.642 -2.1370 -2.9921  0.0307
 2532TIP3    H229088   4.786   2.797   0.707  2.2613  0.8372 -1.5927
 2533TIP3   OH229089   0.337   2.685  14.327 -0.0412  0.3516 -0.3058
 2533TIP3    H129090   0.295   2.598  14.330  1.4172 -0.3722  0.7282
 2533TIP3    H229091   0.267   2.746  14.349 -0.6613 -0.7872  1.0544
 2534TIP3   OH229092   3.207   2.191   0.565  0.1266  0.3286  0.0417
 2534TIP3    H129093   3.210   2.273   0.613 -0.6795 -0.3679  1.3136
 2534TIP3    H229094   3.119   2.188   0.528 -0.2336 -0.4605  0.9307
 2535TIP3   OH229095   2.456   1.703  13.249 -0.0269  0.1262  0.1275
 2535TIP3    H129096   2.366   1.691  13.281  0.9010 -2.4125  2.0888
 2535TIP3    H229097   2.494   1.769  13.308 -0.1798  0.1570  0.1931
 2536TIP3   OH229098   2.681   0.227  13.832  0.2252  0.0465 -0.0073
 2536TIP3    H129099   2.610   0.177  13.873 -0.7486  0.6641 -0.8902
 2536TIP3    H229100   2.643   0.259  13.749  0.8245  2.1871  0.4890
 2537TIP3   OH229101   6.728   4.498   1.384  0.6587  0.0746 -0.1301
 2537TIP3    H129102   6.820   4.488   1.408  0.6770 -1.7651 -0.8138
 2537TIP3    H229103   6.687   4.416   1.412 -0.9981  1.2205  1.0254
 2538TIP3   OH229104   4.401   0.036   3.622  0.0004  0.5024  0.0817
 2538TIP3    H129105   4.312   0.021   3.589 -0.5452  2.3500  0.5916
 2538TIP3    H229106   4.424   0.122   3.588  1.2312  0.4496  0.7490
 2539TIP3   OH229107   1.482   2.508  15.343 -0.0196  0.5865 -0.3799
 2539TIP3    H129108   1.444   2.499  15.256 -2.0218 -0.3683  0.5069
 2539TIP3    H229109   1.507   2.418  15.367  0.0384  0.7532  0.2022
 2540TIP3   OH229110   5.458   3.439  15.770  0.1218 -0.2587  0.3815
 2540TIP3    H129111   5.475   3.419  15.678  2.5384  0.1827  0.6804
 2540TIP3    H229112   5.380   3.496  15.769 -1.0658 -1.8122 -1.1790
 2541TIP3   OH229113   5.513   2.184   3.357 -0.4094 -0.3752  0.1139
 2541TIP3    H129114   5.607   2.198   3.345 -0.2218 -0.6009  1.2162
 2541TIP3    H229115   5.485   2.256   3.414 -0.8237 -0.5631  0.1529
 2542TIP3   OH229116   1.922   2.365  17.382 -0.2091 -0.1103  0.3727
 2542TIP3    H129117   1.885   2.295  17.434  1.6222 -1.9315 -0.6297
 2542TIP3    H229118   1.850   2.397  17.328 -1.2718 -0.6301  1.4678
 2543TIP3   OH229119   0.334   3.044  15.925  0.6539 -0.3329  0.2054
 2543TIP3    H129120   0.371   3.129  15.946 -1.5859  1.3445 -1.9554
 2543TIP3    H229121   0.278   3.023  16.000 -0.8293  1.4819 -0.3083
 2544TIP3   OH229122   4.589   5.216  15.610 -0.0066 -0.4284 -0.4085
 2544TIP3    H129123   4.568   5.132  15.651  1.0640 -0.8392 -0.6603
 2544TIP3    H229124   4.651   5.258  15.669 -0.7105  0.3008 -0.1720
 2545TIP3   OH229125   1.879   4.032  16.848  0.2443 -0.6360 -0.1300
 2545TIP3    H129126   1.964   3.989  16.845  0.9556  0.7337 -0.0713
 2545TIP3    H229127   1.894   4.112  16.899 -0.9542 -0.1159 -0.5579
 2546TIP3   OH229128   2.296   6.352  12.498 -0.1084  0.2361 -0.4717
 2546TIP3    H129129   2.277   6.258  12.502 -0.4883  0.3379  1.5896
 2546TIP3    H229130   2.367   6.364  12.561 -0.8706  1.4779  0.2043
 2547TIP3   OH229131   3.972   6.032   2.350  0.4871  0.2081  0.2996
 2547TIP3    H129132   3.923   5.997   2.426  1.0592  1.5286  1.3080
 2547TIP3    H229133   4.042   6.084   2.389  1.1744  0.4080 -1.1606
 2548TIP3   OH229134   0.054   1.198   0.913  0.7421  0.0713  0.3720
 2548TIP3    H129135  -0.006   1.225   0.983 -0.5795 -0.6079 -0.4627
 2548TIP3    H229136   0.081   1.109   0.939 -0.7331 -0.6896 -0.5539
 2549TIP3   OH229137   6.094   6.450  12.400 -0.2845  0.4267 -0.0152
 2549TIP3    H129138   6.086   6.510  12.475  0.5179  0.8143 -0.2338
 2549TIP3    H229139   6.154   6.494  12.340 -0.6083 -0.0639 -0.7151
 2550TIP3   OH229140   6.592   4.860  12.970 -0.3529 -0.3924  0.1367
 2550TIP3    H129141   6.519   4.832  13.024 -1.3593 -0.3905 -1.1769
 2550TIP3    H229142   6.557   4.862  12.881  0.9690  0.5908 -0.3927
 2551TIP3   OH229143   6.051   2.692  12.225 -0.1949  0.3568 -0.1363
 2551TIP3    H129144   6.089   2.767  12.180 -1.2175  0.7269 -0.4080
 2551TIP3    H229145   6.031   2.629  12.155  0.3004 -0.0142  0.0484
 2552TIP3   OH229146   4.776   3.727   4.308 -0.1804 -0.3642  0.2114
 2552TIP3    H129147   4.821   3.661   4.361 -0.5532  0.0825  1.1235
 2552TIP3    H229148   4.683   3.707   4.320 -0.2695 -1.2299 -1.5854
 2553TIP3   OH229149   0.336   4.849   4.133 -0.2497  0.6928  0.3930
 2553TIP3    H129150   0.424   4.844   4.170 -0.6940 -1.5507  1.2622
 2553TIP3    H229151   0.325   4.942   4.112  1.5880  1.3477  2.0234
 2554TIP3   OH229152   4.301   4.870  16.840 -0.0028 -0.6536  0.1967
 2554TIP3    H129153   4.280   4.777  16.837  1.4515 -0.9820 -1.7831
 2554TIP3    H229154   4.222   4.911  16.878 -1.7488 -2.3964 -1.3266
 2555TIP3   OH229155   0.835   6.280  13.706 -0.1413 -0.0183  0.3670
 2555TIP3    H129156   0.861   6.191  13.729 -1.9608 -0.6189  0.2972
 2555TIP3    H229157   0.745   6.272  13.674 -0.2590  1.8078  0.0814
 2556TIP3   OH229158   3.427   2.187  16.173 -0.0161  0.2601  0.1377
 2556TIP3    H129159   3.339   2.196  16.210  0.2061  2.5827  0.2833
 2556TIP3    H229160   3.413   2.188  16.078 -0.2300 -0.7005  0.1529
 2557TIP3   OH229161   2.932   2.014   6.967 -0.4967  0.0716 -0.7722
 2557TIP3    H129162   2.925   2.086   7.030  1.2818 -1.2246  1.0326
 2557TIP3    H229163   3.009   2.036   6.915 -0.6430  0.0314 -1.0077
 2558TIP3   OH229164   6.157   1.697  17.053 -0.2102 -0.1617  0.0491
 2558TIP3    H129165   6.176   1.786  17.082  0.9947 -0.4268  0.0993
 2558TIP3    H229166   6.088   1.707  16.987 -0.0734  0.8028  0.0490
 2559TIP3   OH229167   2.488   6.290  11.106 -0.1104 -0.7541  0.0402
 2559TIP3    H129168   2.435   6.356  11.152 -1.5420  0.3773 -2.9537
 2559TIP3    H229169   2.460   6.207  11.144  1.1692  0.1621  3.3780
 2560TIP3   OH229170   6.452   4.830  15.982  0.1149 -0.5989  0.0520
 2560TIP3    H129171   6.517   4.786  15.928 -0.4169 -1.4213  0.0698
 2560TIP3    H229172   6.369   4.790  15.958  0.1034 -2.8011  3.1695
 2561TIP3   OH229173   1.318   3.145  15.263 -0.1838 -0.4176  0.0515
 2561TIP3    H129174   1.368   3.227  15.267  0.9766 -1.1572  1.3022
 2561TIP3    H229175   1.340   3.099  15.344  0.3085 -2.6044 -1.2398
 2562TIP3   OH229176   1.901   4.556   5.292 -0.3163  0.0856 -0.4330
 2562TIP3    H129177   1.894   4.524   5.202 -0.4750 -0.1179 -0.3483
 2562TIP3    H229178   1.836   4.506   5.341  1.3410 -1.4871  0.2807
 2563TIP3   OH229179   1.147   0.063  16.224  0.2147 -0.2064 -0.1703
 2563TIP3    H129180   1.182   0.070  16.135  0.1765 -0.1535 -0.1816
 2563TIP3    H229181   1.145   0.153  16.256  0.2243 -0.2246 -0.1176
 2564TIP3   OH229182   5.898   1.282  15.737 -0.0956 -0.7005 -0.2293
 2564TIP3    H129183   5.828   1.221  15.760 -0.2547 -0.5507 -0.3143
 2564TIP3    H229184   5.913   1.332  15.817  0.7361 -1.5305  0.1526
 2565TIP3   OH229185   2.089   0.577  15.834  0.6329 -0.4567 -0.4735
 2565TIP3    H129186   2.004   0.536  15.816 -0.3600  1.7388 -1.1474
 2565TIP3    H229187   2.136   0.512  15.886 -1.5642 -1.6538  0.1740
 2566TIP3   OH229188   3.724   4.685  15.686  0.0153  0.2558 -0.2054
 2566TIP3    H129189   3.811   4.679  15.646  0.1212 -2.6558  0.1928
 2566TIP3    H229190   3.674   4.742  15.627  1.9685  1.3894 -0.8414
 2567TIP3   OH229191   4.755   3.692  13.499  0.2542 -0.0446  0.2570
 2567TIP3    H129192   4.805   3.685  13.580 -0.2144  0.7480  0.6290
 2567TIP3    H229193   4.803   3.755  13.446 -1.4380  2.4095  1.4928
 2568TIP3   OH229194   1.598   3.946   2.032  0.5349 -0.3082 -0.7032
 2568TIP3    H129195   1.623   3.945   1.940  0.4338  0.0614 -0.7354
 2568TIP3    H229196   1.521   3.889   2.037  0.6549 -0.4818 -0.8098
 2569TIP3   OH229197   1.227   5.281   3.939 -0.3015 -0.5206 -0.4744
 2569TIP3    H129198   1.207   5.189   3.921 -0.2715 -0.8078  0.8351
 2569TIP3    H229199   1.150   5.313   3.987  0.5327 -0.4503  0.8717
 2570TIP3   OH229200   0.306   0.629  12.381  0.0912 -0.0833 -0.0590
 2570TIP3    H129201   0.312   0.722  12.359 -0.2487 -0.1771 -0.5441
 2570TIP3    H229202   0.374   0.587  12.328  0.2930 -0.1046  0.2134
 2571TIP3   OH229203   4.441   0.527  16.325  0.0340 -0.1040  0.4250
 2571TIP3    H129204   4.399   0.441  16.327  0.5345 -0.3435  1.6605
 2571TIP3    H229205   4.392   0.576  16.260  0.0250 -1.4618 -0.6464
 2572TIP3   OH229206   3.083   3.921   3.186 -0.1890  0.2158  0.2954
 2572TIP3    H129207   3.127   3.970   3.255  0.3142  0.5584 -0.2596
 2572TIP3    H229208   3.095   3.829   3.209  0.5311  0.3131  0.3256
 2573TIP3   OH229209   0.268   3.216   4.610  0.0365 -0.1145  0.1442
 2573TIP3    H129210   0.244   3.177   4.527 -4.4501  1.5150  0.4175
 2573TIP3    H229211   0.185   3.236   4.653  2.0856  1.0219  4.1649
 2574TIP3   OH229212   5.148   3.637   1.122 -0.0252  0.3326  0.1237
 2574TIP3    H129213   5.203   3.586   1.182  0.2809  0.1813 -0.2854
 2574TIP3    H229214   5.118   3.711   1.175 -0.3317 -0.1699  0.6719
 2575TIP3   OH229215   6.491   0.921  13.906  0.6107  0.0125 -0.2417
 2575TIP3    H129216   6.562   0.978  13.876  0.2468  1.1022  0.8978
 2575TIP3    H229217   6.463   0.959  13.989 -0.8525 -0.7987 -0.3336
 2576TIP3   OH229218   5.792   4.262  12.428  0.3335 -0.5949 -0.5221
 2576TIP3    H129219   5.826   4.206  12.358  2.3533 -1.5439  1.1196
 2576TIP3    H229220   5.768   4.202  12.498  0.4942  0.4422  0.4553
 2577TIP3   OH229221   5.669   2.223  12.817 -0.0180 -0.1821 -0.2530
 2577TIP3    H129222   5.708   2.177  12.891 -0.1628 -0.2733 -0.2339
 2577TIP3    H229223   5.677   2.316  12.840 -0.0970 -0.2107 -0.1043
 2578TIP3   OH229224   3.601   4.431  10.728 -0.4897 -0.3167  0.6281
 2578TIP3    H129225   3.633   4.520  10.716  2.6886 -1.0741  2.4438
 2578TIP3    H229226   3.507   4.437  10.712 -0.1552  2.9897 -0.9382
 2579TIP3   OH229227   2.325   1.998  15.573 -0.1100 -0.0655 -0.0694
 2579TIP3    H129228   2.412   1.984  15.609 -0.2417 -0.1115  0.2314
 2579TIP3    H229229   2.267   1.942  15.624 -0.6096  1.3703  1.0344
 2580TIP3   OH229230   1.156   1.114  11.268  0.2885 -0.2732  1.0085
 2580TIP3    H129231   1.113   1.132  11.352 -0.9165  0.7679  0.1913
 2580TIP3    H229232   1.247   1.140  11.282  0.1789 -0.4063  2.0828
 2581TIP3   OH229233   4.417   3.522   0.488 -0.0352  0.2245 -0.2513
 2581TIP3    H129234   4.484   3.540   0.422  1.4878 -0.6337  0.9769
 2581TIP3    H229235   4.364   3.453   0.451  0.9760 -0.4428 -0.4905
 2582TIP3   OH229236   4.263   3.171   2.223  0.1296  0.6516  0.4411
 2582TIP3    H129237   4.306   3.256   2.216 -2.6335  2.1571  0.2460
 2582TIP3    H229238   4.210   3.177   2.303  1.5613 -1.8207  1.7308
 2583TIP3   OH229239   5.802   2.324   6.372  1.1134 -0.1468 -0.2352
 2583TIP3    H129240   5.741   2.344   6.443  1.7758 -1.9417  0.8981
 2583TIP3    H229241   5.754   2.345   6.292 -0.2632  0.3110  0.6836
 2584TIP3   OH229242   4.100   3.553   2.618 -0.5672  0.3724 -0.1378
 2584TIP3    H129243   4.155   3.489   2.664 -0.4212  1.0760  0.6967
 2584TIP3    H229244   4.161   3.596   2.557 -0.4171  0.4685  0.0785
 2585TIP3   OH229245   0.755   5.529   0.996 -0.3462 -0.8931 -0.1470
 2585TIP3    H129246   0.740   5.597   0.930 -1.5740 -2.1846 -1.2917
 2585TIP3    H229247   0.815   5.569   1.059 -1.2981  1.3697 -0.5543
 2586TIP3   OH229248   5.531   2.180   5.824  0.2866 -0.5395 -0.1756
 2586TIP3    H129249   5.624   2.200   5.835  0.5349 -0.7000 -1.7649
 2586TIP3    H229250   5.490   2.210   5.905  1.7344 -0.5843  0.6070
 2587TIP3   OH229251   2.644   1.216   6.077  0.2019  0.4527  0.3066
 2587TIP3    H129252   2.598   1.160   6.138  1.0404  0.1976  0.7179
 2587TIP3    H229253   2.737   1.202   6.096  0.4383  1.7302  0.2036
 2588TIP3   OH229254   5.230   5.411  12.309  0.0707  0.5129  0.3087
 2588TIP3    H129255   5.211   5.466  12.385  0.2938 -1.7498  2.1039
 2588TIP3    H229256   5.304   5.357  12.337 -0.8356 -1.4692 -0.9113
 2589TIP3   OH229257   1.041   2.370   0.591  0.2801  0.1159 -0.3418
 2589TIP3    H129258   0.977   2.349   0.523 -0.8050  0.0338  0.6739
 2589TIP3    H229259   0.989   2.406   0.662  1.3958  0.2187  0.4441
 2590TIP3   OH229260   0.202   4.717   1.904 -0.4078  0.2322  0.3930
 2590TIP3    H129261   0.215   4.623   1.913  0.3922  0.4342  1.6885
 2590TIP3    H229262   0.166   4.728   1.816  1.2022 -1.1289 -0.5114
 2591TIP3   OH229263   3.112   6.728   6.104  0.8646  0.1224 -0.1518
 2591TIP3    H129264   3.025   6.768   6.105  1.0182  0.4545  0.0460
 2591TIP3    H229265   3.151   6.753   6.187  0.8703 -0.6513  0.0850
 2592TIP3   OH229266   5.882   6.345   5.701 -0.1169 -0.8858 -0.7719
 2592TIP3    H129267   5.885   6.415   5.636 -2.6558  0.2171  0.1929
 2592TIP3    H229268   5.882   6.265   5.649  1.9531 -0.2170 -1.9250
 2593TIP3   OH229269   0.143   1.820   2.014  0.1701 -0.5557 -0.2433
 2593TIP3    H129270   0.200   1.765   2.066  0.1179 -0.5400 -0.1696
 2593TIP3    H229271   0.056   1.779   2.021 -0.2811  0.5792  1.3678
 2594TIP3   OH229272   5.239   6.026  12.607  0.3435  0.0097  0.8312
 2594TIP3    H129273   5.182   5.949  12.612  0.6643 -0.2894 -0.0290
 2594TIP3    H229274   5.181   6.099  12.628 -0.3225 -0.3134  0.1559
 2595TIP3   OH229275   0.406   4.936   5.061  0.0382 -0.4193 -0.1685
 2595TIP3    H129276   0.476   4.905   5.118  0.5263 -0.5398 -0.8144
 2595TIP3    H229277   0.414   4.881   4.982  0.2458  0.6459 -0.9063
 2596TIP3   OH229278   2.393   5.560   0.739 -0.5169  1.0317 -0.1074
 2596TIP3    H129279   2.344   5.482   0.712  0.2222  0.2005  0.8525
 2596TIP3    H229280   2.460   5.526   0.799  0.1913  2.3406 -0.1276
 2597TIP3   OH229281   4.812   2.206   5.280  0.6102 -0.4198  0.3954
 2597TIP3    H129282   4.787   2.249   5.362  1.8336  2.2430 -0.5212
 2597TIP3    H229283   4.812   2.276   5.215 -0.4420 -2.4649 -1.9760
 2598TIP3   OH229284   1.514   6.420  16.915 -0.7417 -0.1395 -0.0963
 2598TIP3    H129285   1.473   6.506  16.906  0.3806  0.3520 -0.5825
 2598TIP3    H229286   1.555   6.422  17.002  1.5122  0.8270 -1.1093
 2599TIP3   OH229287   5.241   6.004   3.347  0.1735  0.5633  0.1038
 2599TIP3    H129288   5.265   5.950   3.272 -0.0354  1.3879 -0.5623
 2599TIP3    H229289   5.217   5.941   3.415  1.0483 -0.2054 -0.2817
 2600TIP3   OH229290   6.034   6.605  12.628 -0.0137  0.1027 -0.0455
 2600TIP3    H129291   5.996   6.689  12.651 -0.0856  1.0532 -3.1020
 2600TIP3    H229292   5.970   6.540  12.657  0.2624  0.9871  2.8061
 2601TIP3   OH229293   2.314   2.626   3.470  0.0074  0.1277 -0.0528
 2601TIP3    H129294   2.360   2.634   3.554 -1.1244 -0.0057  0.5965
 2601TIP3    H229295   2.322   2.533   3.447 -0.7955 -0.1046  0.5716
 2602TIP3   OH229296   4.660   3.211  12.494  0.3403  1.0171 -0.2023
 2602TIP3    H129297   4.689   3.179  12.409 -0.9321  0.2172 -0.3504
 2602TIP3    H229298   4.731   3.269  12.523  2.1851 -0.9786 -0.4529
 2603TIP3   OH229299   1.035   2.847   3.349  0.0849 -0.3168  0.2281
 2603TIP3    H129300   1.000   2.834   3.261  0.4002 -0.3048  0.0997
 2603TIP3    H229301   1.078   2.764   3.370 -1.0690 -0.7793  0.8768
 2604TIP3   OH229302   6.337   3.457   4.336 -0.0791 -0.6206  0.1005
 2604TIP3    H129303   6.334   3.361   4.335 -2.6119 -0.6290  0.9044
 2604TIP3    H229304   6.345   3.479   4.429 -0.5213 -0.0533  0.0055
 2605TIP3   OH229305   1.910   3.337   1.884 -0.2015 -0.0880  0.1123
 2605TIP3    H129306   1.955   3.291   1.955 -0.7156  1.3783  1.4737
 2605TIP3    H229307   1.970   3.409   1.861  0.0730 -0.7033 -1.1453
 2606TIP3   OH229308   2.588   5.744  15.462  0.8135  0.5560 -0.2558
 2606TIP3    H129309   2.656   5.698  15.412  1.2673  2.5371 -1.6104
 2606TIP3    H229310   2.635   5.782  15.537  1.1256  1.4054 -0.8582
 2607TIP3   OH229311   5.621   5.626   1.145 -0.0868  0.3329 -0.4227
 2607TIP3    H129312   5.587   5.669   1.223 -4.1201  0.5773 -2.0882
 2607TIP3    H229313   5.602   5.688   1.074  0.6284 -1.1731 -1.9969
 2608TIP3   OH229314   2.956   5.390  15.486 -0.2037  0.0247  0.6225
 2608TIP3    H129315   2.905   5.463  15.452  1.3645  2.9025  3.8135
 2608TIP3    H229316   2.891   5.332  15.526 -1.4650 -0.3281 -1.7574
 2609TIP3   OH229317   3.565   2.409   0.841 -0.6889 -0.2102 -0.1555
 2609TIP3    H129318   3.485   2.440   0.883 -0.1150  1.6389 -0.3471
 2609TIP3    H229319   3.635   2.456   0.885 -0.0555  2.1175 -3.2671
 2610TIP3   OH229320   3.028   3.346   1.864 -0.1898  0.0290 -0.4679
 2610TIP3    H129321   3.081   3.290   1.920 -0.7538  0.5417  0.5923
 2610TIP3    H229322   2.938   3.320   1.882 -0.5086  1.7199  0.5768
 2611TIP3   OH229323   1.839   6.118  12.368 -0.2218 -0.0198 -0.1525
 2611TIP3    H129324   1.897   6.179  12.322  1.0288 -1.4675 -0.5341
 2611TIP3    H229325   1.761   6.113  12.312 -0.4484  1.3659 -0.0056
 2612TIP3   OH229326   0.165   2.287  16.390  0.0768 -0.1722  1.0602
 2612TIP3    H129327   0.241   2.266  16.444 -0.4850 -2.5018  1.0742
 2612TIP3    H229328   0.148   2.379  16.407  2.8628  0.4201  1.0401
 2613TIP3   OH229329   4.089   0.865   2.995  0.4982 -0.3143  0.5175
 2613TIP3    H129330   4.025   0.894   3.060 -0.6193 -1.5504  0.0364
 2613TIP3    H229331   4.036   0.820   2.929  1.7182  0.0310 -0.7273
 2614TIP3   OH229332   2.193   2.121   2.925 -0.0153 -0.7017 -0.7525
 2614TIP3    H129333   2.225   2.067   2.853 -1.0366 -0.3753 -1.4687
 2614TIP3    H229334   2.230   2.208   2.908  0.2088 -0.7575 -0.5588
 2615TIP3   OH229335   1.598   2.413   3.601 -0.4756 -0.4286 -0.0864
 2615TIP3    H129336   1.528   2.365   3.645 -0.5398  0.7674  1.1615
 2615TIP3    H229337   1.670   2.351   3.596 -1.0268 -1.1031  0.2138
 2616TIP3   OH229338   1.370   3.648   5.666  0.5325 -0.2870  0.3304
 2616TIP3    H129339   1.462   3.663   5.687  0.7175  0.7574 -1.1154
 2616TIP3    H229340   1.322   3.690   5.737  1.1621  1.2154 -0.0911
 2617TIP3   OH229341   2.675   2.456   4.875 -0.0722  0.6082 -0.7742
 2617TIP3    H129342   2.597   2.505   4.899  0.1347 -0.2253  1.9775
 2617TIP3    H229343   2.657   2.366   4.901  1.5204  0.2482 -0.7695
 2618TIP3   OH229344   6.076   2.992  12.889 -0.2390 -0.3371  0.1461
 2618TIP3    H129345   6.095   3.017  12.980 -0.8278  3.5175 -0.5864
 2618TIP3    H229346   6.003   3.048  12.864  1.3116  0.4258 -3.3317
 2619TIP3   OH229347   1.862   1.667  17.263  0.0753 -0.2115 -0.4616
 2619TIP3    H129348   1.803   1.594  17.242 -0.5937  1.2508 -4.5624
 2619TIP3    H229349   1.950   1.629  17.259 -0.3387 -1.5292  1.5146
 2620TIP3   OH229350   0.757   0.608  13.532  0.4477  0.4016 -0.1343
 2620TIP3    H129351   0.714   0.595  13.447  1.6202 -1.9794 -0.4538
 2620TIP3    H229352   0.687   0.594  13.596  0.2330 -1.3486 -0.6854
 2621TIP3   OH229353   6.041   1.731  15.108  0.4847 -0.2046  0.4755
 2621TIP3    H129354   6.040   1.796  15.179  1.5512 -0.7497  1.0094
 2621TIP3    H229355   5.960   1.747  15.060 -0.0926  0.3999  1.6159
 2622TIP3   OH229356   0.207   5.357  13.762 -1.0140 -0.2625  0.2646
 2622TIP3    H129357   0.211   5.392  13.673  2.2041 -0.6427  0.1092
 2622TIP3    H229358   0.169   5.269  13.751 -1.1339 -0.1127 -0.6603
 2623TIP3   OH229359   6.367   4.900  14.626 -0.1379  0.2953  0.7230
 2623TIP3    H129360   6.343   4.818  14.583 -0.8081 -0.3750  2.3225
 2623TIP3    H229361   6.322   4.897  14.710  1.3351  1.4653  1.5898
 2624TIP3   OH229362   0.294   2.030  11.995 -0.2288  0.2957 -0.0086
 2624TIP3    H129363   0.293   2.126  11.990 -1.6011  0.3782  1.1102
 2624TIP3    H229364   0.204   2.004  11.979  0.4592 -0.9711 -2.1306
 2625TIP3   OH229365   2.818   3.686  11.389 -0.4070  0.0382 -0.4722
 2625TIP3    H129366   2.887   3.748  11.367 -1.8918  1.7369 -0.5870
 2625TIP3    H229367   2.780   3.663  11.304  0.2642 -1.2516 -0.4527
 2626TIP3   OH229368   6.718   1.157  12.972 -0.4257 -0.7750 -0.1147
 2626TIP3    H129369   6.650   1.208  12.928  0.4744 -0.0793 -0.7322
 2626TIP3    H229370   6.799   1.182  12.928  0.4808 -0.2796  1.7211
 2627TIP3   OH229371   4.471   0.609   0.989 -0.8977  0.0747  0.4913
 2627TIP3    H129372   4.442   0.590   0.899 -1.2589 -1.0968  0.8411
 2627TIP3    H229373   4.462   0.704   0.997 -0.0710  0.3114 -0.9763
 2628TIP3   OH229374   2.335   1.346  12.231  0.3004 -0.2575  0.1092
 2628TIP3    H129375   2.253   1.301  12.251  0.8034 -1.3741 -0.2740
 2628TIP3    H229376   2.368   1.374  12.317 -0.4537  0.1858  0.2664
 2629TIP3   OH229377   3.546   0.600   3.782 -0.4215  0.2707  0.0679
 2629TIP3    H129378   3.568   0.511   3.809  0.5713  0.2219 -0.8290
 2629TIP3    H229379   3.450   0.601   3.780 -0.4653 -1.2794 -1.4096
 2630TIP3   OH229380   6.425   2.633   4.649 -0.2874 -0.4916  0.2342
 2630TIP3    H129381   6.485   2.634   4.724  0.9438 -0.7017 -0.7332
 2630TIP3    H229382   6.444   2.552   4.603  0.9160  0.8793 -1.8351
 2631TIP3   OH229383   5.283   2.547   2.251 -0.4483  0.2070 -0.1423
 2631TIP3    H129384   5.229   2.552   2.331  0.6560 -1.9992  0.8340
 2631TIP3    H229385   5.258   2.464   2.210 -0.1312  0.7373 -1.4513
 2632TIP3   OH229386   5.986   3.827  13.156 -0.5130  0.2683 -0.6291
 2632TIP3    H129387   6.080   3.837  13.143  0.1076 -1.6082  1.7615
 2632TIP3    H229388   5.977   3.754  13.217 -3.5556  0.2720 -0.8856
 2633TIP3   OH229389   3.890   3.046  14.322 -0.3382 -0.3799 -0.4346
 2633TIP3    H129390   3.968   3.027  14.268 -0.0545 -0.9301  0.1592
 2633TIP3    H229391   3.918   3.118  14.379  0.5428 -2.1131  1.4246
 2634TIP3   OH229392   2.903   1.803  14.286  0.1255 -0.4322  0.0230
 2634TIP3    H129393   2.882   1.710  14.294 -0.0269 -0.3320  0.9098
 2634TIP3    H229394   2.818   1.846  14.274  0.3146 -0.5398 -2.0588
 2635TIP3   OH229395   4.822   1.086  11.511 -0.4192 -0.1144 -0.2973
 2635TIP3    H129396   4.848   1.162  11.458 -1.4535 -0.5432 -1.4573
 2635TIP3    H229397   4.901   1.032  11.514 -0.3644 -0.1386 -1.5179
 2636TIP3   OH229398   6.238   2.457  14.683  0.3050  0.6409 -0.5642
 2636TIP3    H129399   6.327   2.471  14.651 -0.3622  1.1437 -2.3237
 2636TIP3    H229400   6.199   2.544  14.687  0.0545  0.4953  0.8164
 2637TIP3   OH229401   4.332   3.437  14.098  0.2038  0.5803 -0.3634
 2637TIP3    H129402   4.340   3.403  14.009 -2.8292 -1.9502  0.1330
 2637TIP3    H229403   4.422   3.444  14.129  1.2806 -1.0430 -2.7340
 2638TIP3   OH229404   5.295   0.154  14.646  0.2944 -0.4567  0.6030
 2638TIP3    H129405   5.292   0.242  14.608  1.0444 -0.5807  0.2254
 2638TIP3    H229406   5.206   0.121  14.637  0.2160 -0.0807 -0.0919
 2639TIP3   OH229407   0.032   1.326   3.473  0.1467 -0.3442  0.0468
 2639TIP3    H129408   0.100   1.258   3.468  2.2530  1.2362  3.3809
 2639TIP3    H229409   0.068   1.400   3.425  1.2386  0.7267  2.3755
 2640TIP3   OH229410   0.427   1.889   4.495 -0.4266 -0.5693 -0.0981
 2640TIP3    H129411   0.387   1.892   4.582 -2.0305 -1.3820 -0.7801
 2640TIP3    H229412   0.465   1.802   4.488  0.9857 -0.0278  0.2890
 2641TIP3   OH229413   1.614   2.823   5.739  0.0970  0.0465  0.0628
 2641TIP3    H129414   1.682   2.867   5.688  1.0863  0.2034  1.4877
 2641TIP3    H229415   1.650   2.738   5.760  0.0244  0.2736  1.1590
 2642TIP3   OH229416   6.113   6.374   5.212  0.7860  0.2488 -0.3556
 2642TIP3    H129417   6.108   6.349   5.304  1.9565  0.8271 -0.1209
 2642TIP3    H229418   6.106   6.469   5.212  0.6741  0.2456 -0.8839
 2643TIP3   OH229419   2.218   6.272   3.553 -0.5051 -0.0327 -0.7763
 2643TIP3    H129420   2.202   6.366   3.556 -0.3626  0.0227 -1.5128
 2643TIP3    H229421   2.265   6.253   3.634 -0.9172  0.4547 -0.4228
 2644TIP3   OH229422   2.561   1.268   1.328 -0.2303 -0.2959 -0.2006
 2644TIP3    H129423   2.653   1.249   1.347  0.0017  1.2987  0.3976
 2644TIP3    H229424   2.561   1.293   1.235 -0.1596 -0.7749 -0.3361
 2645TIP3   OH229425   0.934   2.601  15.068 -0.2196 -0.6088 -0.3422
 2645TIP3    H129426   0.895   2.683  15.039  2.3564  0.4210 -1.1001
 2645TIP3    H229427   1.001   2.626  15.132  2.4376 -1.7781 -2.4711
 2646TIP3   OH229428   3.884   3.729  12.124  0.1537 -0.1561 -0.6076
 2646TIP3    H129429   3.887   3.679  12.042 -0.8305 -2.3369  0.6090
 2646TIP3    H229430   3.806   3.783  12.117  0.6576  0.4911 -1.5101
 2647TIP3   OH229431   5.872   1.851   4.477 -0.0999 -0.3689 -0.2612
 2647TIP3    H129432   5.803   1.915   4.492  1.8240  1.9375 -0.6896
 2647TIP3    H229433   5.915   1.842   4.563  2.0623  2.0170 -0.9843
 2648TIP3   OH229434   1.561   2.080  11.731 -0.7670  0.7263 -0.4094
 2648TIP3    H129435   1.649   2.044  11.732 -1.3358 -0.7404 -0.5718
 2648TIP3    H229436   1.539   2.084  11.638 -0.9485  0.8919 -0.3594
 2649TIP3   OH229437   2.534   3.821  11.904  0.3160  0.0803 -0.8895
 2649TIP3    H129438   2.550   3.787  11.992 -1.0881  1.9309  0.1308
 2649TIP3    H229439   2.596   3.893  11.895 -0.5666  0.8616 -0.8063
 2650TIP3   OH229440   5.799   5.699  15.861 -0.0143  1.0852 -0.2877
 2650TIP3    H129441   5.867   5.666  15.802  0.1296 -2.4392  1.6364
 2650TIP3    H229442   5.840   5.774  15.905  0.6950  2.2772 -2.7687
 2651TIP3   OH229443   1.364   2.070  15.555  0.2216  0.1054 -0.3250
 2651TIP3    H129444   1.283   2.047  15.510 -0.9102  0.5157  1.3903
 2651TIP3    H229445   1.375   2.001  15.621  1.2833  0.0493 -0.5469
 2652TIP3   OH229446   6.326   3.062   3.267  0.2383 -0.2560  0.4351
 2652TIP3    H129447   6.329   3.028   3.178  0.9647 -0.5721  0.5755
 2652TIP3    H229448   6.298   2.987   3.320 -2.6113  0.5181  0.2086
 2653TIP3   OH229449   0.608   1.535   5.486 -0.1912  0.4625  0.2249
 2653TIP3    H129450   0.583   1.443   5.484 -2.8539  1.0200  2.6316
 2653TIP3    H229451   0.693   1.536   5.529  0.2193 -0.8700 -0.4842
 2654TIP3   OH229452   1.906   4.118   0.441  0.0362  0.4434 -0.0826
 2654TIP3    H129453   1.817   4.114   0.407  0.0333  1.1498 -0.1760
 2654TIP3    H229454   1.952   4.047   0.397 -0.1965  0.7841 -0.8972
 2655TIP3   OH229455   0.376   3.247  10.675 -0.6491  0.7225  0.0286
 2655TIP3    H129456   0.435   3.322  10.666  0.8168 -0.4959 -1.0269
 2655TIP3    H229457   0.371   3.210  10.587 -3.2287  0.8923  0.0257
 2656TIP3   OH229458   1.955   1.179   1.102  0.4597  0.1380  0.2349
 2656TIP3    H129459   2.045   1.206   1.084  0.8352 -0.9130  0.4924
 2656TIP3    H229460   1.929   1.235   1.175  0.5734  1.0851 -0.4284
 2657TIP3   OH229461   5.363   3.106  13.650  0.2681  0.5004  0.2669
 2657TIP3    H129462   5.285   3.116  13.594  0.4387 -0.3103 -0.1325
 2657TIP3    H229463   5.437   3.119  13.591  0.4542 -0.6111  0.2238
 2658TIP3   OH229464   4.303   5.415  11.833 -0.4678 -0.1506  0.2119
 2658TIP3    H129465   4.355   5.344  11.871  0.1939  0.3988  0.3539
 2658TIP3    H229466   4.264   5.459  11.908 -0.4109 -0.0171  0.1638
 2659TIP3   OH229467   2.087   5.718  12.871 -0.3122 -0.1102  0.0632
 2659TIP3    H129468   2.168   5.668  12.859 -0.3932  0.1412 -1.8416
 2659TIP3    H229469   2.113   5.809  12.858 -1.2055 -0.1706 -2.8086
 2660TIP3   OH229470   3.586   6.035   2.109  0.1418  0.7034 -0.0694
 2660TIP3    H129471   3.592   6.005   2.018  0.1081 -0.4604  0.3042
 2660TIP3    H229472   3.493   6.035   2.128  0.0785  1.8294 -0.3070
 2661TIP3   OH229473   4.758   5.124   5.642  0.1225  0.0503 -0.0315
 2661TIP3    H129474   4.720   5.146   5.557  0.1676 -0.2177 -0.1219
 2661TIP3    H229475   4.850   5.147   5.634  0.0041  0.6116  0.1564
 2662TIP3   OH229476   5.875   1.377  13.153  0.2341  0.4692  0.0871
 2662TIP3    H129477   5.888   1.415  13.240  0.0598  0.5751  0.0669
 2662TIP3    H229478   5.909   1.288  13.161  1.2030  0.8159 -0.0317
 2663TIP3   OH229479   3.106   4.011  17.136  0.6458 -0.4438 -0.1843
 2663TIP3    H129480   3.042   3.971  17.077 -2.1511  0.5984  1.9110
 2663TIP3    H229481   3.191   3.995  17.094 -1.0398 -0.3594 -4.0633
 2664TIP3   OH229482   1.188   1.180   2.547 -0.1183  0.4884 -0.6870
 2664TIP3    H129483   1.154   1.159   2.634 -1.3247  0.7832 -1.0726
 2664TIP3    H229484   1.138   1.256   2.519  0.0750  0.2470 -1.7468
 2665TIP3   OH229485   0.305   6.113   0.489  0.2108 -0.3814 -0.2646
 2665TIP3    H129486   0.311   6.048   0.559 -1.4041  1.7449  2.0249
 2665TIP3    H229487   0.379   6.172   0.504 -1.1240  1.0849  0.8437
 2666TIP3   OH229488   1.390   4.015  10.876 -0.2417  0.4347 -0.4094
 2666TIP3    H129489   1.434   3.984  10.797  0.9629  0.3831  0.2516
 2666TIP3    H229490   1.299   4.025  10.850 -0.2885 -1.6377 -1.2213
 2667TIP3   OH229491   3.684   5.542  17.067  0.3191 -0.2043 -0.6471
 2667TIP3    H129492   3.718   5.631  17.060  0.4272  0.0894  2.3860
 2667TIP3    H229493   3.644   5.538  17.154 -2.2740 -2.2995 -1.7789
 2668TIP3   OH229494   2.262   1.148   0.121  0.3912  0.1958 -0.7701
 2668TIP3    H129495   2.237   1.232   0.159 -1.2281 -0.5341 -0.1403
 2668TIP3    H229496   2.185   1.120   0.072  1.5484 -0.0978 -2.5231
 2669TIP3   OH229497   3.110   4.952   2.593 -0.7892  0.1211  0.2689
 2669TIP3    H129498   3.192   4.970   2.547 -0.5681 -0.1650  0.5461
 2669TIP3    H229499   3.063   4.893   2.536 -0.0580 -1.0805  0.8666
 2670TIP3   OH229500   0.112   4.704   4.227 -0.0703  0.1888 -0.8092
 2670TIP3    H129501   0.175   4.773   4.204 -0.9462  0.9354 -1.0443
 2670TIP3    H229502   0.155   4.656   4.298  0.7805  0.6556 -0.9844
 2671TIP3   OH229503   1.199   4.494  11.013 -0.2394 -0.0748  0.4001
 2671TIP3    H129504   1.171   4.491  10.922  0.2895 -0.5163  0.2455
 2671TIP3    H229505   1.157   4.419  11.054  1.4064 -1.3011 -0.0500
 2672TIP3   OH229506   0.827   6.654  11.414 -0.4489 -0.0795 -0.3071
 2672TIP3    H129507   0.878   6.589  11.462  0.7012  0.5349 -0.6536
 2672TIP3    H229508   0.791   6.712  11.481 -0.5029 -0.3807 -0.0738
 2673TIP3   OH229509   3.758   2.091   4.777  0.2679  0.1871 -0.2926
 2673TIP3    H129510   3.794   2.097   4.688  1.0124  1.3677  0.0601
 2673TIP3    H229511   3.664   2.081   4.764  0.5307 -1.6457 -1.2270
 2674TIP3   OH229512   5.888   5.488   6.589  0.3347  0.2661  0.2548
 2674TIP3    H129513   5.919   5.570   6.549  1.3103  0.3514  1.1399
 2674TIP3    H229514   5.876   5.510   6.681 -2.7661  0.3230 -0.0549
 2675TIP3   OH229515   3.175   6.770   1.847  0.1907  0.0011  0.4849
 2675TIP3    H129516   3.135   6.759   1.934 -1.0606  1.4813  0.1369
 2675TIP3    H229517   3.101   6.791   1.789  0.9455 -1.3430 -1.0452
 2676TIP3   OH229518   3.683   0.171  16.953  0.6685 -0.2028 -0.6183
 2676TIP3    H129519   3.739   0.101  16.987 -0.5939 -0.4825  1.0448
 2676TIP3    H229520   3.718   0.251  16.992  0.5355 -0.2508 -0.3975
 2677TIP3   OH229521   1.892   4.534   1.785  0.7941  0.0126 -0.0467
 2677TIP3    H129522   1.955   4.516   1.855  0.4454  0.4997  0.3983
 2677TIP3    H229523   1.883   4.451   1.739 -0.7028 -0.9685  1.8907
 2678TIP3   OH229524   0.353   3.463  15.896 -0.2885  0.4128 -0.0878
 2678TIP3    H129525   0.338   3.435  15.805 -1.4990 -0.9080  0.4819
 2678TIP3    H229526   0.413   3.537  15.888  1.6150 -1.1753 -1.8388
 2679TIP3   OH229527   2.015   3.812  14.673  0.3836 -0.1271 -0.1050
 2679TIP3    H129528   1.963   3.825  14.752  1.8940 -2.3404  1.3951
 2679TIP3    H229529   2.074   3.887  14.670  1.1426 -0.5962  1.6613
 2680TIP3   OH229530   2.202   0.204  16.268 -0.0840  0.0280  0.0962
 2680TIP3    H129531   2.147   0.214  16.190 -0.0641 -1.1350 -0.0893
 2680TIP3    H229532   2.207   0.291  16.306  0.4819  0.7803 -1.5950
 2681TIP3   OH229533   4.849   5.465   5.615  0.7093 -0.2521 -0.4684
 2681TIP3    H129534   4.769   5.513   5.639  1.0505 -0.8540  2.1334
 2681TIP3    H229535   4.910   5.533   5.586 -0.2993  0.3506 -1.2426
 2682TIP3   OH229536   2.195   0.768   4.717 -0.5595  0.5753  0.1813
 2682TIP3    H129537   2.208   0.709   4.791 -2.1727  0.8337  0.7132
 2682TIP3    H229538   2.198   0.855   4.755  1.0663  0.8472 -0.4862
 2683TIP3   OH229539   6.675   5.352   4.452 -0.0180  0.4298  0.3360
 2683TIP3    H129540   6.712   5.353   4.364 -1.7098  2.1275 -0.4021
 2683TIP3    H229541   6.668   5.259   4.474  2.4199 -0.0133 -0.3896
 2684TIP3   OH229542   5.894   5.692   1.396  0.8198 -0.2112 -0.2233
 2684TIP3    H129543   5.972   5.656   1.355  1.2418 -0.0399  0.4346
 2684TIP3    H229544   5.864   5.624   1.456 -0.5598 -1.0130 -1.7484
 2685TIP3   OH229545   3.670   4.006  16.418 -0.1367 -0.0374 -0.4013
 2685TIP3    H129546   3.582   4.036  16.396 -0.2371 -0.0751 -0.0545
 2685TIP3    H229547   3.698   3.957  16.341  0.3078  1.5203 -1.2680
 2686TIP3   OH229548   3.789   4.741  14.274  0.0756 -0.1411  0.4271
 2686TIP3    H129549   3.735   4.820  14.269 -1.0745 -0.9383 -0.0729
 2686TIP3    H229550   3.879   4.773  14.269 -0.3922  0.9741 -2.6657
 2687TIP3   OH229551   2.702   3.366  14.435 -0.5473  0.1476  0.6475
 2687TIP3    H129552   2.619   3.398  14.401 -0.1894  1.1000  0.6352
 2687TIP3    H229553   2.724   3.291  14.381 -0.5672  0.9240 -0.4649
 2688TIP3   OH229554   2.635   0.403   3.178 -0.1944 -0.3224 -0.2047
 2688TIP3    H129555   2.616   0.464   3.249  0.4513 -0.7376  0.3384
 2688TIP3    H229556   2.643   0.318   3.220  2.6948 -0.2227 -0.3266
 2689TIP3   OH229557   4.690   0.440   0.630 -0.1436 -0.0781 -0.2858
 2689TIP3    H129558   4.749   0.386   0.682 -1.7946 -1.6971  0.0180
 2689TIP3    H229559   4.724   0.529   0.640  2.8017 -1.0064 -0.9506
 2690TIP3   OH229560   0.626   4.065   3.017 -0.4657 -0.1626 -0.3806
 2690TIP3    H129561   0.533   4.087   3.026 -0.9284 -2.0309 -0.0666
 2690TIP3    H229562   0.631   4.011   2.938  0.5956  0.9740 -1.1308
 2691TIP3   OH229563   0.276   4.116   1.508  0.3872  0.1787  1.2246
 2691TIP3    H129564   0.325   4.039   1.536 -0.0741 -0.1813  1.0605
 2691TIP3    H229565   0.186   4.096   1.532 -0.2825 -0.7592 -1.6749
 2692TIP3   OH229566   6.091   2.021   0.304  0.1916 -0.1157 -0.0332
 2692TIP3    H129567   6.118   1.992   0.217  1.9794 -0.0514  0.4581
 2692TIP3    H229568   6.159   1.988   0.363 -1.2245 -0.5590  1.4217
 2693TIP3   OH229569   4.849   2.246  15.086  0.4423  0.0118 -0.2274
 2693TIP3    H129570   4.866   2.296  15.166  1.9548 -1.1663  0.2239
 2693TIP3    H229571   4.756   2.225  15.091  0.1640  1.2648  0.4274
 2694TIP3   OH229572   2.120   2.481  12.647 -0.1029 -0.2364  0.0223
 2694TIP3    H129573   2.123   2.387  12.633 -0.6662 -0.3721  0.7509
 2694TIP3    H229574   2.079   2.516  12.568 -1.7539 -0.8249  0.5686
 2695TIP3   OH229575   2.771   3.885  17.422 -0.4418 -0.4432  0.9205
 2695TIP3    H129576   2.722   3.836  17.489 -0.5701 -0.5738  0.7324
 2695TIP3    H229577   2.854   3.837  17.414 -1.5028 -2.0719 -0.9856
 2696TIP3   OH229578   0.682   3.110   5.895  0.6912  0.2243  0.2675
 2696TIP3    H129579   0.609   3.126   5.835  1.5895 -0.6494 -1.1306
 2696TIP3    H229580   0.641   3.098   5.981 -0.5269  3.2043  0.2380
 2697TIP3   OH229581   5.011   3.220  12.082 -0.2039  0.6915  0.2338
 2697TIP3    H129582   4.939   3.268  12.041 -1.7199 -0.4018  1.4898
 2697TIP3    H229583   4.968   3.150  12.132  1.7612 -0.2169  0.7580
 2698TIP3   OH229584   1.340   5.954  16.885  0.5612 -0.2117 -0.5947
 2698TIP3    H129585   1.346   5.860  16.901  1.0860 -0.1806 -0.5924
 2698TIP3    H229586   1.248   5.975  16.899  0.6726 -0.5007  0.6945
 2699TIP3   OH229587   4.451   5.298  12.106  0.2393  0.5218  0.0443
 2699TIP3    H129588   4.474   5.291  12.199 -2.7896 -0.9885  0.8296
 2699TIP3    H229589   4.394   5.374  12.101 -1.1347 -0.4782 -0.1334
 2700TIP3   OH229590   6.110   2.379  15.955  0.2388 -0.3307  0.5500
 2700TIP3    H129591   6.068   2.435  15.890 -0.3405 -1.7412 -0.3396
 2700TIP3    H229592   6.104   2.428  16.037 -1.2983  0.3883  0.0406
 2701TIP3   OH229593   1.730   5.131   3.627  0.3524  0.7928 -0.3682
 2701TIP3    H129594   1.716   5.118   3.534 -0.6506 -0.1384 -0.1040
 2701TIP3    H229595   1.673   5.204   3.651 -0.8184 -0.1410 -0.1623
 2702TIP3   OH229596   1.744   1.471  14.857  0.6363 -0.5626  0.3211
 2702TIP3    H129597   1.761   1.516  14.774 -1.6392  0.5443  0.3623
 2702TIP3    H229598   1.703   1.538  14.912  1.1691 -1.5496  2.0026
 2703TIP3   OH229599   0.434   5.141  15.185 -0.4283  0.2785 -0.8792
 2703TIP3    H129600   0.524   5.130  15.155  0.1360 -2.0985  1.3049
 2703TIP3    H229601   0.417   5.235  15.179  1.7431  0.6357 -2.4631
 2704TIP3   OH229602   0.725   0.942  11.796  0.2037  0.2909 -0.0829
 2704TIP3    H129603   0.674   0.923  11.717 -0.1580 -4.5399  0.9777
 2704TIP3    H229604   0.662   0.983  11.856 -0.5596  0.5413 -1.0351
 2705TIP3   OH229605   6.639   1.996   0.451  0.6389 -0.0323 -0.8119
 2705TIP3    H129606   6.618   1.904   0.461  0.7501  0.1433  2.0282
 2705TIP3    H229607   6.565   2.033   0.402 -0.4453 -1.2799 -0.1818
 2706TIP3   OH229608   2.290   6.207  12.074 -0.1480  0.1121  0.3728
 2706TIP3    H129609   2.296   6.297  12.106 -2.3173 -0.1517  1.7564
 2706TIP3    H229610   2.325   6.154  12.145  0.9843 -0.1815 -0.3796
 2707TIP3   OH229611   1.498   4.732  12.143  0.3946  0.0363  0.2640
 2707TIP3    H129612   1.421   4.679  12.166 -0.3102  0.2658 -1.3707
 2707TIP3    H229613   1.556   4.670  12.098 -0.7058  0.6740 -2.2213
 2708TIP3   OH229614   3.505   6.049  14.178  0.0801 -0.1511 -0.1855
 2708TIP3    H129615   3.483   5.975  14.121  0.0928  0.5089 -1.0673
 2708TIP3    H229616   3.590   6.080  14.146 -0.6898  1.2857 -0.9299
 2709TIP3   OH229617   3.270   1.118   5.154 -0.8853 -0.3522 -0.5332
 2709TIP3    H129618   3.326   1.195   5.154 -0.8470 -0.3205  1.6081
 2709TIP3    H229619   3.283   1.079   5.240 -2.9219 -1.2576 -0.5793
 2710TIP3   OH229620   4.282   5.984  16.515  0.4711  0.6209  0.2215
 2710TIP3    H129621   4.376   5.996  16.528  0.2809  1.5050  0.8425
 2710TIP3    H229622   4.241   6.035  16.585 -0.4627 -0.3717  0.4237
 2711TIP3   OH229623   2.361   6.541  17.479  0.0031 -0.4928  0.1238
 2711TIP3    H129624   2.307   6.479  17.528 -0.5773 -0.8729 -0.9594
 2711TIP3    H229625   2.404   6.488  17.412  3.1698 -0.5375  1.9930
 2712TIP3   OH229626   4.358   6.591  16.643  0.1941 -0.0927  0.3495
 2712TIP3    H129627   4.422   6.588  16.714  1.3711  1.2405 -0.5984
 2712TIP3    H229628   4.333   6.683  16.637 -1.2470 -0.4741  0.1841
 2713TIP3   OH229629   0.203   0.614  16.474  0.0452  0.1698 -0.0835
 2713TIP3    H129630   0.227   0.688  16.529  0.4618  0.5757 -0.7948
 2713TIP3    H229631   0.160   0.553  16.534 -1.1129  1.3543  0.3433
 2714TIP3   OH229632   4.118   6.225  12.555 -0.0239 -0.1044  0.2765
 2714TIP3    H129633   4.123   6.294  12.621  3.4529  0.6570 -0.5594
 2714TIP3    H229634   4.210   6.205  12.535 -0.9130 -3.3261 -1.2474
 2715TIP3   OH229635   4.049   6.066  13.361 -0.4501  0.0369 -0.1274
 2715TIP3    H129636   4.142   6.046  13.368 -0.4879  0.3309  1.5895
 2715TIP3    H229637   4.005   5.982  13.377 -0.4954  0.0865  0.0100
 2716TIP3   OH229638   4.562   0.851  17.013 -0.2397 -0.6719 -0.4874
 2716TIP3    H129639   4.559   0.840  16.918  0.3147 -2.4723 -0.3478
 2716TIP3    H229640   4.648   0.815  17.037 -0.4777 -0.4467  0.7189
 2717TIP3   OH229641   3.010   5.488  15.189 -0.0689  0.2115 -0.0577
 2717TIP3    H129642   3.065   5.417  15.224  0.5912  0.4731 -0.5219
 2717TIP3    H229643   2.983   5.456  15.103 -0.7298  0.0462  0.2084
 2718TIP3   OH229644   6.753   6.363   3.248 -0.3735  0.3827  0.4372
 2718TIP3    H129645   6.745   6.370   3.344 -0.5644 -0.2592  0.4687
 2718TIP3    H229646   6.795   6.279   3.233 -1.1363  0.0888 -0.0821
 2719TIP3   OH229647   5.804   3.919  15.439  0.1452  0.6716  0.2197
 2719TIP3    H129648   5.769   3.990  15.386  0.2342  1.8196  1.6318
 2719TIP3    H229649   5.770   3.839  15.398  1.6569  1.3484 -2.5916
 2720TIP3   OH229650   1.971   5.968  13.563 -0.1204 -0.3864  0.2606
 2720TIP3    H129651   2.019   5.957  13.646  1.3030  1.0374 -0.3246
 2720TIP3    H229652   2.034   6.010  13.505 -1.3958 -0.5429 -1.2841
 2721TIP3   OH229653   6.371   4.031   2.511 -0.6385  0.7956 -0.0105
 2721TIP3    H129654   6.452   4.082   2.519 -0.8190  0.9188  1.3316
 2721TIP3    H229655   6.371   3.999   2.421  0.5234  1.4282 -0.2534
 2722TIP3   OH229656   3.313   0.158  15.660  0.2697  0.0869 -0.2769
 2722TIP3    H129657   3.382   0.101  15.626  0.1527 -0.6609  0.6985
 2722TIP3    H229658   3.332   0.166  15.753 -0.3441  0.7631 -0.2018
 2723TIP3   OH229659   3.393   1.971  12.815 -0.2349  0.2327  0.4004
 2723TIP3    H129660   3.443   2.053  12.818  0.1781  0.0512 -1.0051
 2723TIP3    H229661   3.322   1.984  12.878 -0.1073  1.6263  0.2771
 2724TIP3   OH229662   3.683   3.152  13.310 -0.5099  0.0052 -0.1662
 2724TIP3    H129663   3.724   3.100  13.379 -0.7898 -0.1881 -0.1427
 2724TIP3    H229664   3.670   3.239  13.350 -1.5007 -0.3567  0.3445
 2725TIP3   OH229665   0.983   3.220  12.224 -0.5265 -0.4077  0.0381
 2725TIP3    H129666   0.899   3.263  12.207  0.5407  1.7338 -0.2467
 2725TIP3    H229667   1.048   3.289  12.208  1.1972 -1.5444  1.7085
 2726TIP3   OH229668   5.607   1.941   3.521 -0.0740  0.1037 -0.2195
 2726TIP3    H129669   5.612   1.873   3.454 -0.6100  0.4432 -0.6081
 2726TIP3    H229670   5.649   1.902   3.598  0.1741 -0.4381 -0.6240
 2727TIP3   OH229671   2.620   3.909   4.804 -0.4987  0.7214  0.0441
 2727TIP3    H129672   2.600   3.816   4.811  0.5121  0.5616  1.1187
 2727TIP3    H229673   2.676   3.916   4.727  0.1173  0.3098  0.4477
 2728TIP3   OH229674   2.757   3.212  12.395  0.4710 -0.0763  0.0962
 2728TIP3    H129675   2.817   3.257  12.454 -0.6261  1.5844  0.0147
 2728TIP3    H229676   2.722   3.281  12.340 -0.8177 -1.1406 -0.4641
 2729TIP3   OH229677   1.339   0.462  16.813 -0.5945  0.2127 -0.0066
 2729TIP3    H129678   1.292   0.500  16.887 -1.9153 -0.7998 -0.2927
 2729TIP3    H229679   1.371   0.537  16.763 -2.3364  0.9437 -0.0665
 2730TIP3   OH229680   2.524   5.578  15.977 -0.0879  0.7644 -0.0002
 2730TIP3    H129681   2.431   5.570  15.956 -0.0793 -0.5097  0.3613
 2730TIP3    H229682   2.568   5.518  15.916  0.2729 -0.2631  1.2038
 2731TIP3   OH229683   0.405   4.164   4.768 -0.4777 -0.0292 -0.3365
 2731TIP3    H129684   0.351   4.185   4.844 -0.5562  2.6387 -1.0222
 2731TIP3    H229685   0.396   4.070   4.757 -2.3902 -0.1297  1.4972
 2732TIP3   OH229686   0.834   5.117   1.836 -0.0384 -0.0009 -0.6698
 2732TIP3    H129687   0.918   5.078   1.860 -0.4670 -0.8339 -0.4778
 2732TIP3    H229688   0.802   5.062   1.764 -0.6559 -0.0117 -0.3912
 2733TIP3   OH229689   4.631   3.340   2.676  0.3892 -0.2188 -0.5656
 2733TIP3    H129690   4.725   3.346   2.697  0.1663 -1.0517  0.8524
 2733TIP3    H229691   4.588   3.359   2.759 -0.6979 -0.1747 -1.1329
 2734TIP3   OH229692   1.625   0.283  16.848 -0.2399  0.2076  0.1077
 2734TIP3    H129693   1.551   0.343  16.845 -1.1296 -0.9166 -1.2091
 2734TIP3    H229694   1.604   0.223  16.920 -1.5584 -1.2460 -1.4250
 2735TIP3   OH229695   2.188   0.090   3.815  0.8215  0.5478  0.0216
 2735TIP3    H129696   2.100   0.101   3.853  0.1929 -3.0766 -0.0029
 2735TIP3    H229697   2.171   0.065   3.724  1.7733 -1.0974  0.2589
 2736TIP3   OH229698   4.345   4.937   0.659  0.3929  0.6424 -0.6009
 2736TIP3    H129699   4.438   4.917   0.665  0.2929  0.0533 -0.9596
 2736TIP3    H229700   4.314   4.936   0.750  0.1121 -2.2863 -0.6298
 2737TIP3   OH229701   2.885   0.027   0.775 -0.0506 -0.1563 -0.1008
 2737TIP3    H129702   2.850   0.098   0.721 -1.3117 -0.5821  0.1413
 2737TIP3    H229703   2.808  -0.015   0.814  0.5790 -2.4353 -1.1688
 2738TIP3   OH229704   3.172   5.705   2.885  0.2965  0.5336 -0.2640
 2738TIP3    H129705   3.184   5.637   2.951  0.6950  0.4494 -0.4227
 2738TIP3    H229706   3.205   5.785   2.926  0.3348  0.5256 -0.2796
 2739TIP3   OH229707   2.462   3.210  14.499 -0.3316  0.4578  0.2964
 2739TIP3    H129708   2.537   3.230  14.555  0.7179 -2.1581 -0.0419
 2739TIP3    H229709   2.387   3.206  14.558  0.1014  1.3556  0.9201
 2740TIP3   OH229710   4.502   5.501   3.059  0.0251  0.0389 -0.0602
 2740TIP3    H129711   4.501   5.591   3.089  0.5307  0.0385 -0.0361
 2740TIP3    H229712   4.411   5.472   3.065 -0.0641  0.4064  0.3461
 2741TIP3   OH229713   3.823   5.202  12.241 -0.3374  0.1899 -0.6612
 2741TIP3    H129714   3.818   5.118  12.196  3.9286 -0.5315 -0.2350
 2741TIP3    H229715   3.819   5.180  12.334  1.5373  0.2892 -0.5282
 2742TIP3   OH229716   4.688   2.257   2.373 -0.1561 -0.0233 -0.4531
 2742TIP3    H129717   4.623   2.287   2.437 -1.0242 -1.8720 -0.4154
 2742TIP3    H229718   4.730   2.182   2.415  0.7123  0.0010 -1.2499
 2743TIP3   OH229719   3.541   6.041   0.415  0.0604 -0.0939 -0.0221
 2743TIP3    H129720   3.530   6.070   0.505 -0.1015  1.3042 -0.4681
 2743TIP3    H229721   3.621   6.083   0.385  0.1368 -0.5795 -0.5211
 2744TIP3   OH229722   6.571   1.275  16.609  0.7055  0.7868 -0.3359
 2744TIP3    H129723   6.601   1.307  16.694  0.1168  0.6685 -0.0812
 2744TIP3    H229724   6.518   1.198  16.629 -0.0561  1.1928 -0.7454
 2745TIP3   OH229725   0.757   4.314   3.589 -0.5985  0.2034  0.2869
 2745TIP3    H129726   0.837   4.347   3.550 -0.3235  0.0236  0.6965
 2745TIP3    H229727   0.762   4.340   3.681  0.0081 -1.6376  0.8300
 2746TIP3   OH229728   3.326   6.110  14.923  0.9614  0.5729  0.3874
 2746TIP3    H129729   3.371   6.147  14.846 -2.5907  1.2984 -1.5799
 2746TIP3    H229730   3.294   6.025  14.894  0.8545  0.1594  1.6486
 2747TIP3   OH229731   2.340   2.596  15.452  0.2384 -0.1829 -0.4073
 2747TIP3    H129732   2.400   2.543  15.504  1.6980  1.4713 -0.3005
 2747TIP3    H229733   2.388   2.677  15.435 -2.5140  1.9432  1.0683
 2748TIP3   OH229734   4.939   2.452   5.627 -0.1454 -0.0448  0.1383
 2748TIP3    H129735   4.995   2.527   5.649 -0.6119  0.3502  0.0216
 2748TIP3    H229736   4.854   2.492   5.606  0.1091 -0.4249 -1.8164
 2749TIP3   OH229737   2.995   1.061  15.027 -0.0281 -0.1484 -0.4591
 2749TIP3    H129738   2.925   1.120  15.000 -0.6071 -0.6495 -0.0663
 2749TIP3    H229739   3.024   1.020  14.946 -0.2781 -0.0443 -0.6021
 2750TIP3   OH229740   3.397   1.246   3.834 -0.0250 -0.2915 -0.5759
 2750TIP3    H129741   3.322   1.190   3.818 -0.1203  0.1759 -1.8951
 2750TIP3    H229742   3.361   1.320   3.884  0.0326 -1.1684  0.8325
 2751TIP3   OH229743   2.116   3.434  11.378  0.1891  0.1530 -0.2714
 2751TIP3    H129744   2.161   3.371  11.322 -0.3072  0.4273 -0.9904
 2751TIP3    H229745   2.183   3.499  11.398  0.1723  0.4832 -1.2227
 2752TIP3   OH229746   0.279   4.293  14.289 -0.3517  0.1376 -0.6264
 2752TIP3    H129747   0.315   4.324  14.372 -1.5014  2.7399 -1.0244
 2752TIP3    H229748   0.329   4.340  14.222 -3.8680  3.4553 -1.2044
 2753TIP3   OH229749   2.343   4.110   6.103  0.2619 -0.7167 -0.6761
 2753TIP3    H129750   2.306   4.049   6.040  0.3059  0.0574 -1.4778
 2753TIP3    H229751   2.414   4.154   6.055 -0.2792  0.5186 -0.3966
 2754TIP3   OH229752   1.734   0.980  13.196 -0.4518  0.2153 -0.5370
 2754TIP3    H129753   1.788   0.935  13.260 -1.1389 -0.4236 -0.3899
 2754TIP3    H229754   1.681   1.041  13.249  1.1359  1.9532 -0.8168
 2755TIP3   OH229755   4.881   1.016  14.394 -0.1945 -0.5476 -0.8007
 2755TIP3    H129756   4.820   1.018  14.468 -0.5875 -1.6041 -1.0812
 2755TIP3    H229757   4.826   0.998  14.318  0.4474 -1.4761 -1.0686
 2756TIP3   OH229758   6.191   6.184  14.610 -0.0901 -0.2961 -0.3622
 2756TIP3    H129759   6.182   6.237  14.689  1.2048  1.2356 -1.1850
 2756TIP3    H229760   6.202   6.248  14.540  0.0213 -1.6446 -1.6219
 2757TIP3   OH229761   1.242   1.206  14.758 -0.5217  0.1030  1.0051
 2757TIP3    H129762   1.306   1.138  14.781 -0.9552 -0.6321  0.1377
 2757TIP3    H229763   1.215   1.183  14.669 -2.1602  0.2484  1.4332
 2758TIP3   OH229764   1.531   0.509  14.113 -0.1607  0.0179  0.0767
 2758TIP3    H129765   1.607   0.457  14.088  0.0647 -0.3610  1.4476
 2758TIP3    H229766   1.496   0.541  14.030 -0.6654 -2.7786 -0.9192
 2759TIP3   OH229767   1.359   3.052  10.786  0.6581  0.2821 -0.0599
 2759TIP3    H129768   1.355   2.973  10.732  1.7201 -0.1318  0.4363
 2759TIP3    H229769   1.315   3.028  10.867  0.2360  0.4748 -0.2311
 2760TIP3   OH229770   3.711   5.882  13.283 -0.6137 -0.8213  0.2491
 2760TIP3    H129771   3.625   5.856  13.315 -0.8968  0.5153  0.6486
 2760TIP3    H229772   3.708   5.866  13.189 -0.3533 -3.2539  0.6033
 2761TIP3   OH229773   6.437   5.028   1.502  0.0247 -0.5017 -0.4628
 2761TIP3    H129774   6.347   5.010   1.473 -0.2463  2.4981 -1.9078
 2761TIP3    H229775   6.492   4.989   1.434 -0.3501  0.2528 -1.2238
 2762TIP3   OH229776   1.061   5.404  14.101  0.1078  0.0815 -0.6765
 2762TIP3    H129777   1.014   5.331  14.060 -0.0884 -0.7703  0.9741
 2762TIP3    H229778   1.101   5.451  14.028 -1.0343 -0.7756 -1.9056
 2763TIP3   OH229779   0.413   3.230   5.439  0.2838 -0.2496 -0.0270
 2763TIP3    H129780   0.357   3.194   5.370 -1.3461  1.1575  0.4905
 2763TIP3    H229781   0.445   3.313   5.402 -1.4814  1.0737  1.2009
 2764TIP3   OH229782   0.892   4.443  16.962 -0.3034  0.4713  0.0761
 2764TIP3    H129783   0.817   4.467  17.016 -0.5478 -1.8033  0.8362
 2764TIP3    H229784   0.883   4.349  16.947  2.5583  0.0379  0.4664
 2765TIP3   OH229785   2.935   3.654   4.653  0.3603  0.0912 -0.0285
 2765TIP3    H129786   2.863   3.594   4.635  0.7941 -0.7658  0.9722
 2765TIP3    H229787   3.011   3.597   4.665  0.8517  0.8598  0.6297
 2766TIP3   OH229788   3.469   1.031  13.528 -0.5419  0.5941  0.6434
 2766TIP3    H129789   3.472   1.012  13.621 -2.2538 -1.5356  0.3605
 2766TIP3    H229790   3.413   1.109  13.521  1.1390  1.9354  1.4501
 2767TIP3   OH229791   3.575   6.152   4.870  0.8761 -0.8785 -0.0105
 2767TIP3    H129792   3.521   6.091   4.819  1.0661 -0.2561 -0.9772
 2767TIP3    H229793   3.665   6.127   4.848  0.9606 -0.6233  0.0508
 2768TIP3   OH229794   2.952   2.437  13.353  0.9572 -0.2105  0.2973
 2768TIP3    H129795   3.042   2.468  13.361  1.4013 -1.3177 -0.1516
 2768TIP3    H229796   2.959   2.342  13.358 -0.3769 -0.2714  1.8858
 2769TIP3   OH229797   5.323   5.749   0.318 -0.2004 -0.3276 -0.0605
 2769TIP3    H129798   5.356   5.759   0.408 -1.6953  0.3846  0.4491
 2769TIP3    H229799   5.371   5.813   0.267 -2.1440  2.2060  1.0787
 2770TIP3   OH229800   3.191   5.714   3.313  0.1133 -0.3651  0.4939
 2770TIP3    H129801   3.284   5.691   3.319  0.4241  0.6647 -0.0671
 2770TIP3    H229802   3.146   5.630   3.304  1.1929 -0.8064 -1.4303
 2771TIP3   OH229803   6.036   6.682   4.002  0.9835 -0.8340  0.1226
 2771TIP3    H129804   6.076   6.748   3.946  1.4090  0.0812  1.4656
 2771TIP3    H229805   5.965   6.646   3.948  0.5933  0.8649 -0.5821
 2772TIP3   OH229806   6.337   4.547  14.232 -0.1611 -0.1361  0.1032
 2772TIP3    H129807   6.379   4.473  14.276  0.2750 -0.3728 -0.6960
 2772TIP3    H229808   6.333   4.521  14.140  2.8238  2.0742 -0.7642
 2773TIP3   OH229809   1.977   5.989  11.521 -0.2586  0.2790 -0.6362
 2773TIP3    H129810   1.959   6.080  11.544 -3.1637 -0.1823 -0.7655
 2773TIP3    H229811   1.936   5.976  11.435 -0.2513 -1.2554 -0.4498
 2774TIP3   OH229812   2.333   5.148   0.787  0.4796  0.2580  0.2964
 2774TIP3    H129813   2.264   5.183   0.732  0.5662 -0.4928 -0.3134
 2774TIP3    H229814   2.299   5.064   0.819  0.5928  0.4924  1.0582
 2775TIP3   OH229815   3.623   1.056   1.474  0.1422  0.0477  0.2631
 2775TIP3    H129816   3.689   1.123   1.456  0.9215 -0.3533  1.4975
 2775TIP3    H229817   3.563   1.097   1.535  1.8617 -0.9641  2.8530
 2776TIP3   OH229818   2.431   2.157   3.886  0.7083 -0.2049  0.2495
 2776TIP3    H129819   2.468   2.242   3.908 -0.4173  0.0899  1.0827
 2776TIP3    H229820   2.495   2.094   3.918  0.8981  0.3012  0.8746
 2777TIP3   OH229821   2.583   1.077  17.073  0.3100 -0.2604  0.0462
 2777TIP3    H129822   2.667   1.043  17.103  1.0691  0.8233 -0.7921
 2777TIP3    H229823   2.601   1.167  17.046 -1.1627  0.0566  0.0282
 2778TIP3   OH229824   1.220   4.297   1.905  0.8131 -0.0443 -0.0509
 2778TIP3    H129825   1.228   4.365   1.973 -0.2537 -0.8165  0.8753
 2778TIP3    H229826   1.126   4.289   1.890  0.8128 -2.2257  0.8314
 2779TIP3   OH229827   3.077   5.492   6.124  0.0931 -0.0095 -0.4887
 2779TIP3    H129828   3.000   5.437   6.139 -0.2169  0.5090 -0.1050
 2779TIP3    H229829   3.137   5.470   6.196  0.2696 -0.3532 -0.7399
 2780TIP3   OH229830   2.030   0.791  10.541  0.1431  1.0818  0.2281
 2780TIP3    H129831   1.945   0.808  10.581 -0.2805 -1.4627  0.5495
 2780TIP3    H229832   2.065   0.717  10.590  2.2722  1.6353 -0.3409
 2781TIP3   OH229833   5.507   1.085   2.123 -0.5753 -0.4971 -0.1036
 2781TIP3    H129834   5.575   1.121   2.180 -1.4437  0.6284  0.2491
 2781TIP3    H229835   5.467   1.015   2.175 -1.9132  1.0505  1.0687
 2782TIP3   OH229836   1.155   3.390   6.265 -0.2820 -0.1783 -0.2003
 2782TIP3    H129837   1.216   3.382   6.338 -0.6763  0.2001  0.1776
 2782TIP3    H229838   1.079   3.435   6.302 -0.7137 -0.4723 -0.7084
 2783TIP3   OH229839   3.111   3.118  14.549 -0.1366  0.2448  0.3145
 2783TIP3    H129840   3.099   3.051  14.616  0.7324 -0.8480 -0.5730
 2783TIP3    H229841   3.163   3.186  14.592  2.4574 -1.4954  0.1961
 2784TIP3   OH229842   4.846   5.829   1.929 -0.4945 -0.4771  0.5239
 2784TIP3    H129843   4.940   5.817   1.916 -0.8429 -2.3904 -0.7178
 2784TIP3    H229844   4.838   5.915   1.969  1.6802  0.3629 -0.6661
 2785TIP3   OH229845   5.923   1.272   4.941  0.3375 -0.0788 -0.3426
 2785TIP3    H129846   6.005   1.321   4.953  0.3768 -0.4402  1.0155
 2785TIP3    H229847   5.857   1.325   4.985 -0.3232  0.5756 -2.0624
 2786TIP3   OH229848   6.303   3.780   5.129 -0.1728  0.0045  0.3131
 2786TIP3    H129849   6.386   3.777   5.177 -0.2774 -1.0232  0.4494
 2786TIP3    H229850   6.298   3.696   5.084 -1.4595 -0.2291  0.8464
 2787TIP3   OH229851   2.565   0.119  12.927 -0.3159 -0.3402  0.4136
 2787TIP3    H129852   2.625   0.192  12.910  0.3289 -0.8052  0.6686
 2787TIP3    H229853   2.582   0.057  12.855 -1.0704 -0.1210  0.0305
 2788TIP3   OH229854   2.307   2.593   2.180  0.5927  0.0998  0.0472
 2788TIP3    H129855   2.315   2.688   2.177 -0.7767  0.2473  0.2758
 2788TIP3    H229856   2.213   2.577   2.190  0.4815 -1.3402 -2.4657
 2789TIP3   OH229857   3.746   1.504  15.787 -0.5050 -0.3714  0.6165
 2789TIP3    H129858   3.797   1.541  15.715 -1.2406  0.4778  0.5230
 2789TIP3    H229859   3.805   1.508  15.862 -0.1587 -0.1448  0.3379
 2790TIP3   OH229860   0.157   6.184   2.763 -0.8597  0.6062 -0.5502
 2790TIP3    H129861   0.166   6.273   2.728 -1.5614  1.1355  0.5580
 2790TIP3    H229862   0.215   6.131   2.708  0.4867  1.9378 -0.4856
 2791TIP3   OH229863   2.789   6.487  14.655 -0.1546  0.1330 -0.0168
 2791TIP3    H129864   2.794   6.507  14.749  0.7122 -1.6690  0.3627
 2791TIP3    H229865   2.698   6.463  14.640  0.1725 -1.9587  0.9520
 2792TIP3   OH229866   2.845   4.362   1.115  0.3829  0.3490 -0.0885
 2792TIP3    H129867   2.935   4.368   1.085  0.7009  0.4934  0.8632
 2792TIP3    H229868   2.814   4.453   1.115  0.6398  0.4454  0.7524
 2793TIP3   OH229869   0.923   0.098  17.338 -0.2965 -0.3047  0.1050
 2793TIP3    H129870   0.877   0.082  17.420 -0.9244  0.1051 -0.1583
 2793TIP3    H229871   0.989   0.163  17.360  0.3963 -1.1358  0.5584
 2794TIP3   OH229872   2.004   1.154   3.407  0.0693  0.1111  0.0824
 2794TIP3    H129873   1.939   1.197   3.350 -0.5212  0.3095  0.8838
 2794TIP3    H229874   1.983   1.186   3.495  2.0014  1.1179  0.2288
 2795TIP3   OH229875   5.445   6.647   0.898  0.5111  0.8861  0.2890
 2795TIP3    H129876   5.484   6.696   0.970 -0.3091  1.9318  0.0378
 2795TIP3    H229877   5.359   6.620   0.930 -0.0861  1.8266 -0.4609
 2796TIP3   OH229878   1.175   6.591  16.875 -0.8821 -0.2398  0.2396
 2796TIP3    H129879   1.205   6.596  16.784  2.1933  0.5149  1.1961
 2796TIP3    H229880   1.109   6.660  16.882 -1.7907 -0.8677 -1.5928
 2797TIP3   OH229881   0.688   0.339   4.110 -0.2212  0.3897 -0.2523
 2797TIP3    H129882   0.764   0.389   4.078  1.2732  0.0853  2.5121
 2797TIP3    H229883   0.702   0.250   4.076  0.1002  0.5831 -0.6330
 2798TIP3   OH229884   2.609   0.368  10.748 -0.4534  0.3199  0.2032
 2798TIP3    H129885   2.703   0.385  10.741 -0.1850 -0.8537  0.7098
 2798TIP3    H229886   2.573   0.448  10.785  0.4816  0.4371  0.9024
 2799TIP3   OH229887   4.404   1.135  17.484 -0.1789  0.0325 -0.4211
 2799TIP3    H129888   4.389   1.167  17.573  1.3807 -0.3539  0.0204
 2799TIP3    H229889   4.387   1.210  17.428 -1.7197  0.1355  0.1248
 2800TIP3   OH229890   3.949   3.925   1.479  0.0966  0.4050  0.3488
 2800TIP3    H129891   3.930   3.838   1.443  0.3377  0.1835  0.7423
 2800TIP3    H229892   3.877   3.942   1.540  0.7603 -0.1266  1.3073
 2801TIP3   OH229893   2.494   4.453   3.867 -0.6479 -0.2768  0.0559
 2801TIP3    H129894   2.562   4.433   3.931  1.8989 -1.7535 -2.8144
 2801TIP3    H229895   2.443   4.372   3.860  0.5248 -0.9380 -1.3022
 2802TIP3   OH229896   2.300   1.143  13.121 -0.0544  0.0794 -0.3265
 2802TIP3    H129897   2.238   1.210  13.094 -0.2348 -0.2584 -0.7558
 2802TIP3    H229898   2.246   1.073  13.158  0.0355 -0.3510 -0.9854
 2803TIP3   OH229899   5.228   4.357  15.488  0.4617  0.5200 -0.0280
 2803TIP3    H129900   5.154   4.358  15.427  0.4821 -1.5521 -0.1436
 2803TIP3    H229901   5.188   4.366  15.574  0.4010  3.0030 -0.2354
 2804TIP3   OH229902   2.544   5.246   0.489 -0.0146 -0.0505  0.1449
 2804TIP3    H129903   2.586   5.185   0.429 -0.5523 -1.0259  0.7340
 2804TIP3    H229904   2.616   5.289   0.534  0.3699 -0.7909  0.2563
 2805TIP3   OH229905   0.228   5.818  17.093  0.7952  0.2289 -0.0407
 2805TIP3    H129906   0.316   5.833  17.129 -0.0056 -1.0317  2.7652
 2805TIP3    H229907   0.174   5.885  17.135  0.2443  0.4098 -1.0260
 2806TIP3   OH229908   4.329   4.874   4.989 -0.1319  0.5530  0.9141
 2806TIP3    H129909   4.272   4.949   4.971 -0.3774  0.0601 -0.4376
 2806TIP3    H229910   4.270   4.806   5.021  0.0332  0.7781  1.7245
 2807TIP3   OH229911   3.529   5.548   0.745 -0.2351  0.5865 -0.3344
 2807TIP3    H129912   3.480   5.481   0.698 -0.5281  1.3830 -1.2131
 2807TIP3    H229913   3.487   5.554   0.831  1.3064 -2.0230  0.7060
 2808TIP3   OH229914   0.423   5.650  14.613  0.1558  0.0007  0.5305
 2808TIP3    H129915   0.340   5.624  14.653 -0.0235  1.0892  0.8962
 2808TIP3    H229916   0.403   5.655  14.519 -0.4827  1.1944  0.7008
 2809TIP3   OH229917   2.902   6.344   3.022 -0.3113 -0.3198  0.4238
 2809TIP3    H129918   2.936   6.429   3.051  1.7017 -0.4214 -1.3657
 2809TIP3    H229919   2.810   6.361   3.002 -0.2870  1.0869  1.3529
 2810TIP3   OH229920   5.794   5.120   3.618  0.2254  0.1109 -0.2534
 2810TIP3    H129921   5.842   5.066   3.681 -1.4044 -0.2853  0.7068
 2810TIP3    H229922   5.717   5.150   3.666 -1.9153 -1.4628 -2.4401
 2811TIP3   OH229923   1.370   0.358  13.444 -0.1640  0.2668 -0.2668
 2811TIP3    H129924   1.409   0.287  13.393 -1.3855 -1.3803  0.9774
 2811TIP3    H229925   1.409   0.351  13.530 -1.2961  0.1885  0.2660
 2812TIP3   OH229926   5.083   1.633  12.718  0.6702 -0.0777 -0.3079
 2812TIP3    H129927   5.089   1.692  12.643 -0.2711  0.9232  0.3671
 2812TIP3    H229928   5.121   1.683  12.791  0.8666 -0.7305  0.0460
 2813TIP3   OH229929   2.000   0.655  14.502 -0.2541 -0.3041 -0.1194
 2813TIP3    H129930   2.022   0.733  14.451  2.0238 -1.1879 -0.5919
 2813TIP3    H229931   1.920   0.679  14.549 -2.2315  0.7792 -3.6170
 2814TIP3   OH229932   2.997   6.236  11.551 -0.5967  0.3321 -0.2958
 2814TIP3    H129933   3.091   6.240  11.570 -0.6820 -0.0172  0.2268
 2814TIP3    H229934   2.983   6.148  11.517 -1.0812 -0.3871  1.6522
 2815TIP3   OH229935   2.106   1.881   2.231  0.1559  0.4530  0.4857
 2815TIP3    H129936   2.171   1.813   2.212 -0.6458  0.1533 -1.4483
 2815TIP3    H229937   2.150   1.939   2.293  2.2862  0.2823 -0.7590
 2816TIP3   OH229938   6.533   1.910  12.258 -0.3290  0.2801 -0.4171
 2816TIP3    H129939   6.499   1.872  12.177 -0.3812 -0.3031 -0.1284
 2816TIP3    H229940   6.477   1.985  12.275 -0.2598  0.4663 -0.9712
 2817TIP3   OH229941   5.317   3.838  17.433 -0.1319  0.3740  0.7117
 2817TIP3    H129942   5.300   3.753  17.393  0.2309 -0.0057  1.3319
 2817TIP3    H229943   5.234   3.863  17.472  0.3226 -0.9122  2.7113
 2818TIP3   OH229944   5.567   5.284   4.140  0.0509 -0.3634 -0.1234
 2818TIP3    H129945   5.480   5.252   4.164 -0.4876  0.4094 -0.9762
 2818TIP3    H229946   5.598   5.330   4.217 -1.1785  1.1194 -0.4511
 2819TIP3   OH229947   6.720   0.101   1.282 -0.1453  0.0246 -0.1476
 2819TIP3    H129948   6.760   0.083   1.197  0.9993  0.1219  0.3492
 2819TIP3    H229949   6.659   0.173   1.265  1.4479  1.3470 -0.5686
 2820TIP3   OH229950   3.257   1.190  13.611 -0.9134 -0.1479 -0.4375
 2820TIP3    H129951   3.232   1.137  13.687  0.9030 -0.5871 -0.0842
 2820TIP3    H229952   3.261   1.279  13.645 -0.5605 -0.2796 -0.1167
 2821TIP3   OH229953   3.421   1.512   3.210  0.1185  0.5982  0.1787
 2821TIP3    H129954   3.470   1.531   3.290 -0.7474  2.1406  0.3729
 2821TIP3    H229955   3.335   1.482   3.241  0.9914 -2.6306 -0.1404
 2822TIP3   OH229956   1.968   1.793  14.372 -0.1861 -0.5428 -0.3756
 2822TIP3    H129957   2.004   1.806  14.460  1.1042  1.8529 -1.1549
 2822TIP3    H229958   1.913   1.716  14.380 -0.8682  0.1242  2.7553
 2823TIP3   OH229959   0.562   6.627  14.499  1.0098  0.4196 -0.3420
 2823TIP3    H129960   0.648   6.612  14.538  0.9013 -1.4664 -0.7180
 2823TIP3    H229961   0.581   6.659  14.411  1.2795  1.9401  0.2425
 2824TIP3   OH229962   5.736   5.416   4.583 -0.1270 -0.1570 -0.5859
 2824TIP3    H129963   5.831   5.420   4.599 -0.4436 -0.8118  1.7172
 2824TIP3    H229964   5.727   5.352   4.512  1.0164 -2.2750  1.0674
 2825TIP3   OH229965   3.205   0.784  10.930  0.0206 -0.6806 -0.1030
 2825TIP3    H129966   3.182   0.729  11.005 -1.4956 -1.2236 -0.9134
 2825TIP3    H229967   3.217   0.871  10.967  1.0384 -1.2638  1.0077
 2826TIP3   OH229968   2.519   2.494  16.576 -0.0888 -0.4465  0.4164
 2826TIP3    H129969   2.564   2.410  16.572  0.7832  0.0176  0.1659
 2826TIP3    H229970   2.463   2.488  16.653  1.0123 -0.7588  1.2284
 2827TIP3   OH229971   2.013   2.059   6.241  0.3218  0.4639  0.6057
 2827TIP3    H129972   2.078   1.996   6.273  0.1769  0.2930  0.5684
 2827TIP3    H229973   1.933   2.036   6.288  0.8488  2.2277  2.4987
 2828TIP3   OH229974   3.867   4.492  16.499  0.1806 -0.4537  0.1668
 2828TIP3    H129975   3.783   4.500  16.454  0.3892 -0.6717 -0.2630
 2828TIP3    H229976   3.933   4.504  16.431  0.5143  0.4821  0.6364
 2829TIP3   OH229977   4.203   5.590  12.894  0.0317 -0.2584  0.3815
 2829TIP3    H129978   4.236   5.501  12.910  0.7504  0.0686  0.7812
 2829TIP3    H229979   4.198   5.629  12.981 -1.2581 -0.2314  0.3039
 2830TIP3   OH229980   1.880   1.752   4.312 -0.1073 -0.3145 -0.4837
 2830TIP3    H129981   1.957   1.735   4.257  1.1662 -0.7020  1.3492
 2830TIP3    H229982   1.808   1.709   4.265  1.4518 -3.2624 -0.4518
 2831TIP3   OH229983   4.797   5.731   3.711  0.3490 -0.1206  0.8888
 2831TIP3    H129984   4.729   5.680   3.668  1.2066 -0.9945  0.5053
 2831TIP3    H229985   4.818   5.680   3.790  0.2768  0.3499  1.2129
 2832TIP3   OH229986   3.166   4.857  14.738 -0.5075  0.2216  0.3370
 2832TIP3    H129987   3.085   4.807  14.743 -0.5943  0.3505  0.2305
 2832TIP3    H229988   3.210   4.840  14.821  0.2175 -1.3109 -0.3092
 2833TIP3   OH229989   6.551   1.463   4.546  0.8790 -0.2655  0.3665
 2833TIP3    H129990   6.592   1.547   4.525 -0.9658  0.1695 -1.9164
 2833TIP3    H229991   6.559   1.455   4.641  1.1526  2.4703  0.6400
 2834TIP3   OH229992   1.645   4.526   6.419  0.4550 -0.3854 -0.4167
 2834TIP3    H129993   1.622   4.580   6.343  1.8890 -0.9767 -1.3083
 2834TIP3    H229994   1.612   4.575   6.494  0.3683  0.9766 -1.3104
 2835TIP3   OH229995   0.231   6.428  12.803 -0.3439  0.1597 -0.3294
 2835TIP3    H129996   0.237   6.513  12.846  3.3486  0.0875 -0.3457
 2835TIP3    H229997   0.265   6.366  12.868 -1.5354 -1.1059 -0.8507
 2836TIP3   OH229998   0.751   4.729   2.308 -0.1601  0.5043 -0.4969
 2836TIP3    H129999   0.715   4.655   2.260 -0.4584  1.2962 -1.5288
 2836TIP3    H230000   0.686   4.748   2.376  0.4199 -0.8293  0.4830
 2837TIP3   OH230001   1.481   1.200   3.788  0.2842  0.1596 -0.1394
 2837TIP3    H130002   1.481   1.106   3.772 -0.2840  0.2615 -0.7585
 2837TIP3    H230003   1.389   1.226   3.787  0.3972  0.6294  0.6213
 2838TIP3   OH230004   4.803   5.025  11.626 -0.8748  0.0772  0.2171
 2838TIP3    H130005   4.709   5.043  11.618 -1.0816 -1.0052 -0.0709
 2838TIP3    H230006   4.842   5.109  11.649 -2.2609 -0.0222  3.4177
 2839TIP3   OH230007   3.130   0.926  16.296  0.2674  0.5679 -0.1356
 2839TIP3    H130008   3.153   0.955  16.207  0.4517  1.6218  0.2379
 2839TIP3    H230009   3.214   0.912  16.339  0.1899 -1.3402 -0.5395
 2840TIP3   OH230010   5.408   1.538  12.897  0.0222 -0.0293  0.0392
 2840TIP3    H130011   5.463   1.460  12.888  0.2331  0.0031  0.9130
 2840TIP3    H230012   5.469   1.611  12.885 -0.2023  0.0104 -0.9237
 2841TIP3   OH230013   4.367   2.225   5.433 -0.2941 -0.1820 -0.2104
 2841TIP3    H130014   4.350   2.222   5.527 -2.1076  0.1065 -0.4950
 2841TIP3    H230015   4.356   2.134   5.404  0.1582 -0.2516 -0.1782
 2842TIP3   OH230016   4.884   1.607  14.352 -0.2281  0.0154 -0.6631
 2842TIP3    H130017   4.978   1.612  14.338 -0.4663  0.6789 -2.3290
 2842TIP3    H230018   4.860   1.518  14.327  0.3377 -1.2577  2.8709
 2843TIP3   OH230019   3.543   2.817  14.508  0.0709 -0.1059 -0.3712
 2843TIP3    H130020   3.518   2.812  14.600  1.9676 -1.0559  0.1382
 2843TIP3    H230021   3.503   2.739  14.468  0.1267 -0.2702 -0.1088
 2844TIP3   OH230022   1.790   1.685   4.065  0.1895  0.0875  0.4551
 2844TIP3    H130023   1.859   1.649   4.010  1.0853  0.6651  1.1714
 2844TIP3    H230024   1.773   1.772   4.029  1.0806  0.6419  1.3046
 2845TIP3   OH230025   6.421   2.496  17.197 -0.2254 -0.0093 -0.4949
 2845TIP3    H130026   6.403   2.408  17.229 -2.0219 -0.0929 -1.5685
 2845TIP3    H230027   6.399   2.493  17.103 -0.8334  1.6768 -0.4553
 2846TIP3   OH230028   2.238   0.671   5.640 -0.3937 -0.7241  0.0895
 2846TIP3    H130029   2.228   0.701   5.550  1.0112 -0.6544 -0.0615
 2846TIP3    H230030   2.286   0.741   5.684 -1.2223 -0.6768  0.9475
 2847TIP3   OH230031   0.264   1.012   3.120  1.2155 -0.3408 -0.1298
 2847TIP3    H130032   0.228   1.078   3.062  0.9105 -0.7640 -0.4286
 2847TIP3    H230033   0.356   1.037   3.131  1.4537 -0.6432 -1.3526
 2848TIP3   OH230034   5.613   6.775  12.446 -0.3888  0.0455 -0.4415
 2848TIP3    H130035   5.601   6.853  12.391 -0.2873 -0.1453 -0.7418
 2848TIP3    H230036   5.594   6.701  12.387  1.5197 -0.2531 -0.7844
 2849TIP3   OH230037   2.505   0.176   3.338  0.2355 -0.2578  0.1338
 2849TIP3    H130038   2.420   0.215   3.362  0.1459 -0.8782  0.8643
 2849TIP3    H230039   2.482   0.092   3.298  0.5243 -0.8951  1.2535
 2850TIP3   OH230040   3.037   4.508   0.666  0.1433 -0.0516 -0.1610
 2850TIP3    H130041   3.048   4.472   0.578  0.7137 -0.6345  0.1441
 2850TIP3    H230042   3.026   4.602   0.652  1.6305  0.0545 -0.7661
 2851TIP3   OH230043   2.151   4.230  12.144  0.9655 -0.5532 -0.0060
 2851TIP3    H130044   2.108   4.274  12.218  0.6305 -0.0229 -0.5095
 2851TIP3    H230045   2.089   4.164  12.116  1.5351 -1.4897  0.8519
 2852TIP3   OH230046   1.484   1.634  14.476  0.0639  0.1907 -0.2795
 2852TIP3    H130047   1.390   1.637  14.497 -0.4638 -1.4579 -2.1165
 2852TIP3    H230048   1.511   1.546  14.504  1.4441  1.1382  1.5274
 2853TIP3   OH230049   0.498   1.762  16.622 -0.5557  0.3951  0.2515
 2853TIP3    H130050   0.525   1.673  16.644  3.2337  1.2398 -0.2592
 2853TIP3    H230051   0.536   1.816  16.692 -2.3708  1.6961  0.2912
 2854TIP3   OH230052   1.718   4.900   6.578  0.1628 -0.2021  0.3968
 2854TIP3    H130053   1.768   4.833   6.625 -0.6322 -1.2910 -0.2513
 2854TIP3    H230054   1.778   4.974   6.571  0.7129 -0.4356  2.0599
 2855TIP3   OH230055   4.345   0.747   2.924 -0.4581 -0.0250 -0.1483
 2855TIP3    H130056   4.337   0.671   2.983 -2.0557  1.2250  1.3413
 2855TIP3    H230057   4.256   0.763   2.893 -0.1317  1.2324 -0.4619
 2856TIP3   OH230058   6.051   5.988  17.432  0.3884  0.3262 -1.1460
 2856TIP3    H130059   6.035   6.014  17.523 -0.5792  0.8146 -1.4404
 2856TIP3    H230060   5.966   5.994  17.390  0.5542 -1.2530 -1.7715
 2857TIP3   OH230061   3.313   6.367  11.104  0.1131 -0.5761 -0.5656
 2857TIP3    H130062   3.300   6.350  11.011  0.5692 -0.0733 -0.7266
 2857TIP3    H230063   3.264   6.298  11.148  1.0639 -1.6756 -1.1776
 2858TIP3   OH230064   5.590   2.174  14.407 -0.3361  0.1107 -0.0270
 2858TIP3    H130065   5.528   2.138  14.344 -0.8212  0.1199  0.4444
 2858TIP3    H230066   5.668   2.194  14.354  0.4820 -2.8268 -0.1313
 2859TIP3   OH230067   2.823   2.814  12.274  0.4259  0.0287  0.4109
 2859TIP3    H130068   2.917   2.822  12.286  0.2279  0.5647  1.7545
 2859TIP3    H230069   2.796   2.746  12.335 -0.0397 -0.2827 -0.1260
 2860TIP3   OH230070   3.428   3.372  12.787  0.0191  0.3774  0.1682
 2860TIP3    H130071   3.351   3.315  12.786 -0.8988  1.5790 -0.2054
 2860TIP3    H230072   3.497   3.318  12.825 -0.9933 -0.7529  0.4744
 2861TIP3   OH230073   3.140   0.021  15.138 -0.5275 -0.2798 -0.0447
 2861TIP3    H130074   3.113   0.103  15.180  1.9619  0.8696 -0.4897
 2861TIP3    H230075   3.199  -0.020  15.201  0.2934 -0.4026 -0.8681
 2862TIP3   OH230076   0.012   3.188  14.795  0.0110 -0.7319  0.3866
 2862TIP3    H130077   0.090   3.225  14.836  1.0280 -3.4709  1.1133
 2862TIP3    H230078  -0.060   3.242  14.829  1.4731  1.6229 -0.0095
 2863TIP3   OH230079   0.944   2.243  14.829 -0.0358 -0.0289  0.0096
 2863TIP3    H130080   0.851   2.240  14.804  0.4406  0.2157 -1.9401
 2863TIP3    H230081   0.981   2.161  14.794  0.6953  0.3692 -0.1617
 2864TIP3   OH230082   5.717   1.059   4.779 -0.0263  0.0502 -0.4605
 2864TIP3    H130083   5.669   1.000   4.721  0.1147 -0.1817 -0.3414
 2864TIP3    H230084   5.772   1.112   4.721  1.5498 -1.4631 -0.4190
 2865TIP3   OH230085   5.205   5.094   2.416 -0.3847  0.6621 -0.0571
 2865TIP3    H130086   5.136   5.143   2.371 -0.7305  1.5948  1.4127
 2865TIP3    H230087   5.163   5.014   2.446 -0.7143  1.0133  0.4275
 2866TIP3   OH230088   0.253   2.424  14.335  0.4875 -0.3836  1.0730
 2866TIP3    H130089   0.295   2.340  14.355 -0.0672 -0.7701  0.6365
 2866TIP3    H230090   0.161   2.412  14.361  0.1240 -0.3368 -0.1281
 2867TIP3   OH230091   6.583   4.458  13.802 -0.3593  0.0191  0.0223
 2867TIP3    H130092   6.649   4.389  13.792 -1.1647 -1.1196  2.0166
 2867TIP3    H230093   6.527   4.427  13.873 -1.9667  1.8132 -0.3951
 2868TIP3   OH230094   6.578   3.625  16.568 -0.1964  0.4837  0.4862
 2868TIP3    H130095   6.591   3.577  16.486  0.5543  1.8099 -0.2102
 2868TIP3    H230096   6.547   3.559  16.630  0.4009 -0.8058 -0.5359
 2869TIP3   OH230097   4.104   6.224  16.578 -0.0845  0.2455 -0.4712
 2869TIP3    H130098   4.101   6.310  16.537 -1.9775  0.6750  0.4410
 2869TIP3    H230099   4.107   6.242  16.672  1.3298 -0.7093 -0.3087
 2870TIP3   OH230100   4.471   0.568  11.892 -0.4124 -0.3976  0.0281
 2870TIP3    H130101   4.404   0.544  11.828 -0.2755 -1.0611  0.1308
 2870TIP3    H230102   4.553   0.537  11.855 -0.0674  0.9537 -0.3784
 2871TIP3   OH230103   2.458   3.117   2.053  0.2730 -0.2608 -1.0071
 2871TIP3    H130104   2.548   3.084   2.046  0.3666  0.0882 -1.5369
 2871TIP3    H230105   2.423   3.107   1.965 -0.5963 -1.4686 -0.5456
 2872TIP3   OH230106   6.742   2.282  14.784 -0.2098 -0.1683 -0.3997
 2872TIP3    H130107   6.715   2.196  14.750 -1.4976 -0.2668  0.7327
 2872TIP3    H230108   6.679   2.299  14.855  0.8311  1.1233  0.2477
 2873TIP3   OH230109   4.162   5.283  11.336 -0.0311 -0.0749 -0.3932
 2873TIP3    H130110   4.098   5.344  11.373 -0.9938 -1.4416  0.2470
 2873TIP3    H230111   4.200   5.331  11.262 -2.0468  0.6388 -1.0220
 2874TIP3   OH230112   0.003   6.066   2.061 -0.2882  0.2063 -0.4290
 2874TIP3    H130113   0.038   6.025   1.982 -0.1828  0.1532 -0.3544
 2874TIP3    H230114  -0.082   6.101   2.034 -0.5533 -0.3924 -0.4006
 2875TIP3   OH230115   0.793   3.087   1.794 -0.0575 -0.5795  0.4102
 2875TIP3    H130116   0.745   3.024   1.740  2.2666 -2.4918  0.4482
 2875TIP3    H230117   0.731   3.109   1.865 -1.3189 -1.9547 -0.2116
 2876TIP3   OH230118   1.549   1.520   0.426 -0.3976  0.0122  0.7153
 2876TIP3    H130119   1.557   1.513   0.521  1.6945 -0.2837  0.5696
 2876TIP3    H230120   1.580   1.608   0.405  0.4298 -0.3750  0.2328
 2877TIP3   OH230121   4.959   4.601   1.356  0.2601 -0.3245  1.0850
 2877TIP3    H130122   4.902   4.571   1.426  0.0770 -1.0887  0.6090
 2877TIP3    H230123   5.012   4.525   1.333 -0.1965 -0.2884 -0.1186
 2878TIP3   OH230124   5.956   5.113  13.428 -0.7671  0.6501  0.3695
 2878TIP3    H130125   6.011   5.100  13.350  1.4180 -1.8470  2.1648
 2878TIP3    H230126   5.883   5.052  13.415  0.8750 -1.6113  1.2907
 2879TIP3   OH230127   4.410   1.275  12.102 -0.4600 -0.2462  0.2643
 2879TIP3    H130128   4.480   1.341  12.095 -0.8944  0.1233 -0.8339
 2879TIP3    H230129   4.433   1.209  12.036 -0.4474 -0.7992  0.8170
 2880TIP3   OH230130   3.864   0.726  11.950 -0.5496 -0.7186 -0.3565
 2880TIP3    H130131   3.805   0.775  12.008  0.3901 -1.7585  1.5732
 2880TIP3    H230132   3.950   0.766  11.964  0.0329 -2.1738  0.4557
 2881TIP3   OH230133   5.326   1.528  12.523 -0.0171  0.5386 -0.0085
 2881TIP3    H130134   5.291   1.602  12.572  2.1170  0.9508  0.9865
 2881TIP3    H230135   5.330   1.457  12.586  1.3279  0.6305  0.0248
 2882TIP3   OH230136   4.552   2.285   0.480  0.5380  0.5846  0.0487
 2882TIP3    H130137   4.461   2.284   0.510  0.9644 -0.2379  1.4416
 2882TIP3    H230138   4.560   2.205   0.427  0.5776  0.3375  0.4167
 2883TIP3   OH230139   0.879   1.095  17.469  0.3022 -0.3990  0.1371
 2883TIP3    H130140   0.922   1.030  17.525 -0.5659 -1.1970 -0.1017
 2883TIP3    H230141   0.875   1.052  17.383 -0.0218  0.0942 -0.0932
 2884TIP3   OH230142   3.361   0.660   1.993 -0.2286 -0.3508 -1.3277
 2884TIP3    H130143   3.266   0.653   1.997 -0.1869 -0.6521 -0.6237
 2884TIP3    H230144   3.392   0.570   1.987  0.0802 -0.4801  1.0214
 2885TIP3   OH230145   6.471   6.220   4.698 -0.2437  0.1527  0.3045
 2885TIP3    H130146   6.510   6.262   4.622  2.3078  0.0611  1.4563
 2885TIP3    H230147   6.412   6.286   4.734 -0.7483  0.5444 -1.1607
 2886TIP3   OH230148   5.600   2.678   3.026  0.4764  0.2953  0.3709
 2886TIP3    H130149   5.582   2.740   3.097 -1.3461  2.5009 -1.8486
 2886TIP3    H230150   5.534   2.610   3.036  0.8750  0.0258  1.3238
 2887TIP3   OH230151   0.291   0.195   3.138 -0.2069  0.4046  0.3274
 2887TIP3    H130152   0.202   0.229   3.146 -0.4136 -0.2672  1.0635
 2887TIP3    H230153   0.327   0.238   3.061 -1.0044  1.0495  0.3059
 2888TIP3   OH230154   3.959   1.742   4.514 -0.2618 -0.2550  0.4780
 2888TIP3    H130155   3.867   1.764   4.501 -0.4519 -0.6662  1.0805
 2888TIP3    H230156   3.960   1.647   4.524  0.2272 -0.2495  0.5219
 2889TIP3   OH230157   5.700   5.795  11.925 -1.0921 -0.4134 -0.0020
 2889TIP3    H130158   5.651   5.720  11.893 -1.8946 -0.1228  0.5256
 2889TIP3    H230159   5.756   5.760  11.994  0.8298 -1.0912 -1.7883
 2890TIP3   OH230160   4.864   0.073  13.255 -0.3519  0.4353 -0.1511
 2890TIP3    H130161   4.953   0.045  13.274 -0.1414  1.0399 -0.2230
 2890TIP3    H230162   4.809  -0.002  13.279  0.3316 -0.7476 -2.0146
 2891TIP3   OH230163   4.886   3.405  14.952  0.1369 -0.4325  0.2111
 2891TIP3    H130164   4.872   3.328  14.897 -2.0675 -0.7104  1.0586
 2891TIP3    H230165   4.941   3.373  15.024 -0.2085 -1.0565  0.2069
 2892TIP3   OH230166   2.056   5.514   1.496  0.1481 -0.1901 -0.3839
 2892TIP3    H130167   2.127   5.535   1.556 -0.5965 -0.2479  0.5492
 2892TIP3    H230168   1.979   5.557   1.534 -0.5857 -1.2419 -0.6291
 2893TIP3   OH230169   5.986   1.868  15.533  0.0711  0.6181  0.6634
 2893TIP3    H130170   6.071   1.878  15.577  1.2178  1.3678 -1.5552
 2893TIP3    H230171   5.969   1.774  15.536  0.1727  0.6220  2.4890
 2894TIP3   OH230172   2.489   0.825  16.266 -0.1501  0.7486 -0.1455
 2894TIP3    H130173   2.407   0.853  16.225 -1.0431 -0.2127  0.9022
 2894TIP3    H230174   2.496   0.881  16.344  0.3505  1.0152 -0.3753
 2895TIP3   OH230175   6.331   2.271  13.939  0.0964  0.3605 -0.4140
 2895TIP3    H130176   6.377   2.328  14.001 -1.1048  0.4399  0.4430
 2895TIP3    H230177   6.386   2.271  13.861  0.6652  1.8308 -0.0458
 2896TIP3   OH230178   1.236   6.721  15.467  0.0737 -0.1374  0.0408
 2896TIP3    H130179   1.177   6.714  15.391  0.6054  0.7073 -0.4647
 2896TIP3    H230180   1.227   6.812  15.496  0.7827 -0.1252  0.2385
 2897TIP3   OH230181   4.051   3.142  13.309 -0.0089 -0.1574  0.7025
 2897TIP3    H130182   4.114   3.140  13.381  0.9471  0.3677 -0.1026
 2897TIP3    H230183   4.089   3.087  13.242 -1.0232 -0.8547  0.6690
 2898TIP3   OH230184   3.227   3.532  15.346  0.0369  0.1648 -0.1180
 2898TIP3    H130185   3.272   3.482  15.413 -1.6514  0.4743  1.3107
 2898TIP3    H230186   3.151   3.479  15.323 -0.5559  1.0273 -0.2072
 2899TIP3   OH230187   0.723   5.481  16.686 -0.9472 -0.2781 -0.2841
 2899TIP3    H130188   0.794   5.444  16.739 -1.3641 -0.6981 -0.0170
 2899TIP3    H230189   0.768   5.527  16.615 -0.3382  1.0715  0.9222
 2900TIP3   OH230190   2.477   3.822  11.268 -0.0375  0.3673 -0.2487
 2900TIP3    H130191   2.413   3.777  11.213  0.9018 -0.0519 -1.0377
 2900TIP3    H230192   2.562   3.794  11.233  0.5925  0.2107  1.3220
 2901TIP3   OH230193   4.057   5.486   5.350 -0.9211 -0.3187 -0.2493
 2901TIP3    H130194   4.082   5.544   5.422 -2.9036 -1.6323  1.5930
 2901TIP3    H230195   4.087   5.400   5.377  0.4371 -0.5068 -2.1627
 2902TIP3   OH230196   2.715   2.584   3.667  0.0577  0.8523 -0.1597
 2902TIP3    H130197   2.620   2.596   3.670  0.0976  1.0757  0.5873
 2902TIP3    H230198   2.735   2.569   3.575 -0.8413 -0.4323 -0.1718
 2903TIP3   OH230199   4.110   5.424   0.957  0.0807  0.4569  0.3083
 2903TIP3    H130200   4.167   5.490   0.918  0.3433 -0.1960 -0.4192
 2903TIP3    H230201   4.136   5.421   1.049  0.6712  0.7343  0.1523
 2904TIP3   OH230202   5.941   1.134  13.903 -0.1299  0.1375 -0.7367
 2904TIP3    H130203   5.998   1.064  13.933  0.8247  1.9765  2.0626
 2904TIP3    H230204   5.864   1.129  13.959  1.0555  2.7662  1.3190
 2905TIP3   OH230205   1.233   3.656  15.078  0.4413 -0.6117 -0.2459
 2905TIP3    H130206   1.195   3.730  15.031 -0.9456 -0.9541  0.3044
 2905TIP3    H230207   1.263   3.596  15.009  0.7242  0.0261 -0.6838
 2906TIP3   OH230208   1.114   1.361   4.640  0.0139  0.1910  0.5258
 2906TIP3    H130209   1.191   1.412   4.617 -0.6114  2.0235  2.2777
 2906TIP3    H230210   1.149   1.279   4.676  1.0379 -0.1726 -1.1949
 2907TIP3   OH230211   6.305   6.376   1.587 -0.1234  0.0696  0.2592
 2907TIP3    H130212   6.247   6.304   1.562 -1.4032  1.2603 -0.3128
 2907TIP3    H230213   6.246   6.449   1.604  1.2098  1.3395 -0.3951
 2908TIP3   OH230214   3.831   0.392   2.326 -0.4754  0.3582 -0.0495
 2908TIP3    H130215   3.764   0.385   2.258  0.8068 -2.4649 -1.2383
 2908TIP3    H230216   3.907   0.430   2.281  0.3477 -1.4231 -0.2721
 2909TIP3   OH230217   4.458   0.738  12.146  0.2466 -0.4658  0.1038
 2909TIP3    H130218   4.474   0.696  12.061 -0.5349  0.5188 -0.5525
 2909TIP3    H230219   4.391   0.684  12.187  0.6508 -0.9673  0.1127
 2910TIP3   OH230220   6.063   6.680  13.714  0.6713  0.2896 -0.5606
 2910TIP3    H130221   6.042   6.587  13.716  0.2685  0.3517 -1.5040
 2910TIP3    H230222   5.979   6.725  13.703  0.8543  0.7750 -0.0572
 2911TIP3   OH230223   3.171   1.897   3.790 -0.0846  0.2823  0.0932
 2911TIP3    H130224   3.250   1.862   3.832  0.0331 -0.3565 -0.6272
 2911TIP3    H230225   3.103   1.832   3.809 -0.6159  1.1526  1.2629
 2912TIP3   OH230226   0.505   6.361  16.550 -0.3228 -0.2289 -0.3933
 2912TIP3    H130227   0.585   6.408  16.525 -0.7185  0.9472  0.4601
 2912TIP3    H230228   0.436   6.426  16.540 -0.8547 -0.5595  1.0550
 2913TIP3   OH230229   5.835   1.532   1.594 -0.3200 -0.0528  0.1591
 2913TIP3    H130230   5.844   1.591   1.669 -0.3512  1.3438 -0.9076
 2913TIP3    H230231   5.808   1.448   1.633 -2.5201  1.2050  1.5427
 2914TIP3   OH230232   6.771   2.878  14.055 -0.0791  0.5786  0.3155
 2914TIP3    H130233   6.847   2.936  14.056 -0.3147  0.8828  1.5020
 2914TIP3    H230234   6.742   2.875  14.146 -2.2194  1.4433 -0.2902
 2915TIP3   OH230235   3.060   0.642  13.405  0.1574  0.2539 -0.1179
 2915TIP3    H130236   3.034   0.569  13.349  1.8076 -1.0679  0.7267
 2915TIP3    H230237   3.155   0.647  13.395  0.5486 -0.1597  2.6134
 2916TIP3   OH230238   0.073   0.644  17.032  0.4300  0.6102  0.1568
 2916TIP3    H130239   0.016   0.570  17.050 -0.5136  1.0199 -1.0350
 2916TIP3    H230240   0.041   0.714  17.089 -0.1087  0.7560 -0.3118
 2917TIP3   OH230241   5.377   0.506  15.950  0.3027 -0.0212 -0.0515
 2917TIP3    H130242   5.328   0.442  16.002  1.7834 -1.1039  0.0797
 2917TIP3    H230243   5.423   0.560  16.015  0.9868 -0.4270 -0.1810
 2918TIP3   OH230244   3.760   0.823  14.917 -0.4483 -0.1287  0.1267
 2918TIP3    H130245   3.739   0.783  14.832 -0.1010 -0.5291  0.2245
 2918TIP3    H230246   3.724   0.912  14.911 -0.2595 -0.0850 -0.5165
 2919TIP3   OH230247   2.477   3.218  13.154 -0.7630  0.2818  0.1859
 2919TIP3    H130248   2.439   3.229  13.241 -0.6408  0.7112  0.1888
 2919TIP3    H230249   2.409   3.174  13.103  0.1114 -2.4486  1.1920
 2920TIP3   OH230250   2.671   3.110  11.535 -0.1514 -0.3910 -0.0944
 2920TIP3    H130251   2.581   3.096  11.566 -0.2252 -0.7450 -0.4607
 2920TIP3    H230252   2.672   3.201  11.504 -0.4177 -0.4269 -0.2108
 2921TIP3   OH230253   1.057   3.209   1.933 -0.0963 -0.1057  0.3086
 2921TIP3    H130254   1.095   3.188   2.018  0.0947  0.5383  0.3902
 2921TIP3    H230255   0.981   3.263   1.954 -0.8263 -1.0571  0.1274
 2922TIP3   OH230256   3.498   0.792   1.801  0.1774 -0.3337  0.2520
 2922TIP3    H130257   3.455   0.751   1.877 -1.9201 -3.9391 -2.5666
 2922TIP3    H230258   3.456   0.878   1.794 -0.8573 -0.6209  2.1042
 2923TIP3   OH230259   5.369   2.291  11.855  0.4711 -0.0369 -0.3799
 2923TIP3    H130260   5.415   2.207  11.853  1.0968  0.3137 -1.4240
 2923TIP3    H230261   5.429   2.350  11.902  0.0678 -0.1517  0.2834
 2924TIP3   OH230262   3.488   6.341   3.193  0.0601 -0.4829 -0.0606
 2924TIP3    H130263   3.489   6.384   3.107  0.2457 -1.0793 -0.3652
 2924TIP3    H230264   3.547   6.266   3.183 -0.4645 -0.9648  0.3728
 2925TIP3   OH230265   1.990   6.125   3.599 -0.0985  0.3658  0.2913
 2925TIP3    H130266   2.074   6.165   3.575  0.5643 -0.1837  1.5789
 2925TIP3    H230267   1.934   6.198   3.624  0.6089  0.6252  1.1711
 2926TIP3   OH230268   1.535   2.850   2.564  0.6770  0.8902 -0.2738
 2926TIP3    H130269   1.589   2.775   2.589  0.4430  0.2407 -1.6096
 2926TIP3    H230270   1.584   2.893   2.495 -0.3027  0.5157 -1.2337
 2927TIP3   OH230271   1.406   0.259  11.642  0.0004 -0.2380  0.4991
 2927TIP3    H130272   1.452   0.265  11.726  0.0814 -0.2691  0.4573
 2927TIP3    H230273   1.462   0.203  11.588  1.2017  1.6502 -0.3684
 2928TIP3   OH230274   0.329   0.346   0.622 -0.0813 -0.2255  0.7734
 2928TIP3    H130275   0.301   0.285   0.553 -1.5259 -0.5954  1.6475
 2928TIP3    H230276   0.251   0.400   0.640  0.1928 -0.2803  2.2516
 2929TIP3   OH230277   3.016   4.780  15.242  0.6787 -0.4024  0.1271
 2929TIP3    H130278   3.049   4.864  15.273  0.3839 -0.2738  0.0981
 2929TIP3    H230279   2.968   4.744  15.316 -2.9490  1.4276 -1.0772
 2930TIP3   OH230280   0.356   4.149   2.999  0.1073  0.4722  0.6172
 2930TIP3    H130281   0.340   4.239   3.025  0.5838  0.1210  2.2212
 2930TIP3    H230282   0.269   4.108   2.998 -0.2353  1.1637 -1.1112
 2931TIP3   OH230283   6.506   5.969  11.651 -0.3870  0.0064  0.4990
 2931TIP3    H130284   6.506   6.013  11.736 -0.1073  1.1882 -0.0966
 2931TIP3    H230285   6.471   5.882  11.670  0.8789 -0.2291  2.0611
 2932TIP3   OH230286   3.505   2.604   2.951  0.6433 -0.4500  0.7357
 2932TIP3    H130287   3.541   2.667   3.013  1.7042  0.1015 -0.3914
 2932TIP3    H230288   3.410   2.619   2.954  0.9437  2.4258 -0.6992
 2933TIP3   OH230289   4.172   4.481   1.075  0.2831 -0.0663  0.6204
 2933TIP3    H130290   4.193   4.513   1.163 -0.6200 -1.6679  1.4409
 2933TIP3    H230291   4.257   4.456   1.039  0.7681  1.3431  0.6934
 2934TIP3   OH230292   6.606   4.988  16.707 -0.1703 -0.1058  0.6150
 2934TIP3    H130293   6.699   4.996  16.685 -0.3361  0.3345  0.0450
 2934TIP3    H230294   6.597   4.901  16.745  0.3615 -0.3878  0.0998
 2935TIP3   OH230295   3.035   0.180  15.308 -0.9164 -0.1143  0.5949
 2935TIP3    H130296   2.941   0.196  15.307 -1.1195 -1.1152  1.6709
 2935TIP3    H230297   3.052   0.139  15.393  0.2653 -1.2955 -0.1717
 2936TIP3   OH230298   4.375   3.337  14.755 -0.2378 -0.1275  0.0220
 2936TIP3    H130299   4.345   3.282  14.683  1.4588 -0.8567 -0.1796
 2936TIP3    H230300   4.444   3.392  14.716 -0.5032  0.7040  0.6954
 2937TIP3   OH230301   3.774   4.511   0.648  0.0486 -0.3220  0.4693
 2937TIP3    H130302   3.708   4.577   0.669 -1.6388 -1.3536 -1.1732
 2937TIP3    H230303   3.795   4.470   0.731 -1.7302 -0.2151  1.0178
 2938TIP3   OH230304   2.119   2.102   4.964 -0.2731  0.4327  0.1577
 2938TIP3    H130305   2.195   2.061   5.006  0.9923 -1.2003 -3.3704
 2938TIP3    H230306   2.054   2.032   4.959  0.5557 -0.2568 -2.6747
 2939TIP3   OH230307   6.170   1.111  12.264 -0.2927  0.4293  0.1939
 2939TIP3    H130308   6.105   1.118  12.334 -0.4746  1.6669 -0.0850
 2939TIP3    H230309   6.216   1.195  12.266  0.3329  0.1088 -0.5582
 2940TIP3   OH230310   5.755   4.594   1.183  0.5322 -0.3808  0.4894
 2940TIP3    H130311   5.776   4.688   1.189 -0.9588 -0.0429  1.0166
 2940TIP3    H230312   5.748   4.566   1.274 -1.6924 -0.3211  0.3900
 2941TIP3   OH230313   0.659   3.485   2.622 -0.0381 -0.0273  0.1634
 2941TIP3    H130314   0.585   3.425   2.635 -0.1992 -0.1361 -1.1012
 2941TIP3    H230315   0.730   3.447   2.673 -0.6377 -0.3207  0.8073
 2942TIP3   OH230316   3.075   5.132  13.930 -0.2898 -0.1319  0.5726
 2942TIP3    H130317   2.989   5.138  13.973 -0.2828  1.6493  0.4208
 2942TIP3    H230318   3.101   5.223  13.917  1.2936 -0.6500 -0.0756
 2943TIP3   OH230319   2.462   1.831  14.481  0.0416  0.1088  0.2847
 2943TIP3    H130320   2.433   1.788  14.401  1.0933  1.9872 -1.1796
 2943TIP3    H230321   2.392   1.893  14.502 -0.4421 -0.6993  1.1006
 2944TIP3   OH230322   6.453   3.315   2.440 -0.3338 -0.1662  0.2086
 2944TIP3    H130323   6.365   3.333   2.408 -1.2536 -0.9855  2.1056
 2944TIP3    H230324   6.473   3.228   2.408 -0.9082 -0.6403  1.0890
 2945TIP3   OH230325   1.610   3.821  14.306 -0.1643 -0.3953 -0.3301
 2945TIP3    H130326   1.549   3.864  14.246 -0.0533 -0.9944 -0.8831
 2945TIP3    H230327   1.697   3.848  14.276 -0.1183 -0.4458 -0.2430
 2946TIP3   OH230328   4.484   4.379   2.315  0.2284  0.1232  0.3298
 2946TIP3    H130329   4.512   4.363   2.225 -0.9789  3.8580 -0.9461
 2946TIP3    H230330   4.555   4.430   2.354 -0.2482  0.5502  0.6594
 2947TIP3   OH230331   4.448   1.004   3.726  0.0166  0.2336 -0.4278
 2947TIP3    H130332   4.505   1.072   3.763  1.0415  1.0448 -3.2636
 2947TIP3    H230333   4.491   0.922   3.748  1.0042  0.7244 -0.4547
 2948TIP3   OH230334   6.076   5.639   4.867 -0.8816 -0.2504  0.6912
 2948TIP3    H130335   6.107   5.719   4.910 -2.0028  0.8584 -0.4554
 2948TIP3    H230336   6.144   5.618   4.803 -1.3927  0.8720 -0.2637
 2949TIP3   OH230337   4.832   1.087   6.621  0.4345  0.6708  0.0359
 2949TIP3    H130338   4.780   1.014   6.587  0.6436  0.7874 -0.5415
 2949TIP3    H230339   4.875   1.051   6.699 -0.3782  0.5258  0.4348
 2950TIP3   OH230340   1.498   0.494  11.494 -0.3252  0.4357  0.2671
 2950TIP3    H130341   1.422   0.532  11.537  0.5232  1.0643  1.2683
 2950TIP3    H230342   1.476   0.401  11.484 -0.5544  0.2387  2.1496
 2951TIP3   OH230343   3.349   4.469   3.522  0.4334 -0.1348 -0.2927
 2951TIP3    H130344   3.293   4.545   3.509  1.4245  0.5064 -1.0401
 2951TIP3    H230345   3.335   4.443   3.613 -1.1452 -0.0785 -0.4991
 2952TIP3   OH230346   2.971   3.820   0.568 -0.0627  0.1528 -0.0606
 2952TIP3    H130347   2.995   3.897   0.619  1.3770 -0.5635  0.3767
 2952TIP3    H230348   3.024   3.826   0.488 -0.4712 -0.0240 -0.3494
 2953TIP3   OH230349   1.420   5.705   5.959  0.3313  0.3085  0.2803
 2953TIP3    H130350   1.441   5.683   6.050 -0.2729  1.3591  0.6895
 2953TIP3    H230351   1.329   5.676   5.948  0.0694  1.1025  0.3302
 2954TIP3   OH230352   3.444   0.206   3.153 -0.0668 -0.2753  0.3694
 2954TIP3    H130353   3.414   0.235   3.067 -2.4059 -1.6703  0.6104
 2954TIP3    H230354   3.510   0.270   3.179  0.5617  0.2971 -2.3435
 2955TIP3   OH230355   4.908   0.222   6.764 -0.1413  0.4559  0.1053
 2955TIP3    H130356   4.842   0.268   6.815 -0.4476 -0.2099  0.3280
 2955TIP3    H230357   4.877   0.131   6.761 -0.4464  0.5657 -1.7397
 2956TIP3   OH230358   4.043   3.726  15.146  0.2162  0.0623  0.0228
 2956TIP3    H130359   4.047   3.631  15.151 -1.7151 -0.0993 -0.5412
 2956TIP3    H230360   4.067   3.747  15.055  1.4297  0.2104  0.3560
 2957TIP3   OH230361   5.942   4.948   3.337  0.4921  0.4042  0.1146
 2957TIP3    H130362   5.977   4.870   3.380  0.2070 -0.8543 -1.8151
 2957TIP3    H230363   6.008   5.016   3.352  1.3050 -0.5232  0.8179
 2958TIP3   OH230364   0.464   3.388  11.858  0.1731  0.4552 -0.6786
 2958TIP3    H130365   0.550   3.346  11.861  0.7325  1.5143 -1.0227
 2958TIP3    H230366   0.401   3.316  11.858  1.0343 -0.3274  0.2859
 2959TIP3   OH230367   3.065   5.930   5.117  0.6954  0.0172 -0.8448
 2959TIP3    H130368   3.132   5.996   5.096 -0.2130  1.1247 -0.3638
 2959TIP3    H230369   3.073   5.916   5.211 -0.1474  0.6176 -0.6763
 2960TIP3   OH230370   5.052   5.094   4.754 -0.2732 -0.0382  0.0226
 2960TIP3    H130371   5.037   5.059   4.842 -0.2839 -0.6492 -0.2126
 2960TIP3    H230372   5.054   5.189   4.765  1.3979 -0.1604  0.9345
 2961TIP3   OH230373   3.744   2.073  17.249  0.4196  0.1398 -0.1540
 2961TIP3    H130374   3.702   2.144  17.298  1.6025  1.3545 -0.8398
 2961TIP3    H230375   3.731   2.096  17.157  0.2500 -0.8960 -0.3967
 2962TIP3   OH230376   1.481   6.421  14.809  0.3924  0.5277 -0.1850
 2962TIP3    H130377   1.501   6.344  14.863  0.5575  0.2635 -0.6092
 2962TIP3    H230378   1.535   6.409  14.731 -1.8043 -0.4839 -1.6348
 2963TIP3   OH230379   2.482   0.075   4.743 -0.3544  0.3432  0.0403
 2963TIP3    H130380   2.487   0.008   4.674  0.3857 -0.2284  0.6247
 2963TIP3    H230381   2.527   0.151   4.706  2.2146 -0.7413  0.7211
 2964TIP3   OH230382   0.286   6.209  13.337 -0.1690  0.3211  0.1573
 2964TIP3    H130383   0.208   6.202  13.391  0.3184 -1.5362  0.7034
 2964TIP3    H230384   0.357   6.177  13.393  0.3684 -1.5801 -1.5164
 2965TIP3   OH230385   1.460   0.441   4.314  0.0328 -0.3530 -1.1636
 2965TIP3    H130386   1.511   0.505   4.264  1.9942 -2.0999 -1.5320
 2965TIP3    H230387   1.477   0.464   4.406  3.4482 -2.1422 -1.1822
 2966TIP3   OH230388   5.845   0.055  12.267  0.3444 -0.1614  0.0207
 2966TIP3    H130389   5.906   0.107  12.318  0.2314  0.2382 -0.2479
 2966TIP3    H230390   5.760   0.095  12.283  0.4720  0.7958 -1.4963
 2967TIP3   OH230391   6.031   1.498  15.255 -0.1366 -0.2015  0.0263
 2967TIP3    H130392   6.037   1.588  15.223  2.1022  0.0838  1.0613
 2967TIP3    H230393   6.018   1.445  15.176  0.2060  0.8782 -0.7712
 2968TIP3   OH230394   1.226   2.565  12.589  0.0096 -0.3574 -0.5963
 2968TIP3    H130395   1.175   2.500  12.541 -1.4559  1.7657 -2.1333
 2968TIP3    H230396   1.161   2.614  12.639  1.0465  0.0126  0.4317
 2969TIP3   OH230397   6.580   4.673  14.860  0.4992  0.7016 -0.2113
 2969TIP3    H130398   6.583   4.768  14.846  0.3006  0.5240 -1.6240
 2969TIP3    H230399   6.663   4.653  14.903 -0.3212  1.7607  2.0099
 2970TIP3   OH230400   2.868   1.558   3.972 -0.3208  0.1846 -0.2578
 2970TIP3    H130401   2.774   1.575   3.975 -0.3600  0.5053 -2.2075
 2970TIP3    H230402   2.876   1.463   3.985 -1.2263 -0.4088 -3.3260
 2971TIP3   OH230403   1.460   2.523  14.353  0.0390 -0.1534 -0.3241
 2971TIP3    H130404   1.525   2.572  14.403  0.6438 -0.7570 -0.4990
 2971TIP3    H230405   1.384   2.581  14.348  0.0805  0.0425  1.0194
 2972TIP3   OH230406   1.087   4.692  15.887 -0.3147  0.6666 -0.6247
 2972TIP3    H130407   1.099   4.783  15.914 -1.9762  0.8516 -0.3746
 2972TIP3    H230408   1.065   4.646  15.968  0.5525  0.0280 -0.7456
 2973TIP3   OH230409   0.517   3.083  11.771 -0.4261 -0.1448 -0.0712
 2973TIP3    H130410   0.519   3.098  11.676 -0.7167 -1.6403 -0.3283
 2973TIP3    H230411   0.608   3.069  11.795 -0.1571  1.6796  0.1543
 2974TIP3   OH230412   2.589   4.106  11.161  0.3074 -0.5233  0.2715
 2974TIP3    H130413   2.558   4.043  11.095  1.1212 -2.3586  1.5576
 2974TIP3    H230414   2.682   4.086  11.171  0.7225  1.2970  0.3436
 2975TIP3   OH230415   3.251   1.539   3.898 -0.8135 -0.2023  0.3849
 2975TIP3    H130416   3.293   1.592   3.830 -0.4188 -0.9942 -0.0104
 2975TIP3    H230417   3.199   1.475   3.849 -0.8060 -0.5588  0.8370
 2976TIP3   OH230418   1.147   2.884   0.477  0.1383 -0.6104  0.5437
 2976TIP3    H130419   1.178   2.794   0.488  2.0632  0.1045  1.4123
 2976TIP3    H230420   1.145   2.896   0.382 -0.1990 -1.5729  0.4107
 2977TIP3   OH230421   5.080   6.543  10.771  0.3797 -0.1570 -0.2527
 2977TIP3    H130422   5.019   6.579  10.834  1.2758 -0.6226  0.9106
 2977TIP3    H230423   5.127   6.619  10.736  0.0214  0.0797 -0.2215
 2978TIP3   OH230424   1.260   2.470   0.708 -0.2594  0.4113  0.2665
 2978TIP3    H130425   1.194   2.400   0.712  1.7999 -1.6572  0.0523
 2978TIP3    H230426   1.220   2.543   0.755 -3.2138 -0.2555 -0.9987
 2979TIP3   OH230427   0.918   5.935  12.184  0.2471 -0.0155  0.2918
 2979TIP3    H130428   0.967   5.952  12.265 -1.9830 -2.0771  2.2456
 2979TIP3    H230429   0.984   5.904  12.122  1.8214 -0.0194  1.8833
 2980TIP3   OH230430   0.593   1.275  16.489  0.2942  0.4755  0.0873
 2980TIP3    H130431   0.540   1.328  16.429  0.1731  0.1656 -0.0830
 2980TIP3    H230432   0.644   1.218  16.431  0.8238  0.7800  0.2511
 2981TIP3   OH230433   1.073   6.010  12.883  0.3091  0.0729 -0.0613
 2981TIP3    H130434   1.158   6.053  12.889  0.6344 -0.1711 -2.0884
 2981TIP3    H230435   1.081   5.953  12.806 -1.7579  0.2393 -0.4437
 2982TIP3   OH230436   0.581   1.673   3.743  0.1749  0.0956  0.2172
 2982TIP3    H130437   0.618   1.660   3.830 -0.0639  0.7796  0.4239
 2982TIP3    H230438   0.587   1.767   3.728  0.7377 -0.0711 -0.7412
 2983TIP3   OH230439   5.031   2.469  15.354  0.2296 -0.1524 -0.0356
 2983TIP3    H130440   5.093   2.456  15.426  0.3345 -1.6493 -0.3662
 2983TIP3    H230441   5.015   2.563  15.354  0.0435 -0.1189  2.1048
 2984TIP3   OH230442   1.133   5.443   4.229  0.3002 -0.5467 -0.2711
 2984TIP3    H130443   1.065   5.476   4.288 -1.9113 -0.0125 -2.9304
 2984TIP3    H230444   1.206   5.505   4.240  0.4883 -1.1066  2.6009
 2985TIP3   OH230445   4.210   3.092  16.735  0.1614 -0.3720  0.2507
 2985TIP3    H130446   4.262   3.017  16.765 -2.4145 -2.3415  0.1125
 2985TIP3    H230447   4.161   3.058  16.660 -1.7766  1.1768  0.7602
 2986TIP3   OH230448   5.755   2.830   1.387  0.3072 -0.1571  0.3305
 2986TIP3    H130449   5.748   2.751   1.333 -1.6555 -1.6641  2.5769
 2986TIP3    H230450   5.784   2.898   1.326  2.5091 -2.6281 -1.6493
 2987TIP3   OH230451   3.118   3.209   1.591  0.6932  0.3378 -0.2528
 2987TIP3    H130452   3.148   3.299   1.604 -0.7586  0.8106 -0.0508
 2987TIP3    H230453   3.093   3.179   1.678 -1.0451  0.5731 -0.6426
 2988TIP3   OH230454   2.461   3.578   6.569 -0.4749  0.1745 -0.7946
 2988TIP3    H130455   2.464   3.528   6.651  2.7182  1.5158  0.0947
 2988TIP3    H230456   2.546   3.561   6.529 -0.6025  2.2892 -2.0687
 2989TIP3   OH230457   4.508   1.946  11.301  0.4264  0.0998 -0.2085
 2989TIP3    H130458   4.452   1.990  11.364  1.5079  1.4443 -0.1423
 2989TIP3    H230459   4.477   1.976  11.216 -0.5665 -1.1547 -0.3239
 2990TIP3   OH230460   1.739   2.597   2.261  0.6544 -0.1052  0.7344
 2990TIP3    H130461   1.761   2.654   2.187 -0.1119 -0.5946  0.1111
 2990TIP3    H230462   1.732   2.657   2.335  0.2558  0.5755  0.1697
 2991TIP3   OH230463   1.281   6.591   3.708 -0.4269  0.3504 -0.1239
 2991TIP3    H130464   1.274   6.571   3.615  0.1489  1.2028 -0.3624
 2991TIP3    H230465   1.338   6.668   3.712  1.5384 -1.0946  1.1106
 2992TIP3   OH230466   1.681   5.596  17.177 -0.8055 -0.2287 -0.5841
 2992TIP3    H130467   1.694   5.553  17.092 -0.9930 -1.5262  0.0235
 2992TIP3    H230468   1.587   5.613  17.180 -0.4953  1.9811 -1.6137
 2993TIP3   OH230469   2.526   0.066   2.899 -0.2352  0.7446 -0.6247
 2993TIP3    H130470   2.452   0.073   2.959 -0.3663 -0.6210 -0.5820
 2993TIP3    H230471   2.490   0.025   2.821  0.7264 -1.3881 -0.0257
 2994TIP3   OH230472   4.824   3.518   0.532  0.1594  0.3590 -0.1490
 2994TIP3    H130473   4.849   3.428   0.553 -0.1325  0.3269  0.0807
 2994TIP3    H230474   4.822   3.521   0.437 -1.6517 -0.4169 -0.1825
 2995TIP3   OH230475   5.248   0.127  16.292  0.5076  0.9265 -0.2200
 2995TIP3    H130476   5.304   0.170  16.357  1.4085 -0.7659  0.1683
 2995TIP3    H230477   5.217   0.199  16.236  1.5729  2.1285  0.6773
 2996TIP3   OH230478   0.901   4.381   5.876 -0.1224 -0.2606 -0.4491
 2996TIP3    H130479   0.928   4.426   5.956 -0.3480 -1.2258  0.1983
 2996TIP3    H230480   0.977   4.384   5.819  0.7779 -1.3510  0.6307
 2997TIP3   OH230481   3.648   2.153  14.143 -0.2962  0.3214  0.4618
 2997TIP3    H130482   3.729   2.160  14.093  0.8513  0.3638  2.2689
 2997TIP3    H230483   3.669   2.095  14.216 -2.9226 -2.7102 -0.9292
 2998TIP3   OH230484   5.033   4.379   6.426  0.2281 -0.7229 -0.2357
 2998TIP3    H130485   5.018   4.473   6.435  1.4826 -0.1199 -3.2529
 2998TIP3    H230486   4.955   4.339   6.465 -0.2209  1.5045  1.3684
 2999TIP3   OH230487   6.214   2.214  16.151 -0.3146  0.0911  0.1342
 2999TIP3    H130488   6.275   2.273  16.196  0.8757 -0.4171 -0.7395
 2999TIP3    H230489   6.220   2.240  16.059 -2.6673  1.0810  0.2000
 3000TIP3   OH230490   5.823   0.379  15.342 -0.3378 -0.0969  0.4317
 3000TIP3    H130491   5.796   0.458  15.296  0.5182  0.2013  0.4194
 3000TIP3    H230492   5.908   0.401  15.380  0.2778 -1.2412 -0.2055
 3001TIP3   OH230493   3.008   1.039  15.783 -0.6669 -0.0062  0.0452
 3001TIP3    H130494   3.094   1.000  15.768 -0.3054  0.7201  0.2183
 3001TIP3    H230495   2.986   1.013  15.873  0.4115  1.7241  0.8529
 3002TIP3   OH230496   3.987   0.401  12.738  0.6706  0.0451 -0.0383
 3002TIP3    H130497   4.056   0.351  12.695  0.5705 -0.7074  0.6586
 3002TIP3    H230498   4.032   0.446  12.810  0.3302 -1.0152  0.8663
 3003TIP3   OH230499   2.500   4.788  13.646  0.6807  0.2314  0.1162
 3003TIP3    H130500   2.429   4.724  13.654  0.5153 -0.0171 -2.6248
 3003TIP3    H230501   2.461   4.870  13.676  0.1694 -0.4389  1.3944
 3004TIP3   OH230502   4.203   4.181   4.479  0.1900  0.2614 -0.6769
 3004TIP3    H130503   4.235   4.253   4.425 -1.6004  1.0659 -0.7294
 3004TIP3    H230504   4.281   4.144   4.519  1.0628  3.3392  0.7252
 3005TIP3   OH230505   0.463   0.447   4.526  0.8917  0.6726 -0.1444
 3005TIP3    H130506   0.506   0.397   4.596 -0.1133  0.4469  0.3323
 3005TIP3    H230507   0.532   0.464   4.463  1.7636  0.6319  0.7696
 3006TIP3   OH230508   2.987   5.621  13.730  0.1792  0.4601  0.1816
 3006TIP3    H130509   2.952   5.548  13.681  0.1063  0.6169  0.0001
 3006TIP3    H230510   3.063   5.585  13.776  0.9293  0.5760 -0.9250
 3007TIP3   OH230511   5.998   5.629  13.554  0.3579 -0.0070 -0.1514
 3007TIP3    H130512   5.974   5.687  13.482  1.9286 -0.2616 -0.9147
 3007TIP3    H230513   5.947   5.550  13.539 -1.9522  1.1744  1.0054
 3008TIP3   OH230514   5.876   0.844  17.462  0.3912  0.0206 -0.9022
 3008TIP3    H130515   5.955   0.804  17.499 -0.7062 -1.8729 -0.4874
 3008TIP3    H230516   5.848   0.907  17.529  0.6916 -0.4470 -0.3198
 3009TIP3   OH230517   0.154   0.254  16.275  0.0498 -0.5116  0.0319
 3009TIP3    H130518   0.117   0.205  16.349  0.4472 -0.2039  0.4423
 3009TIP3    H230519   0.249   0.241  16.284  0.1230 -0.1146 -0.1740
 3010TIP3   OH230520   0.113   3.310   1.332  0.2135 -0.7684 -0.2170
 3010TIP3    H130521   0.063   3.334   1.253 -0.1553 -1.4976 -0.2168
 3010TIP3    H230522   0.053   3.255   1.382  0.0324  0.5986  1.1329
 3011TIP3   OH230523   3.031   3.343   3.667 -0.5505  0.0022  0.3964
 3011TIP3    H130524   3.126   3.335   3.662 -0.2947  2.8616 -1.3458
 3011TIP3    H230525   2.999   3.292   3.592 -0.3745 -0.5025  0.6589
 3012TIP3   OH230526   5.408   1.644  15.743 -0.8443  0.1862 -0.0314
 3012TIP3    H130527   5.355   1.579  15.789  0.0434 -1.0736 -0.7309
 3012TIP3    H230528   5.346   1.691  15.687 -1.7175  0.8752  1.4602
 3013TIP3   OH230529   6.244   6.668  13.430  0.1150  0.1943 -0.4320
 3013TIP3    H130530   6.156   6.704  13.428  0.1473  0.2694 -0.5044
 3013TIP3    H230531   6.273   6.680  13.520  0.4546  1.1330 -0.6635
 3014TIP3   OH230532   2.665   1.316   0.156  0.2533  0.0934 -1.0533
 3014TIP3    H130533   2.608   1.305   0.079  0.6696 -2.1403 -1.1191
 3014TIP3    H230534   2.605   1.343   0.226 -0.9656 -2.0305 -1.1607
 3015TIP3   OH230535   3.327   4.438  10.678 -0.1798 -0.3280 -0.1614
 3015TIP3    H130536   3.254   4.470  10.731  1.0713  1.3711  0.6395
 3015TIP3    H230537   3.287   4.377  10.616 -2.2940  0.6882  0.1156
 3016TIP3   OH230538   6.707   4.919   1.905  0.2103 -0.3558  0.9475
 3016TIP3    H130539   6.665   4.891   1.986  0.7477 -0.2899  1.2512
 3016TIP3    H230540   6.797   4.886   1.911  0.2876 -0.2487  0.4341
 3017TIP3   OH230541   2.226   0.542   1.029 -0.4726 -0.0138  0.2528
 3017TIP3    H130542   2.283   0.466   1.021  0.4058  0.4390  1.8704
 3017TIP3    H230543   2.283   0.617   1.015 -1.0100  0.3920  0.2097
 3018TIP3   OH230544   6.029   3.232  14.521 -0.3134  0.2267 -0.1216
 3018TIP3    H130545   6.086   3.289  14.573 -0.6862 -1.7932  2.7921
 3018TIP3    H230546   6.043   3.145  14.558 -3.3412 -0.7927 -1.0620
 3019TIP3   OH230547   2.198   4.540  17.379  0.8801  0.4390 -0.4196
 3019TIP3    H130548   2.123   4.537  17.440  0.9252  0.8512 -0.3418
 3019TIP3    H230549   2.248   4.617  17.407  1.6356 -0.1489 -0.1176
 3020TIP3   OH230550   4.524   0.150  12.349 -0.4808 -0.4956  0.0796
 3020TIP3    H130551   4.568   0.162  12.265  0.2584 -1.1867  0.3628
 3020TIP3    H230552   4.441   0.108  12.327  0.2917 -1.9173 -0.1912
 3021TIP3   OH230553   2.283   1.449  13.595  0.8010 -0.0220 -0.6147
 3021TIP3    H130554   2.353   1.512  13.580  0.8015  0.1455  0.0398
 3021TIP3    H230555   2.326   1.363  13.592  0.9510  0.0565 -0.6891
 3022TIP3   OH230556   2.584   0.945   3.630  0.7388  0.2780  0.1093
 3022TIP3    H130557   2.576   1.026   3.680  0.0822  1.2123 -1.4360
 3022TIP3    H230558   2.647   0.966   3.561 -0.5240 -0.0303 -1.1840
 3023TIP3   OH230559   3.749   0.510  12.999  0.1541  0.7335 -0.1541
 3023TIP3    H130560   3.697   0.556  12.934  1.0201 -0.2679 -1.6103
 3023TIP3    H230561   3.720   0.419  12.994  0.7603  0.5048  0.3011
 3024TIP3   OH230562   4.121   5.590   4.567 -0.9589  0.0093 -0.0267
 3024TIP3    H130563   4.078   5.674   4.586 -2.2008 -0.5214 -0.3382
 3024TIP3    H230564   4.114   5.581   4.472  2.9931  1.4854 -0.6466
 3025TIP3   OH230565   6.692   3.328  12.539  0.1032  0.3422 -0.2172
 3025TIP3    H130566   6.694   3.324  12.444 -0.5688 -0.7409 -0.2102
 3025TIP3    H230567   6.768   3.380  12.563  0.3570  0.5084 -1.3414
 3026TIP3   OH230568   2.809   1.420   6.276  0.0151  0.0723 -0.4884
 3026TIP3    H130569   2.779   1.416   6.367 -0.1339  1.1441 -0.4876
 3026TIP3    H230570   2.866   1.343   6.267 -1.3582 -1.0596 -0.0076
 3027TIP3   OH230571   6.213   0.458   3.095  0.0250 -0.2121  0.2396
 3027TIP3    H130572   6.220   0.431   3.187  1.0925 -2.5500 -0.4344
 3027TIP3    H230573   6.137   0.409   3.062 -0.0728  0.2565 -0.2318
 3028TIP3   OH230574   2.572   6.186  12.478 -0.0614 -0.6330 -0.1208
 3028TIP3    H130575   2.559   6.144  12.563  1.3665 -0.2807  0.3058
 3028TIP3    H230576   2.546   6.277  12.493 -2.0377 -1.0580 -0.7272
 3029TIP3   OH230577   4.742   4.414   2.194 -0.4634  0.2448 -0.3980
 3029TIP3    H130578   4.837   4.418   2.187 -0.3982  2.9227  0.7328
 3029TIP3    H230579   4.710   4.446   2.109 -0.2973  0.7654 -0.2705
 3030TIP3   OH230580   4.561   3.535  16.511  0.1825 -0.1179  0.6333
 3030TIP3    H130581   4.547   3.478  16.587  0.2387 -0.3537  0.4680
 3030TIP3    H230582   4.532   3.621  16.540 -0.0565 -0.2637  0.8352
 3031TIP3   OH230583   1.173   0.483  17.053 -0.2583  0.8248  0.0980
 3031TIP3    H130584   1.083   0.496  17.083  0.3867  0.3592  2.4748
 3031TIP3    H230585   1.178   0.389  17.034 -0.4572  0.9848 -0.7824
 3032TIP3   OH230586   6.572   3.772  17.135 -0.3963 -0.7579  0.1829
 3032TIP3    H130587   6.667   3.773  17.130 -0.4178 -0.3737 -0.2160
 3032TIP3    H230588   6.543   3.830  17.065 -0.8897  0.0713  1.0467
 3033TIP3   OH230589   0.173   3.688   4.485 -0.0093  0.7217 -0.0899
 3033TIP3    H130590   0.153   3.742   4.562  0.1913  1.1183 -0.3088
 3033TIP3    H230591   0.093   3.639   4.468  0.1641  0.1122  0.7819
 3034TIP3   OH230592   6.682   2.105   5.460  0.6683  0.1982 -0.0084
 3034TIP3    H130593   6.752   2.158   5.499  1.0745  0.8957 -1.5750
 3034TIP3    H230594   6.638   2.064   5.534  0.4577  2.5911  1.2962
 3035TIP3   OH230595   3.432   5.159   4.135  0.3995  0.4352 -0.0264
 3035TIP3    H130596   3.459   5.115   4.215 -0.4121 -1.1201 -0.5747
 3035TIP3    H230597   3.484   5.239   4.133  1.5762 -0.2627  1.2438
 3036TIP3   OH230598   3.838   3.085   1.697  0.1176  0.0600  0.3121
 3036TIP3    H130599   3.908   3.150   1.700  0.1430 -0.0103  1.9499
 3036TIP3    H230600   3.783   3.104   1.772 -2.1229  0.5929 -1.3494
 3037TIP3   OH230601   2.257   4.194  16.526  0.3457 -0.0059 -0.6817
 3037TIP3    H130602   2.290   4.207  16.615 -0.5492  0.0254 -0.3416
 3037TIP3    H230603   2.210   4.111  16.531 -1.4053  0.9403 -0.5957
 3038TIP3   OH230604   0.913   0.324   6.559  0.1439 -0.2617 -0.0566
 3038TIP3    H130605   0.864   0.394   6.516  0.2545 -0.0110  0.2223
 3038TIP3    H230606   0.923   0.353   6.649  1.8954  0.3025 -0.3779
 3039TIP3   OH230607   4.632   4.035   0.622  0.2647  0.7213 -0.2862
 3039TIP3    H130608   4.672   4.006   0.704  0.8278  0.3294 -0.6854
 3039TIP3    H230609   4.663   3.971   0.557 -0.5987  0.7191 -0.7065
 3040TIP3   OH230610   1.228   1.803  12.066  0.4068  0.5094  0.3255
 3040TIP3    H130611   1.321   1.813  12.045  0.3240 -0.5920 -0.7255
 3040TIP3    H230612   1.226   1.790  12.160  1.2037  1.6942  0.5309
 3041TIP3   OH230613   3.046   0.022   2.438 -0.1137 -0.4988 -0.8110
 3041TIP3    H130614   3.038  -0.059   2.488 -0.2230  0.2022  0.3404
 3041TIP3    H230615   2.961   0.065   2.448  0.5801  0.6791  0.2518
 3042TIP3   OH230616   4.116   4.808  11.272  0.0387  0.4153  0.1508
 3042TIP3    H130617   4.155   4.883  11.318  1.9004 -0.6469  0.3732
 3042TIP3    H230618   4.161   4.732  11.308 -0.9393 -0.7286 -0.9743
 3043TIP3   OH230619   1.457   0.274   2.362 -0.0429 -0.1331 -0.2897
 3043TIP3    H130620   1.420   0.261   2.449 -1.6674  1.5102 -0.6768
 3043TIP3    H230621   1.530   0.212   2.357  0.8412  0.5263  2.6496
 3044TIP3   OH230622   2.553   2.117  13.299  0.1335  0.0177 -0.3292
 3044TIP3    H130623   2.571   2.202  13.260  0.2801 -0.7307 -1.9819
 3044TIP3    H230624   2.569   2.054  13.228 -0.4407 -1.3502  0.7059
 3045TIP3   OH230625   5.270   5.054   3.343 -0.1189 -0.2535  0.4953
 3045TIP3    H130626   5.361   5.074   3.362 -0.3364 -0.1633  1.5095
 3045TIP3    H230627   5.221   5.094   3.415 -0.8626 -1.2217  0.5565
 3046TIP3   OH230628   2.147   6.742   4.428 -0.0854  0.2926  0.1625
 3046TIP3    H130629   2.152   6.649   4.409  0.2942 -0.4022  3.1053
 3046TIP3    H230630   2.054   6.759   4.441 -0.1747  0.3897 -0.5698
 3047TIP3   OH230631   2.357   5.029   0.444 -0.0311  0.8459 -0.7377
 3047TIP3    H130632   2.265   5.003   0.435 -0.0823  1.2547 -1.4744
 3047TIP3    H230633   2.354   5.122   0.469  0.1722  0.5354  0.5261
 3048TIP3   OH230634   3.186   5.415  13.089 -0.5593 -0.1333  0.2623
 3048TIP3    H130635   3.247   5.462  13.145  1.0950 -0.6106 -1.0679
 3048TIP3    H230636   3.238   5.347  13.047 -2.5999 -2.4017  1.1487
 3049TIP3   OH230637   0.546   1.426  13.300 -0.1479  0.2920 -0.4148
 3049TIP3    H130638   0.503   1.440  13.385  0.7003 -0.2915  0.1328
 3049TIP3    H230639   0.474   1.414  13.238 -0.8061  1.9258 -0.0140
 3050TIP3   OH230640   2.806   1.099  15.626 -0.0781  0.5563  0.1543
 3050TIP3    H130641   2.851   1.058  15.699  2.1019  3.1061  0.3909
 3050TIP3    H230642   2.858   1.177  15.607 -2.2395  1.5432 -2.2202
 3051TIP3   OH230643   6.106   1.860  10.947 -0.0943 -0.2675 -0.0172
 3051TIP3    H130644   6.074   1.774  10.974  1.5518 -1.3862 -1.4620
 3051TIP3    H230645   6.175   1.880  11.010  1.0481 -1.0697 -0.9730
 3052TIP3   OH230646   0.122   5.425  14.468 -0.2747 -0.1676  0.2733
 3052TIP3    H130647   0.145   5.516  14.487 -0.4045 -0.0015 -0.3392
 3052TIP3    H230648   0.130   5.418  14.373  0.6626 -1.0503  0.4013
 3053TIP3   OH230649   0.609   6.322  17.286  0.3863  0.2164 -0.4387
 3053TIP3    H130650   0.644   6.245  17.331  0.8926 -0.2132 -1.5322
 3053TIP3    H230651   0.678   6.348  17.225 -0.4248  0.5439 -1.2496
 3054TIP3   OH230652   1.762   0.555  10.752 -0.3541 -0.2040 -0.1765
 3054TIP3    H130653   1.753   0.508  10.835 -1.9824 -0.7072 -0.5871
 3054TIP3    H230654   1.843   0.605  10.760  0.0176 -1.0063  1.3267
 3055TIP3   OH230655   2.192   0.329  16.943  0.4306 -0.1919 -0.2550
 3055TIP3    H130656   2.188   0.239  16.974  1.1871  0.0509  0.5935
 3055TIP3    H230657   2.121   0.336  16.879 -0.2027 -1.1296  0.3319
 3056TIP3   OH230658   4.624   6.657   3.794  0.2489  0.0078 -0.7229
 3056TIP3    H130659   4.540   6.697   3.817 -0.3691 -1.7670  0.2428
 3056TIP3    H230660   4.608   6.616   3.709 -0.4052 -1.7030  0.1725
 3057TIP3   OH230661   1.199   1.231   1.807  0.2014  0.4768 -0.2224
 3057TIP3    H130662   1.263   1.285   1.852  0.4655  0.9265 -1.1118
 3057TIP3    H230663   1.249   1.181   1.742  0.1439 -1.7358  1.3092
 3058TIP3   OH230664   2.923   0.080   5.146  0.6123  0.0234  0.3976
 3058TIP3    H130665   3.012   0.112   5.158  1.0982 -1.9052  2.7375
 3058TIP3    H230666   2.931  -0.015   5.147 -1.3535 -0.2059 -0.6434
 3059TIP3   OH230667   0.985   1.330   0.018  0.2376 -0.2727  0.2141
 3059TIP3    H130668   0.943   1.244   0.018 -0.8749  0.2175 -1.3938
 3059TIP3    H230669   0.993   1.353  -0.074 -0.5011  1.8151  0.6115
 3060TIP3   OH230670   4.931   5.385  11.589 -0.2108 -0.0364  0.6128
 3060TIP3    H130671   5.019   5.406  11.557 -0.7095 -0.3126 -0.9857
 3060TIP3    H230672   4.883   5.355  11.512 -1.4747 -0.7026  1.6152
 3061TIP3   OH230673   2.399   4.378   2.318 -0.0879  0.0014 -0.4771
 3061TIP3    H130674   2.373   4.297   2.361  0.0083  0.9617  1.4532
 3061TIP3    H230675   2.483   4.357   2.276 -0.8802 -1.3401 -1.4823
 3062TIP3   OH230676   0.157   0.753   6.622 -0.6503  0.8211 -0.0735
 3062TIP3    H130677   0.149   0.672   6.571 -1.6583  0.4184  0.6926
 3062TIP3    H230678   0.208   0.728   6.699  0.4918  1.3275 -0.6458
 3063TIP3   OH230679   4.942   4.632   2.874 -0.3374 -0.4471  0.2005
 3063TIP3    H130680   4.954   4.606   2.965 -0.6176 -0.7860  0.1443
 3063TIP3    H230681   4.966   4.725   2.872 -2.0585  0.0609  1.0071
 3064TIP3   OH230682   3.692   0.722  12.410 -0.5895  0.1131 -0.3860
 3064TIP3    H130683   3.741   0.736  12.492  1.5072 -0.1949 -1.5160
 3064TIP3    H230684   3.622   0.661  12.435  0.0797 -0.0823  1.1611
 3065TIP3   OH230685   0.703   5.840  11.519  0.6516  0.1197  0.0656
 3065TIP3    H130686   0.689   5.921  11.569 -0.3242 -1.1359  1.9370
 3065TIP3    H230687   0.762   5.866  11.448  2.9056  1.8451  2.3850
 3066TIP3   OH230688   1.377   2.997   2.004  1.0378 -0.1089  0.0824
 3066TIP3    H130689   1.410   3.070   1.951  1.5272 -0.3941 -0.0073
 3066TIP3    H230690   1.298   3.032   2.046  0.7880  0.2008 -0.6314
 3067TIP3   OH230691   6.562   2.395  14.245 -0.4184  0.5928  0.5026
 3067TIP3    H130692   6.577   2.316  14.298 -1.9459 -0.2156 -0.2241
 3067TIP3    H230693   6.642   2.403  14.193  0.8571  1.0543  2.4328
 3068TIP3   OH230694   5.144   4.207   3.269 -0.1828  0.1877  0.1528
 3068TIP3    H130695   5.131   4.113   3.263  0.7432  0.0516  0.1316
 3068TIP3    H230696   5.179   4.232   3.183  2.6861 -0.0084  1.1549
 3069TIP3   OH230697   3.552   3.154  14.984 -0.5468 -0.0751  0.5009
 3069TIP3    H130698   3.630   3.102  15.002 -0.2929  0.7181  1.8219
 3069TIP3    H230699   3.525   3.187  15.070 -0.3599  2.4449 -0.3188
 3070TIP3   OH230700   5.596   2.531  16.653 -0.4186  0.1181  0.8402
 3070TIP3    H130701   5.505   2.550  16.631 -0.4006  1.2906  1.6855
 3070TIP3    H230702   5.592   2.495  16.742 -0.0387  0.4770  1.0067
 3071TIP3   OH230703   1.213   6.135  11.525 -0.2768 -0.6135  0.3286
 3071TIP3    H130704   1.249   6.209  11.476 -0.5475 -1.1459 -0.6905
 3071TIP3    H230705   1.125   6.123  11.491  0.4754 -2.7267 -1.0777
 3072TIP3   OH230706   0.918   4.712   0.536 -0.0217 -0.7759  0.4463
 3072TIP3    H130707   1.005   4.679   0.556 -0.1191 -0.9361  0.6107
 3072TIP3    H230708   0.861   4.635   0.540 -0.3664 -0.4872  1.5343
 3073TIP3   OH230709   3.774   4.852   1.423 -0.2266  0.5083 -0.2217
 3073TIP3    H130710   3.779   4.861   1.328  2.4210 -0.7591 -0.3006
 3073TIP3    H230711   3.799   4.938   1.456 -0.3047  0.7162 -0.6917
 3074TIP3   OH230712   4.832   3.934   2.684 -0.4315 -0.8096 -0.4244
 3074TIP3    H130713   4.750   3.977   2.705  1.3223  2.0463  1.2936
 3074TIP3    H230714   4.855   3.886   2.763  0.6962  0.5243  0.1056
 3075TIP3   OH230715   4.264   0.085  12.282  0.1092 -0.2308 -0.0605
 3075TIP3    H130716   4.192   0.072  12.220 -0.0038  1.0654 -0.2297
 3075TIP3    H230717   4.228   0.057  12.367  0.0163 -1.2913 -0.4342
 3076TIP3   OH230718   3.363   3.268   3.134 -0.0755 -0.0857 -0.1946
 3076TIP3    H130719   3.307   3.334   3.094 -0.5670 -0.4714 -0.1582
 3076TIP3    H230720   3.424   3.318   3.189  0.4788  0.4347 -1.2449
 3077TIP3   OH230721   1.597   0.870   6.744  0.1781 -0.0152 -0.1706
 3077TIP3    H130722   1.627   0.827   6.664 -0.0434  0.5699 -0.5750
 3077TIP3    H230723   1.502   0.876   6.733  0.3369  1.9424 -0.8277
 3078TIP3   OH230724   3.965   4.686  13.678  0.4984  0.1896  0.3478
 3078TIP3    H130725   3.873   4.706  13.663  0.2098 -1.6827 -0.7385
 3078TIP3    H230726   3.969   4.655  13.769  0.2039  0.9309  0.6190
 3079TIP3   OH230727   0.683   5.656   2.315  0.1423 -0.3432  0.2598
 3079TIP3    H130728   0.593   5.667   2.345 -0.0154 -0.1148 -0.2845
 3079TIP3    H230729   0.706   5.740   2.275  0.0659 -0.8835 -0.9673
 3080TIP3   OH230730   0.981   0.669  14.959 -0.2542 -0.1242 -0.6541
 3080TIP3    H130731   1.024   0.599  14.910  0.9526  1.8748 -2.6287
 3080TIP3    H230732   1.050   0.706  15.013 -0.5328  0.4222 -0.6710
 3081TIP3   OH230733   2.647   1.110  14.044  0.0439 -0.4120 -0.8701
 3081TIP3    H130734   2.617   1.087  13.956 -2.0954  0.6618 -0.4884
 3081TIP3    H230735   2.655   1.205  14.043  1.4316 -0.5035 -0.3047
 3082TIP3   OH230736   0.460   6.027  11.274 -0.3709  0.3051  0.0031
 3082TIP3    H130737   0.535   6.066  11.229 -1.0162 -1.5300 -2.9711
 3082TIP3    H230738   0.463   5.934  11.249 -2.1220 -0.3937  2.0401
 3083TIP3   OH230739   3.627   6.139  13.284 -0.1602 -0.3046  0.3674
 3083TIP3    H130740   3.653   6.049  13.304 -0.3316 -0.8544 -1.6267
 3083TIP3    H230741   3.556   6.130  13.220 -1.0675  1.2492  1.0990
 3084TIP3   OH230742   3.247   1.642  12.093  0.2061 -0.5645  0.5959
 3084TIP3    H130743   3.216   1.593  12.017  1.0046 -2.0955  1.2283
 3084TIP3    H230744   3.340   1.655  12.077 -0.0061  0.9195  0.3776
 3085TIP3   OH230745   3.942   4.914  12.779 -0.1605 -0.4473  1.1144
 3085TIP3    H130746   3.856   4.883  12.751  0.1121 -1.4033  1.2922
 3085TIP3    H230747   3.943   5.007  12.754  0.2300 -1.2643 -2.5534
 3086TIP3   OH230748   6.429   3.122  14.771  0.9634 -0.1143  0.1864
 3086TIP3    H130749   6.447   3.092  14.860  1.8471  0.4326  0.2078
 3086TIP3    H230750   6.424   3.042  14.719  1.7824 -0.3742  0.4947
 3087TIP3   OH230751   4.133   2.756   0.036  0.4875  0.1836 -0.4386
 3087TIP3    H130752   4.137   2.852   0.029 -0.7847  0.4393  1.5727
 3087TIP3    H230753   4.045   2.734   0.006 -0.3599  0.0307  1.9345
 3088TIP3   OH230754   3.797   1.730   2.677 -0.6740 -0.3905 -0.1268
 3088TIP3    H130755   3.826   1.643   2.703 -1.7894 -0.6410  0.3537
 3088TIP3    H230756   3.703   1.720   2.660 -0.6642  0.5497 -0.8290
 3089TIP3   OH230757   0.394   3.578   1.939  0.3922 -0.7002  0.1009
 3089TIP3    H130758   0.478   3.624   1.936  0.6668 -1.2452 -1.6974
 3089TIP3    H230759   0.353   3.597   1.855 -1.6862  0.1970  1.2497
 3090TIP3   OH230760   3.959   0.220   2.109  0.1898  0.2490  0.0762
 3090TIP3    H130761   4.035   0.188   2.062  0.7248  0.5142  0.7315
 3090TIP3    H230762   3.939   0.151   2.173  0.4167  0.5532  0.4807
 3091TIP3   OH230763   6.507   5.981  13.480  0.3203  0.3904  0.0530
 3091TIP3    H130764   6.437   5.942  13.533  0.4674  1.0260  0.7237
 3091TIP3    H230765   6.461   6.040  13.420 -0.0820 -1.9620 -2.1202
 3092TIP3   OH230766   0.947   5.048   4.930  0.1899 -0.1873  0.3362
 3092TIP3    H130767   0.900   5.095   4.999  1.1248  0.4934  0.5389
 3092TIP3    H230768   0.881   5.030   4.864 -0.2144  1.4430  0.2485
 3093TIP3   OH230769   4.960   1.044  12.108  0.1801 -0.0238 -0.3926
 3093TIP3    H130770   5.038   1.093  12.081 -0.9270  3.0249  1.4209
 3093TIP3    H230771   4.994   0.973  12.162  1.7867 -0.0785 -1.4043
 3094TIP3   OH230772   0.090   4.661  14.941  0.2713  0.6469  0.2622
 3094TIP3    H130773   0.110   4.614  15.022 -1.4763 -0.1456  0.2819
 3094TIP3    H230774   0.161   4.724  14.932  0.6526  0.5961  2.2933
 3095TIP3   OH230775   1.996   4.903  13.371 -0.4581  0.4912  0.5482
 3095TIP3    H130776   1.915   4.866  13.405 -0.4954  1.4729  1.5696
 3095TIP3    H230777   1.990   4.889  13.276 -2.6501  2.0511  0.3700
 3096TIP3   OH230778   5.502   0.414  17.420 -0.2944  0.5793  0.7988
 3096TIP3    H130779   5.414   0.449  17.409  0.7112  2.5749 -1.9024
 3096TIP3    H230780   5.560   0.488  17.401  1.9738 -1.5940 -1.5273
 3097TIP3   OH230781   4.469   5.516  17.321  0.0154 -0.3676 -0.3787
 3097TIP3    H130782   4.439   5.448  17.261 -0.5513  1.0882 -1.8481
 3097TIP3    H230783   4.451   5.481  17.409 -0.0439 -2.1608 -1.0724
 3098TIP3   OH230784   0.383   1.165   0.437 -0.0804 -0.8736  0.3874
 3098TIP3    H130785   0.296   1.162   0.478 -1.1020  1.8584 -1.3379
 3098TIP3    H230786   0.441   1.199   0.505 -0.6940 -1.1707  1.0691
 3099TIP3   OH230787   3.321   4.113  16.987  0.2624  0.1357  0.2199
 3099TIP3    H130788   3.385   4.042  16.988 -1.6621 -1.7689  3.1627
 3099TIP3    H230789   3.257   4.086  16.922  0.3897  0.0495  0.1293
 3100TIP3   OH230790   6.106   1.171  14.734  0.1186  0.2021 -0.4395
 3100TIP3    H130791   6.093   1.263  14.757 -0.2784 -0.7669  4.1984
 3100TIP3    H230792   6.018   1.133  14.738  0.6040 -0.8601  0.5247
 3101TIP3   OH230793   1.086   5.056  14.748 -0.3660  0.2616 -0.2878
 3101TIP3    H130794   1.094   5.019  14.659 -2.8639  0.3882 -0.6299
 3101TIP3    H230795   1.145   5.002  14.801  0.9662 -0.0063 -1.9378
 3102TIP3   OH230796   6.470   1.026   5.710  0.2058  0.0224  0.3893
 3102TIP3    H130797   6.526   0.956   5.677 -0.0530  0.6302 -1.4546
 3102TIP3    H230798   6.395   1.027   5.651 -0.4557  0.9682  1.2045
 3103TIP3   OH230799   0.500   5.615   1.062 -0.1249 -0.1291  0.0520
 3103TIP3    H130800   0.591   5.595   1.042  0.0866 -1.4883  2.1013
 3103TIP3    H230801   0.453   5.533   1.047 -0.8941  0.3654 -0.2986
 3104TIP3   OH230802   0.054   3.414   3.556  0.1349 -0.1052  0.3440
 3104TIP3    H130803   0.115   3.458   3.615  0.8771 -0.2552 -0.3000
 3104TIP3    H230804   0.109   3.369   3.493 -0.6411 -0.8446  0.1779
 3105TIP3   OH230805   6.764   2.695   3.559 -0.0356 -0.0102 -0.4737
 3105TIP3    H130806   6.853   2.666   3.577  0.0666 -0.4482 -1.5843
 3105TIP3    H230807   6.766   2.726   3.468 -1.1702 -0.6755 -0.7481
 3106TIP3   OH230808   6.615   4.723   3.151  0.1738  0.2680  0.4023
 3106TIP3    H130809   6.682   4.706   3.217 -0.2867  0.0852  0.8214
 3106TIP3    H230810   6.627   4.816   3.130 -0.2027  0.5365  1.3330
 3107TIP3   OH230811   6.245   0.797  13.051 -0.6880  0.5869  0.1427
 3107TIP3    H130812   6.278   0.725  12.997  0.8369  0.6241  0.9645
 3107TIP3    H230813   6.272   0.876  13.004 -0.0005  0.6169  0.5774
 3108TIP3   OH230814   4.214   1.079  10.498 -0.0405 -0.1397 -0.4717
 3108TIP3    H130815   4.220   1.009  10.563  0.2446  0.5499  0.2723
 3108TIP3    H230816   4.121   1.099  10.494  0.1267  1.3819  1.5082
 3109TIP3   OH230817   4.311   5.996   4.967  0.5179 -0.2179  0.3770
 3109TIP3    H130818   4.383   6.053   4.995 -0.1370  0.3004  1.0241
 3109TIP3    H230819   4.296   5.938   5.041  1.6015 -1.6969 -0.5046
 3110TIP3   OH230820   5.119   1.473   4.046  0.1729  0.1974  0.2262
 3110TIP3    H130821   5.088   1.558   4.017  0.6813  0.9868  1.9047
 3110TIP3    H230822   5.197   1.456   3.993 -1.5360 -0.6550 -2.2234
 3111TIP3   OH230823   1.094   4.496  12.929  0.6612 -0.7218  0.1572
 3111TIP3    H130824   1.189   4.487  12.935  0.6652  0.0234  1.6614
 3111TIP3    H230825   1.074   4.477  12.837  2.3405 -0.1883 -0.3606
 3112TIP3   OH230826   5.225   4.068   3.538 -0.2687  0.3220  0.7447
 3112TIP3    H130827   5.180   4.009   3.477 -0.8239  0.8657  0.6188
 3112TIP3    H230828   5.154   4.112   3.585  0.1477 -0.0805  1.7871
 3113TIP3   OH230829   3.977   1.329  15.711 -0.1271 -0.3184  0.2875
 3113TIP3    H130830   4.025   1.382  15.649 -0.4980 -0.2370  0.0649
 3113TIP3    H230831   3.990   1.239  15.682 -0.7175 -0.2472 -0.2107
 3114TIP3   OH230832   4.685   1.989   6.036 -0.1425 -0.0991 -0.2358
 3114TIP3    H130833   4.679   1.913   6.094  1.0439 -1.1222 -1.4153
 3114TIP3    H230834   4.632   1.965   5.960 -0.7367  0.7591 -0.1034
 3115TIP3   OH230835   5.868   0.799  12.247 -0.3239  0.4533  0.3545
 3115TIP3    H130836   5.813   0.838  12.315 -3.1757  0.5078 -1.8407
 3115TIP3    H230837   5.869   0.705  12.268 -0.8201  0.5227  0.7168
 3116TIP3   OH230838   5.148   6.098  14.436  0.1186  0.1971  0.2611
 3116TIP3    H130839   5.151   6.188  14.403 -1.3772  0.4663  0.8001
 3116TIP3    H230840   5.125   6.045  14.360  0.3642  0.3527  0.0794
 3117TIP3   OH230841   0.777   5.951  14.382  0.5512 -0.3777  0.3775
 3117TIP3    H130842   0.763   5.945  14.287 -0.1991  3.2109  0.0955
 3117TIP3    H230843   0.691   5.936  14.420  0.0853  1.4878  0.1625
 3118TIP3   OH230844   0.546   2.028  10.475 -0.4313  0.2314  0.4236
 3118TIP3    H130845   0.461   2.006  10.513  0.2573 -0.9239  1.3988
 3118TIP3    H230846   0.592   1.944  10.469  1.1468  0.9948  1.2075
 3119TIP3   OH230847   1.021   0.183   4.450  0.6359  0.3535  0.8739
 3119TIP3    H130848   1.088   0.137   4.501 -0.1779 -0.1221  1.5383
 3119TIP3    H230849   0.979   0.241   4.513  0.7071  0.9770  0.3566
 3120TIP3   OH230850   6.024   1.138   5.453 -0.7259 -0.6349 -0.2695
 3120TIP3    H130851   6.029   1.129   5.357 -0.6461 -0.1024 -0.3196
 3120TIP3    H230852   5.965   1.213   5.466  3.7916  3.4064 -0.0940
 3121TIP3   OH230853   0.176   5.686   1.893  0.2243 -0.2473  0.7084
 3121TIP3    H130854   0.127   5.641   1.824  0.6487  0.0169  0.2205
 3121TIP3    H230855   0.254   5.632   1.906  0.8984  0.4987 -0.1133
 3122TIP3   OH230856   0.313   6.340   5.664  0.0081  0.2621 -0.0690
 3122TIP3    H130857   0.260   6.342   5.584  0.8610  1.5417 -0.6418
 3122TIP3    H230858   0.375   6.413   5.654 -0.5911  1.1960  2.2554
 3123TIP3   OH230859   1.623   2.958   4.665 -0.7723  0.3778  0.1974
 3123TIP3    H130860   1.540   2.929   4.705 -0.8540  0.1593 -0.1316
 3123TIP3    H230861   1.678   2.980   4.740 -0.6649 -0.7394  0.4711
 3124TIP3   OH230862   4.451   0.676   2.269  0.1317  0.0367  0.0116
 3124TIP3    H130863   4.364   0.649   2.239  0.3675 -0.7777  0.0143
 3124TIP3    H230864   4.507   0.602   2.246  0.6390  0.1351  0.8903
 3125TIP3   OH230865   0.445   0.238  12.787 -0.0741 -0.5513  0.0470
 3125TIP3    H130866   0.492   0.321  12.785  1.9215 -1.6435 -0.0677
 3125TIP3    H230867   0.411   0.233  12.876  0.9921 -0.2419  0.4892
 3126TIP3   OH230868   0.819   4.497   0.828 -0.0881 -0.1859 -0.4420
 3126TIP3    H130869   0.755   4.491   0.756 -1.8216 -2.2297  1.1542
 3126TIP3    H230870   0.881   4.427   0.810  0.3028  0.2087 -0.6589
 3127TIP3   OH230871   3.075   5.697  12.251  0.2755 -0.6761 -0.0294
 3127TIP3    H130872   3.090   5.655  12.335 -0.7498 -1.2982 -0.1403
 3127TIP3    H230873   3.160   5.735  12.227  0.5189 -0.2908  1.3804
 3128TIP3   OH230874   2.955   4.485  11.728 -0.3455 -0.0398  0.4487
 3128TIP3    H130875   3.050   4.495  11.732 -0.5445  3.9841 -0.3632
 3128TIP3    H230876   2.922   4.533  11.804 -1.7503  0.2638 -0.3144
 3129TIP3   OH230877   1.868   1.907   0.417 -0.0087  0.1485 -0.1762
 3129TIP3    H130878   1.960   1.911   0.444 -0.2576  0.5591  0.6359
 3129TIP3    H230879   1.845   1.998   0.400 -0.3617  0.0846 -0.0351
 3130TIP3   OH230880   2.716   0.806  13.839  0.3551  0.0483  0.3774
 3130TIP3    H130881   2.642   0.761  13.799  0.5508  0.9313 -1.0825
 3130TIP3    H230882   2.763   0.738  13.887 -0.8027 -0.7377  0.4233
 3131TIP3   OH230883   6.108   2.760  10.649  0.1119  0.5367  0.0439
 3131TIP3    H130884   6.176   2.722  10.594 -0.9000  1.1398 -1.6824
 3131TIP3    H230885   6.138   2.849  10.667  0.8964  0.0438  1.3221
 3132TIP3   OH230886   1.006   1.794  17.225 -0.5230  0.5001 -0.2019
 3132TIP3    H130887   1.091   1.839  17.223  0.2614 -0.9217 -0.0137
 3132TIP3    H230888   1.025   1.709  17.264 -2.1620  0.3757  0.3969
 3133TIP3   OH230889   0.165   1.423   2.143 -0.2053  0.0449 -0.2581
 3133TIP3    H130890   0.194   1.451   2.230  0.3188  0.5555 -0.5820
 3133TIP3    H230891   0.173   1.328   2.144  1.2725  0.1388 -0.2339
 3134TIP3   OH230892   1.273   6.223   6.456  0.1483 -0.0302  0.9248
 3134TIP3    H130893   1.208   6.234   6.525 -1.0431 -0.4608 -0.0782
 3134TIP3    H230894   1.253   6.294   6.394 -0.8314 -1.4277 -0.4634
 3135TIP3   OH230895   0.665   4.193  13.323 -0.4500 -0.7732 -0.6390
 3135TIP3    H130896   0.704   4.197  13.411 -0.2758 -2.6115 -0.6065
 3135TIP3    H230897   0.677   4.282  13.288  1.9785 -0.7214  0.1321
 3136TIP3   OH230898   6.478   3.184  17.133 -0.1791  0.1448  0.3647
 3136TIP3    H130899   6.502   3.106  17.182 -0.0255 -0.7596 -1.0884
 3136TIP3    H230900   6.553   3.198  17.074 -0.3015  1.2692  0.4581
 3137TIP3   OH230901   0.037   2.805   0.014 -0.6433  0.1502 -0.0440
 3137TIP3    H130902   0.088   2.859  -0.046 -0.6643 -0.9089 -1.0623
 3137TIP3    H230903  -0.019   2.752  -0.044 -0.5687 -1.0031  0.8981
 3138TIP3   OH230904   3.843   6.233  12.450  0.3982  0.0411  0.3378
 3138TIP3    H130905   3.930   6.202  12.474  0.2320  0.0770  1.0052
 3138TIP3    H230906   3.787   6.204  12.522 -0.1383  0.0446 -0.0691
 3139TIP3   OH230907   3.278   3.955  12.282  0.4729  0.4107 -0.1439
 3139TIP3    H130908   3.233   3.992  12.207  0.1344  1.6588  0.6448
 3139TIP3    H230909   3.211   3.948  12.350  0.7531 -0.7681  0.0426
 3140TIP3   OH230910   2.534   1.901   1.669 -0.3137  0.5021 -0.6842
 3140TIP3    H130911   2.469   1.894   1.739  0.4310 -0.9312 -0.0812
 3140TIP3    H230912   2.601   1.959   1.705 -0.5471  0.8015 -0.7264
 3141TIP3   OH230913   2.894   6.605   5.989 -0.8127 -0.7846  0.1837
 3141TIP3    H130914   2.831   6.669   6.022  0.6724  1.4549 -1.0297
 3141TIP3    H230915   2.974   6.622   6.040 -0.7426 -2.6745  0.7946
 3142TIP3   OH230916   0.303   3.206  14.359  0.5387 -0.2799 -0.8897
 3142TIP3    H130917   0.393   3.177  14.376  0.7623  0.1239 -1.3665
 3142TIP3    H230918   0.306   3.301  14.369 -0.0697 -0.3412  0.1073
 3143TIP3   OH230919   6.116   4.984   4.074  0.3095  0.3643  0.6014
 3143TIP3    H130920   6.197   4.987   4.022 -0.2723 -0.9643 -0.4279
 3143TIP3    H230921   6.143   4.945   4.158  1.0746  1.6698  0.9952
 3144TIP3   OH230922   2.829   3.341   4.186  0.4420  1.0763 -0.4121
 3144TIP3    H130923   2.863   3.415   4.236  1.5669  0.6794 -0.5461
 3144TIP3    H230924   2.867   3.352   4.099  1.1082  0.0393 -0.2743
 3145TIP3   OH230925   3.385   5.728  14.813 -0.5935 -0.3565 -0.6839
 3145TIP3    H130926   3.431   5.767  14.739 -1.1779  1.7846  0.0036
 3145TIP3    H230927   3.313   5.788  14.831 -1.8348 -2.0191  0.2135
 3146TIP3   OH230928   2.599   0.088  15.635 -0.2323 -0.1341  0.3462
 3146TIP3    H130929   2.575   0.181  15.646 -0.5167 -0.0367 -0.9520
 3146TIP3    H230930   2.679   0.078  15.686 -0.3743  0.7548  0.7619
 3147TIP3   OH230931   0.933   2.881   1.968  0.3180  0.1318 -0.5978
 3147TIP3    H130932   0.848   2.925   1.971  0.3805  0.2167  0.8039
 3147TIP3    H230933   0.926   2.812   2.035  1.9020  1.2063  0.7556
 3148TIP3   OH230934   2.331   0.912  16.480 -0.2107 -0.4954  0.1917
 3148TIP3    H130935   2.254   0.952  16.438 -1.6305 -1.8243  1.4143
 3148TIP3    H230936   2.302   0.825  16.506  1.9087 -1.2536  0.2116
 3149TIP3   OH230937   5.406   2.084   3.128 -0.2482 -0.2205 -0.2277
 3149TIP3    H130938   5.368   1.996   3.136 -0.4746 -0.1523 -0.5721
 3149TIP3    H230939   5.444   2.100   3.214  0.2275 -0.8573 -0.3082
 3150TIP3   OH230940   6.185   2.041   2.958  0.1261  0.3109  0.0407
 3150TIP3    H130941   6.225   2.035   2.871 -0.4395  0.7514 -0.2576
 3150TIP3    H230942   6.190   2.134   2.981  1.2219  0.0473  0.9488
 3151TIP3   OH230943   5.856   4.279  13.216 -0.4703 -0.2448 -0.3839
 3151TIP3    H130944   5.766   4.256  13.235 -0.5106  1.2796  1.6803
 3151TIP3    H230945   5.904   4.196  13.220 -1.4073 -0.7628  1.1566
 3152TIP3   OH230946   0.780   4.141  12.267 -0.3074  0.5099  0.1447
 3152TIP3    H130947   0.825   4.094  12.197  0.9346  0.3380  1.0254
 3152TIP3    H230948   0.691   4.107  12.264  0.3459 -1.3603  0.2425
 3153TIP3   OH230949   2.906   1.525   6.870  0.0726 -0.2066 -0.0992
 3153TIP3    H130950   2.825   1.475   6.874 -0.7351  1.0607  0.0143
 3153TIP3    H230951   2.880   1.615   6.893  1.7460 -0.0405  1.3907
 3154TIP3   OH230952   4.937   4.716  13.992 -0.1287 -0.1201 -0.6775
 3154TIP3    H130953   4.993   4.786  13.957  1.0061 -1.1879 -1.0662
 3154TIP3    H230954   4.865   4.763  14.034 -1.4720  1.3005 -4.1746
 3155TIP3   OH230955   4.488   3.514   3.538  0.1009 -0.8709 -0.5291
 3155TIP3    H130956   4.487   3.510   3.634  1.7924  0.1256 -0.4256
 3155TIP3    H230957   4.579   3.496   3.514 -0.2777 -1.0315 -1.9542
 3156TIP3   OH230958   6.552   1.588   1.182 -0.2018  0.5661 -0.3295
 3156TIP3    H130959   6.507   1.615   1.102  0.6661  1.5928 -0.4964
 3156TIP3    H230960   6.533   1.657   1.245 -0.4626  0.0157  0.2038
 3157TIP3   OH230961   2.841   0.571   5.029 -0.1165 -0.0087 -0.4182
 3157TIP3    H130962   2.768   0.523   5.068 -0.4608  1.8694  1.4032
 3157TIP3    H230963   2.898   0.502   4.994 -1.7685 -1.6107 -0.1441
 3158TIP3   OH230964   1.284   3.844  14.757  0.8719 -0.3938  0.2518
 3158TIP3    H130965   1.242   3.840  14.843  1.0060 -0.5077  0.3121
 3158TIP3    H230966   1.377   3.861  14.776  1.3000 -2.4682  0.2223
 3159TIP3   OH230967   1.033   0.864   1.824 -0.0028  0.2810  0.1610
 3159TIP3    H130968   1.125   0.841   1.836  0.4388  0.9756 -1.5425
 3159TIP3    H230969   1.011   0.829   1.737 -0.8947  1.4369 -0.1032
 3160TIP3   OH230970   1.486   3.144   6.157  0.3023 -0.0115 -0.3509
 3160TIP3    H130971   1.559   3.203   6.175  1.4326 -1.0277 -1.3340
 3160TIP3    H230972   1.517   3.090   6.084 -1.6135 -0.1921 -1.0931
 3161TIP3   OH230973   5.821   1.854  11.052 -0.1062  0.6649  0.3078
 3161TIP3    H130974   5.880   1.862  11.127  1.8187  3.4240 -1.2838
 3161TIP3    H230975   5.838   1.766  11.018  1.2135  0.4679  1.3835
 3162TIP3   OH230976   4.498   4.456  13.848 -0.0530  0.2519 -0.4011
 3162TIP3    H130977   4.585   4.481  13.818 -0.5856  2.2619 -0.4247
 3162TIP3    H230978   4.481   4.514  13.923 -1.0066 -0.7561  0.1934
 3163TIP3   OH230979   4.943   4.225  12.258  0.4402 -0.3909 -0.2270
 3163TIP3    H130980   4.964   4.154  12.198  0.3220 -0.0755 -0.6504
 3163TIP3    H230981   4.991   4.205  12.338  0.7798 -0.6988 -0.5075
 3164TIP3   OH230982   2.328   6.261  11.489 -0.7999 -0.0481  0.1447
 3164TIP3    H130983   2.375   6.247  11.571 -1.1561 -1.8030  0.0886
 3164TIP3    H230984   2.236   6.263  11.513 -0.8299  1.0948 -0.0254
 3165TIP3   OH230985   2.484   4.188  12.632  0.5290 -0.4865 -0.3307
 3165TIP3    H130986   2.393   4.195  12.603 -0.1564 -3.4639  0.7360
 3165TIP3    H230987   2.503   4.273  12.672 -2.3515 -0.2825  0.8539
 3166TIP3   OH230988   0.501   2.634   5.341  0.2285 -0.4338  0.3341
 3166TIP3    H130989   0.579   2.666   5.386  1.2562 -1.5617 -0.5821
 3166TIP3    H230990   0.462   2.572   5.403 -1.1181  1.5639  1.6233
 3167TIP3   OH230991   6.112   6.013   5.208  0.0146  0.5128  0.3846
 3167TIP3    H130992   6.157   6.097   5.195  1.6111 -0.4241 -0.4730
 3167TIP3    H230993   6.124   5.994   5.301  1.1949  0.4181  0.2300
 3168TIP3   OH230994   2.824   1.983   5.935 -0.3360  0.0482 -0.5135
 3168TIP3    H130995   2.873   1.974   6.016  0.6751 -0.8766 -1.2067
 3168TIP3    H230996   2.756   2.048   5.955  1.4820  1.7960  0.3225
 3169TIP3   OH230997   4.659   3.379   0.694 -0.6385 -0.4168 -0.6349
 3169TIP3    H130998   4.660   3.390   0.789 -1.4766  0.6149 -0.7201
 3169TIP3    H230999   4.713   3.451   0.661 -0.8254 -0.4243 -0.9598
 3170TIP3   OH231000   5.968   1.625  10.685 -0.4312 -0.6702  0.2045
 3170TIP3    H131001   6.063   1.613  10.692 -0.5268 -0.7346  1.7270
 3170TIP3    H231002   5.931   1.554  10.737 -1.3864 -1.4210 -1.4097
 3171TIP3   OH231003   2.902   3.853   2.733  0.3183  0.2562 -0.1913
 3171TIP3    H131004   2.819   3.885   2.768 -0.7582 -3.7012  1.3557
 3171TIP3    H231005   2.968   3.893   2.788 -0.7347  1.4103  0.2769
 3172TIP3   OH231006   0.117   3.979   3.576  0.4192 -0.6670  0.0046
 3172TIP3    H131007   0.040   3.979   3.519  0.0554 -0.2204  0.4915
 3172TIP3    H231008   0.156   3.893   3.564  0.0688 -0.7524 -0.5473
 3173TIP3   OH231009   1.886   2.459  11.809  0.6878  0.3981 -0.2768
 3173TIP3    H131010   1.888   2.428  11.719  0.5557  0.9968 -0.4890
 3173TIP3    H231011   1.968   2.428  11.847  0.9022  0.4484 -0.7006
 3174TIP3   OH231012   3.161   6.165   4.279 -0.4660  0.5984 -0.4127
 3174TIP3    H131013   3.070   6.136   4.276 -0.0442 -1.7883  3.0636
 3174TIP3    H231014   3.182   6.165   4.373  3.4724 -0.3640 -1.1239
 3175TIP3   OH231015   2.934   1.333   1.745  0.0061  0.3175  0.3446
 3175TIP3    H131016   2.858   1.329   1.803 -0.9309 -0.3502 -0.8712
 3175TIP3    H231017   2.914   1.270   1.676  2.2411 -0.8217  0.6395
 3176TIP3   OH231018   3.155   2.036   1.302 -0.0661  0.1979  0.0805
 3176TIP3    H131019   3.201   2.117   1.284  0.3069 -0.3480 -1.6788
 3176TIP3    H231020   3.064   2.062   1.315 -0.2594  0.8131 -2.0327
 3177TIP3   OH231021   5.231   0.853  13.613 -0.2318  0.0314 -0.0040
 3177TIP3    H131022   5.297   0.826  13.549  0.3882  2.6953 -0.6128
 3177TIP3    H231023   5.229   0.782  13.677  0.8156 -1.6389 -1.7160
 3178TIP3   OH231024   5.270   1.008   3.624 -0.0722  0.2632 -0.2549
 3178TIP3    H131025   5.210   1.053   3.564 -0.3295 -0.5913 -0.6509
 3178TIP3    H231026   5.243   1.037   3.711  0.0282  1.1799 -0.5148
 3179TIP3   OH231027   0.719   6.117  16.169 -0.2713  0.1205  0.5263
 3179TIP3    H131028   0.730   6.210  16.149 -1.6449  0.2421  0.2752
 3179TIP3    H231029   0.769   6.104  16.250  0.8951  0.8007 -0.0489
 3180TIP3   OH231030   3.445   6.213  14.395  0.3254  0.6173  0.5139
 3180TIP3    H131031   3.414   6.293  14.351 -2.1754 -0.4528  0.1728
 3180TIP3    H231032   3.473   6.156  14.324 -0.4068  0.2168  0.5333
 3181TIP3   OH231033   6.557   0.652   3.184 -0.3510 -0.2014 -0.1969
 3181TIP3    H131034   6.503   0.709   3.239  0.1642 -0.1256  0.2406
 3181TIP3    H231035   6.639   0.642   3.233 -0.5773 -1.6589 -0.0559
 3182TIP3   OH231036   1.178   5.099  11.328  0.1093 -0.0610 -0.4578
 3182TIP3    H131037   1.198   5.192  11.313 -0.1055 -0.1026 -1.0199
 3182TIP3    H231038   1.143   5.096  11.417  1.4159  0.1975  0.1012
 3183TIP3   OH231039   6.127   5.214   3.749 -0.1431 -0.9419 -0.4778
 3183TIP3    H131040   6.199   5.188   3.807 -2.1258 -0.1523  2.5560
 3183TIP3    H231041   6.059   5.148   3.764 -0.9973 -0.2852 -1.3589
 3184TIP3   OH231042   1.984   6.310  16.847 -0.3918 -0.0028  0.0926
 3184TIP3    H131043   1.960   6.399  16.869  1.3547  0.5656 -0.0943
 3184TIP3    H231044   2.078   6.315  16.826 -0.9396 -1.2222 -3.2961
 3185TIP3   OH231045   3.746   2.834  11.656 -0.0106 -0.0260  0.2476
 3185TIP3    H131046   3.821   2.784  11.687 -0.3053 -0.0144  1.0037
 3185TIP3    H231047   3.782   2.919  11.632  0.2639 -0.1220  0.3182
 3186TIP3   OH231048   6.126   6.568  11.117  0.0007 -0.1557 -0.0072
 3186TIP3    H131049   6.073   6.559  11.038 -0.7865  0.0817  0.4769
 3186TIP3    H231050   6.216   6.552  11.088 -0.5099 -2.5653 -0.4876
 3187TIP3   OH231051   5.148   3.620  13.755  0.0440  0.5850 -0.2544
 3187TIP3    H131052   5.200   3.546  13.723 -0.4225 -0.3103  0.9779
 3187TIP3    H231053   5.172   3.627  13.847  0.3492  2.2282 -0.4348
 3188TIP3   OH231054   6.299   1.870  15.577  0.0188 -0.0924  0.2113
 3188TIP3    H131055   6.367   1.908  15.521  1.0319  0.0703  1.4999
 3188TIP3    H231056   6.328   1.780  15.592 -0.1741 -0.0950  0.5837
 3189TIP3   OH231057   0.785   4.004   1.808 -0.3061 -0.1982  0.6438
 3189TIP3    H131058   0.731   4.063   1.860 -0.1111 -0.6784  1.4086
 3189TIP3    H231059   0.727   3.932   1.784 -1.1038  1.1834 -1.9600
 3190TIP3   OH231060   5.300   2.578   5.403  0.1859  0.7299  0.0911
 3190TIP3    H131061   5.343   2.550   5.484  1.8858  1.6530 -0.4415
 3190TIP3    H231062   5.358   2.549   5.333  0.1105  2.2131 -0.6398
 3191TIP3   OH231063   0.333   4.881   4.442 -0.5729  0.5364  0.1122
 3191TIP3    H131064   0.291   4.800   4.474 -0.9187  0.9174  0.6391
 3191TIP3    H231065   0.267   4.920   4.385 -0.2154  0.2012 -0.5376
 3192TIP3   OH231066   4.673   6.525  14.489 -0.0234 -0.6610 -0.4404
 3192TIP3    H131067   4.593   6.508  14.439 -0.8861  1.9327 -0.1118
 3192TIP3    H231068   4.741   6.534  14.422 -0.1563 -1.9977 -0.7852
 3193TIP3   OH231069   2.968   0.694  17.280  0.3954 -0.5163 -0.1376
 3193TIP3    H131070   3.036   0.703  17.346 -0.5934  2.3254  0.6311
 3193TIP3    H231071   2.956   0.599  17.271  4.0146 -1.1249  0.0298
 3194TIP3   OH231072   3.750   5.626  14.650 -0.0110  0.6619 -0.2333
 3194TIP3    H131073   3.758   5.626  14.555 -2.9349  2.0652 -0.6103
 3194TIP3    H231074   3.681   5.564  14.669 -1.2498  2.2273  0.6692
 3195TIP3   OH231075   1.687   4.674  15.787  0.0715  0.5320 -0.3911
 3195TIP3    H131076   1.708   4.627  15.869 -0.8743 -2.0588 -1.5271
 3195TIP3    H231077   1.592   4.686  15.790 -0.2393 -1.2327 -1.8658
 3196TIP3   OH231078   1.559   5.091   6.448  0.4433  0.2364 -0.6660
 3196TIP3    H131079   1.596   5.009   6.480  0.7602 -0.0270 -1.6840
 3196TIP3    H231080   1.577   5.154   6.517 -1.5362 -0.9459  1.0445
 3197TIP3   OH231081   4.597   2.671  15.711  0.5299 -0.5400 -0.9688
 3197TIP3    H131082   4.562   2.583  15.697 -0.8820  0.0685 -1.4682
 3197TIP3    H231083   4.532   2.714  15.767  2.4555 -0.5745  1.4374
 3198TIP3   OH231084   2.040   4.133  13.173 -0.5418 -0.4936  0.2545
 3198TIP3    H131085   2.004   4.118  13.085  1.0834  1.8207 -0.9126
 3198TIP3    H231086   2.133   4.116  13.164 -0.5056 -1.4003  1.9142
 3199TIP3   OH231087   2.341   1.051  16.133  0.4365 -0.2412  0.1121
 3199TIP3    H131088   2.311   1.076  16.220  0.6734 -2.3335  0.8395
 3199TIP3    H231089   2.261   1.036  16.083  0.3057 -0.0654  0.2689
 3200TIP3   OH231090   6.379   1.276  14.621  0.4875  0.6096  0.1097
 3200TIP3    H131091   6.470   1.249  14.622 -0.3732 -2.6925  1.5416
 3200TIP3    H231092   6.368   1.326  14.702  0.8950  0.6478  0.1418
 3201TIP3   OH231093   3.347   6.039   3.762 -0.0455 -0.4813  0.0373
 3201TIP3    H131094   3.432   6.081   3.745 -0.6992  0.8083 -0.1600
 3201TIP3    H231095   3.311   6.087   3.836 -0.1395 -1.7487  0.8409
 3202TIP3   OH231096   3.734   4.302   3.997  0.3361 -0.1826 -0.4519
 3202TIP3    H131097   3.685   4.355   4.060  2.4651 -0.0116  1.1661
 3202TIP3    H231098   3.732   4.213   4.033 -0.6162 -0.6363 -1.5506
 3203TIP3   OH231099   1.400   3.774   3.682 -0.4613  0.2660  0.3479
 3203TIP3    H131100   1.358   3.859   3.690 -0.9811 -0.0869  1.6699
 3203TIP3    H231101   1.486   3.793   3.645 -0.0970  1.5236  1.7124
 3204TIP3   OH231102   2.941   2.128   0.850 -0.5037  0.1391 -0.0437
 3204TIP3    H131103   2.938   2.215   0.811 -0.4912 -0.0108 -0.3766
 3204TIP3    H231104   2.855   2.090   0.830  0.2946 -0.7850 -1.8719
 3205TIP3   OH231105   2.427   6.254   6.030  0.1586 -0.2669  0.9862
 3205TIP3    H131106   2.404   6.286   6.117  0.1329  1.1261  0.4938
 3205TIP3    H231107   2.345   6.217   5.996  0.7156 -3.0989  2.4366
 3206TIP3   OH231108   3.788   3.026  14.998  0.4026  0.7028 -0.4941
 3206TIP3    H131109   3.827   3.039  14.912 -1.1068  0.7809 -1.1913
 3206TIP3    H231110   3.856   3.054  15.060  1.1487  1.5611 -1.6720
 3207TIP3   OH231111   0.120   1.609  14.716 -0.6655 -0.2967 -0.2139
 3207TIP3    H131112   0.172   1.552  14.659 -0.4636  0.1789 -0.5126
 3207TIP3    H231113   0.115   1.561  14.800 -0.7483 -0.8801 -0.5460
 3208TIP3   OH231114   1.568   2.222  16.341  0.8387 -0.2611 -0.0712
 3208TIP3    H131115   1.571   2.231  16.246 -0.9732  2.1397 -0.0018
 3208TIP3    H231116   1.570   2.312  16.374 -1.4390 -0.8394  1.9639
 3209TIP3   OH231117   4.538   5.020  16.115 -0.3363  0.3210 -0.1940
 3209TIP3    H131118   4.590   4.955  16.163  1.7494  0.1449 -2.4651
 3209TIP3    H231119   4.541   5.098  16.170  2.3312  0.2729 -0.1161
 3210TIP3   OH231120   5.284   2.558  13.937 -0.4109  0.0700  0.5753
 3210TIP3    H131121   5.324   2.494  13.996  2.2691  0.2580 -0.8636
 3210TIP3    H231122   5.324   2.642  13.961  1.5454 -0.0089 -2.0340
 3211TIP3   OH231123   4.126   1.510   6.198  0.2125 -0.2361  0.5431
 3211TIP3    H131124   4.099   1.479   6.112  0.0400  0.8731  0.1850
 3211TIP3    H231125   4.047   1.547   6.236  0.9117  2.0294 -0.0652
 3212TIP3   OH231126   6.467   2.666   6.085 -0.7866  0.4836  0.1472
 3212TIP3    H131127   6.521   2.600   6.130  1.7629  2.1289 -0.3176
 3212TIP3    H231128   6.387   2.671   6.138 -0.3652 -1.7614  1.1209
 3213TIP3   OH231129   5.593   3.793   5.941 -0.9938 -0.2874  0.5263
 3213TIP3    H131130   5.578   3.703   5.970 -1.6785 -0.9971 -1.8063
 3213TIP3    H231131   5.513   3.817   5.894  0.5105  0.1359 -2.0450
 3214TIP3   OH231132   4.206   0.073  16.849  0.3909 -0.5045  0.0531
 3214TIP3    H131133   4.144   0.091  16.778  1.0730 -0.4167 -0.5236
 3214TIP3    H231134   4.161   0.105  16.928  0.4852  1.4084 -0.6006
 3215TIP3   OH231135   4.992   5.598  16.768  0.1155  0.5919 -0.1556
 3215TIP3    H131136   4.976   5.635  16.855  0.6322  0.6145 -0.0659
 3215TIP3    H231137   4.998   5.674  16.711  0.5959  0.6228 -0.0704
 3216TIP3   OH231138   2.108   2.693  11.851 -0.3340  0.0488  0.0475
 3216TIP3    H131139   2.090   2.675  11.943  0.6451 -1.1983  0.0177
 3216TIP3    H231140   2.027   2.732  11.818 -0.3545  1.4556  1.6591
 3217TIP3   OH231141   6.515   0.092   5.245 -0.0038  0.2059 -0.2793
 3217TIP3    H131142   6.450   0.162   5.247  0.1639  0.3694 -0.5224
 3217TIP3    H231143   6.492   0.036   5.319 -0.1868  0.4741 -0.1308
 3218TIP3   OH231144   3.555   4.167   5.986 -0.2128  0.0413  0.0103
 3218TIP3    H131145   3.580   4.125   6.068  0.4059  0.1675 -0.1150
 3218TIP3    H231146   3.532   4.257   6.011  1.5394  0.5732 -0.1681
 3219TIP3   OH231147   2.284   3.583   5.592  0.2728 -0.5866  0.0411
 3219TIP3    H131148   2.310   3.497   5.622 -0.1954 -0.9806 -0.6485
 3219TIP3    H231149   2.225   3.616   5.660  1.0327 -0.4950  0.6632
 3220TIP3   OH231150   3.281   2.650  11.121  0.3120 -0.5459 -0.0870
 3220TIP3    H131151   3.283   2.724  11.060  0.7853 -0.2571  0.2840
 3220TIP3    H231152   3.286   2.573  11.064 -2.1614 -0.3976 -0.6463
 3221TIP3   OH231153   1.294   1.101  16.751 -0.0770  0.2339  0.3501
 3221TIP3    H131154   1.281   1.175  16.692  2.3505 -0.8365 -1.7114
 3221TIP3    H231155   1.368   1.127  16.806  0.2081 -0.3106  0.2258
 3222TIP3   OH231156   6.019   4.842   2.354  0.0441  0.6081 -0.1286
 3222TIP3    H131157   5.958   4.855   2.426  0.3897 -0.1303  0.3050
 3222TIP3    H231158   5.966   4.855   2.275 -0.7590 -0.3126  0.2349
 3223TIP3   OH231159   5.405   0.486   2.166 -0.5579  0.3779 -0.1368
 3223TIP3    H131160   5.399   0.525   2.253  1.0759 -1.0440  0.6613
 3223TIP3    H231161   5.447   0.553   2.113 -1.5249  1.2400  0.1402
 3224TIP3   OH231162   3.344   3.677  15.746  0.3159 -0.5789 -0.1136
 3224TIP3    H131163   3.339   3.685  15.841 -1.3607  1.1679 -0.2698
 3224TIP3    H231164   3.437   3.687  15.726  0.4908  1.1242  1.2431
 3225TIP3   OH231165   1.048   6.353   3.720 -0.4950  0.2489  0.1466
 3225TIP3    H131166   1.095   6.431   3.691 -1.2266 -0.1365 -2.2771
 3225TIP3    H231167   1.115   6.300   3.763  0.6933  0.8890 -0.8594
 3226TIP3   OH231168   1.754   1.991   1.414  0.4307 -0.8431 -0.5148
 3226TIP3    H131169   1.818   1.959   1.350  1.1138  0.3405 -0.4465
 3226TIP3    H231170   1.753   1.924   1.482 -0.6950 -2.3900 -1.9773
 3227TIP3   OH231171   1.649   0.836   3.527  0.4605 -0.1154 -0.3042
 3227TIP3    H131172   1.734   0.865   3.495  0.3076 -0.6762 -1.2603
 3227TIP3    H231173   1.588   0.858   3.457 -0.0506 -0.4364  0.0342
 3228TIP3   OH231174   5.097   3.557   0.355  0.4333  0.1775  0.2886
 3228TIP3    H131175   5.135   3.588   0.437  0.7824  0.5330 -0.0049
 3228TIP3    H231176   5.158   3.489   0.325 -0.3495 -0.8506  0.9506
 3229TIP3   OH231177   1.176   3.808  17.068  0.3473 -0.5674 -0.0777
 3229TIP3    H131178   1.239   3.784  17.136  0.8859  0.7043 -0.1064
 3229TIP3    H231179   1.094   3.821  17.116  0.4299 -0.8734  0.1536
 3230TIP3   OH231180   5.830   1.152   0.781  0.8524  0.6260  0.1149
 3230TIP3    H131181   5.897   1.083   0.779 -1.0197 -1.2732 -0.3678
 3230TIP3    H231182   5.832   1.185   0.871  0.1115 -1.8402  1.1130
 3231TIP3   OH231183   1.167   6.164   1.944 -0.0321  0.2589 -0.0550
 3231TIP3    H131184   1.200   6.122   2.024  0.7192 -2.0184 -1.4558
 3231TIP3    H231185   1.232   6.232   1.924  0.7879 -0.4065  0.2778
 3232TIP3   OH231186   4.487   0.248   3.467  0.0198 -1.2725  0.3208
 3232TIP3    H131187   4.522   0.273   3.381  0.1282 -1.0840  0.4174
 3232TIP3    H231188   4.398   0.281   3.467  0.2139 -0.7278  0.5086
 3233TIP3   OH231189   5.944   6.422  15.709  0.9623  0.0967 -0.4061
 3233TIP3    H131190   5.948   6.335  15.748 -2.3756 -0.1045 -0.2594
 3233TIP3    H231191   5.933   6.407  15.615  1.5981  0.4074 -0.5356
 3234TIP3   OH231192   4.506   3.826   0.980  0.2433  0.4319  0.5575
 3234TIP3    H131193   4.422   3.847   0.939  1.7765 -0.3530 -3.4067
 3234TIP3    H231194   4.500   3.732   0.999  0.3552  0.3016 -0.0527
 3235TIP3   OH231195   6.459   4.339   2.313 -0.0137 -0.0742  0.0918
 3235TIP3    H131196   6.520   4.411   2.303  0.2593 -0.1213  1.2717
 3235TIP3    H231197   6.479   4.302   2.399 -3.1588  1.3092  1.5702
 3236TIP3   OH231198   0.964   0.994  15.314 -0.6733 -0.5225  0.2075
 3236TIP3    H131199   0.926   1.054  15.378 -0.3565  0.3540 -0.4135
 3236TIP3    H231200   0.895   0.929  15.299 -1.7909  0.7548 -0.5173
 3237TIP3   OH231201   5.890   5.981   3.849 -0.4457  0.0606  1.3346
 3237TIP3    H131202   5.894   5.962   3.755  0.8689 -2.8904  1.8809
 3237TIP3    H231203   5.815   6.040   3.858  0.9005  2.5188 -1.8121
 3238TIP3   OH231204   3.663   0.715  17.047 -0.3127  0.2732 -0.4971
 3238TIP3    H131205   3.705   0.772  16.983 -0.1125 -0.6233 -1.1732
 3238TIP3    H231206   3.607   0.657  16.996  1.6901 -2.1072 -0.1796
 3239TIP3   OH231207   2.150   6.484   4.070  0.7970 -0.1177 -0.0847
 3239TIP3    H131208   2.104   6.568   4.067  1.3322  0.1866  0.1040
 3239TIP3    H231209   2.179   6.475   4.161  0.4144 -0.6938 -0.0092
 3240TIP3   OH231210   6.241   0.522   3.628 -0.5002  0.5995 -0.2040
 3240TIP3    H131211   6.312   0.582   3.604  0.6324 -0.3534  0.5897
 3240TIP3    H231212   6.282   0.435   3.623 -1.1050  0.1318  1.8866
 3241TIP3   OH231213   4.862   4.175  17.098 -0.8547  0.3436 -0.1541
 3241TIP3    H131214   4.839   4.222  17.179  2.0959 -0.0598  1.0626
 3241TIP3    H231215   4.907   4.097  17.129  1.2913  0.6899 -2.1573
 3242TIP3   OH231216   0.392   5.203   5.114 -0.3676 -0.1345  0.0486
 3242TIP3    H131217   0.469   5.247   5.077 -0.8625  0.9754  0.2796
 3242TIP3    H231218   0.413   5.110   5.110  0.8305  0.1308 -0.2341
 3243TIP3   OH231219   1.066   5.420   6.894  0.0965  1.0660 -0.4876
 3243TIP3    H131220   1.094   5.332   6.868  2.3762  1.5731  0.0531
 3243TIP3    H231221   0.989   5.438   6.840 -1.2459 -1.7335  0.2911
 3244TIP3   OH231222   5.778   1.000  11.283  0.4356  0.5869  0.1125
 3244TIP3    H131223   5.819   0.914  11.271  2.2368  0.9891  2.5289
 3244TIP3    H231224   5.729   1.015  11.202 -0.4582 -2.9435 -0.1547
 3245TIP3   OH231225   2.427   3.816  15.209  0.4485 -0.1419 -0.6057
 3245TIP3    H131226   2.506   3.820  15.154 -1.0736  2.2766 -2.8495
 3245TIP3    H231227   2.416   3.906  15.241 -0.2387 -0.9187  1.5402
 3246TIP3   OH231228   3.519   4.811   1.507 -0.1978 -0.0341  0.4925
 3246TIP3    H131229   3.608   4.828   1.477 -0.5577 -0.2415 -0.7600
 3246TIP3    H231230   3.522   4.829   1.601  0.8147  1.3077  0.2421
 3247TIP3   OH231231   5.453   2.255   0.835  0.0829  0.0444  0.7599
 3247TIP3    H131232   5.401   2.231   0.912  0.4788 -0.4146  0.8894
 3247TIP3    H231233   5.400   2.226   0.760 -0.8970  1.6530  0.8005
 3248TIP3   OH231234   3.553   4.563  12.347 -0.8258  0.2974 -0.2702
 3248TIP3    H131235   3.531   4.620  12.420 -3.5837  0.2789 -0.9555
 3248TIP3    H231236   3.586   4.622  12.279  0.5205  0.4653  0.4994
 3249TIP3   OH231237   6.568   1.254   0.714  0.7190 -0.3108  0.2489
 3249TIP3    H131238   6.635   1.308   0.672 -0.1702  2.1721  1.7817
 3249TIP3    H231239   6.611   1.220   0.793  0.7847 -0.4561  0.1510
 3250TIP3   OH231240   3.165   3.251  14.093  0.0613 -0.1317 -0.0153
 3250TIP3    H131241   3.129   3.176  14.140  2.1899  0.1938  2.3106
 3250TIP3    H231242   3.234   3.285  14.150  0.2085  2.6843 -1.6707
 3251TIP3   OH231243   5.320   3.918  13.312 -0.0839 -0.1327 -0.7470
 3251TIP3    H131244   5.341   3.910  13.219 -0.3403  0.1178 -0.8277
 3251TIP3    H231245   5.403   3.906  13.357  0.4139  1.7634 -1.0927
 3252TIP3   OH231246   6.563   0.311   4.812 -0.0123  0.5186  0.3970
 3252TIP3    H131247   6.629   0.351   4.756  0.7384 -0.8420  0.2699
 3252TIP3    H231248   6.486   0.366   4.801  0.4617  0.9326 -1.0678
 3253TIP3   OH231249   2.884   0.359   2.419  0.1986 -0.5221 -0.4919
 3253TIP3    H131250   2.975   0.362   2.450 -0.0755  0.6666  0.2763
 3253TIP3    H231251   2.846   0.283   2.464  0.5183 -0.3708  0.0435
 3254TIP3   OH231252   5.812   3.420  12.766 -0.2818 -0.2703  0.2602
 3254TIP3    H131253   5.757   3.416  12.845 -0.5772  2.6179  0.3131
 3254TIP3    H231254   5.901   3.404  12.798 -0.5300 -0.2183  1.0034
 3255TIP3   OH231255   2.079   2.794  17.317  0.6867 -0.2920  0.3152
 3255TIP3    H131256   2.097   2.820  17.227 -1.4505  0.2727 -0.0006
 3255TIP3    H231257   2.058   2.701  17.312 -0.4573 -0.0368  0.0293
 3256TIP3   OH231258   4.910   5.462  13.276 -0.3148  0.2982  0.0380
 3256TIP3    H131259   4.946   5.445  13.189  0.5351 -0.5819  0.5366
 3256TIP3    H231260   4.882   5.553  13.273  0.7306  0.6107 -0.8044
 3257TIP3   OH231261   3.446   3.432   4.935  0.3559 -0.4298  0.2200
 3257TIP3    H131262   3.371   3.472   4.979 -0.1872 -0.8422 -0.3086
 3257TIP3    H231263   3.413   3.348   4.903  0.6283 -0.0018 -1.2670
 3258TIP3   OH231264   3.919   0.693   4.971 -0.5538  0.3731  0.3780
 3258TIP3    H131265   3.890   0.640   4.897  0.2698  1.6432 -0.9083
 3258TIP3    H231266   4.011   0.712   4.952  0.1463 -0.5305  2.5148
 3259TIP3   OH231267   4.692   5.316   0.076  0.2851 -0.2088 -0.1096
 3259TIP3    H131268   4.734   5.257   0.138 -0.6452  0.3263  1.0589
 3259TIP3    H231269   4.690   5.401   0.121 -0.2683  0.2259 -0.9306
 3260TIP3   OH231270   2.155   5.310  12.490  0.4868 -0.0762 -0.2810
 3260TIP3    H131271   2.145   5.373  12.418  0.3488 -0.7406 -0.8574
 3260TIP3    H231272   2.158   5.225  12.446 -3.7206 -0.9418  0.6572
 3261TIP3   OH231273   1.629   4.047  13.229  0.0762  0.4287  0.2405
 3261TIP3    H131274   1.607   3.970  13.177  0.0564  0.3597  0.3517
 3261TIP3    H231275   1.579   4.118  13.189 -0.1598  0.3217  0.3391
 3262TIP3   OH231276   2.361   6.124   3.740 -0.1378 -0.0687 -0.2540
 3262TIP3    H131277   2.283   6.081   3.775 -0.2663  0.6663  0.3852
 3262TIP3    H231278   2.408   6.054   3.693 -1.0485 -0.5739 -0.4411
 3263TIP3   OH231279   2.558   6.234   4.428 -0.4171  0.2675 -0.0105
 3263TIP3    H131280   2.597   6.273   4.349  1.6564  0.2664  0.9560
 3263TIP3    H231281   2.631   6.190   4.472 -1.6025 -0.0628  1.7293
 3264TIP3   OH231282   5.208   1.714   4.155 -0.2444  0.0881  0.2819
 3264TIP3    H131283   5.256   1.732   4.235 -0.9362 -0.9278  0.9513
 3264TIP3    H231284   5.244   1.631   4.123  0.0519  0.5002 -0.4958
 3265TIP3   OH231285   0.851   6.689  12.662 -0.3021  0.2209 -0.2085
 3265TIP3    H131286   0.788   6.645  12.719  0.3202  0.6303  0.8174
 3265TIP3    H231287   0.799   6.751  12.611 -0.6096  1.3449  1.4142
 3266TIP3   OH231288   5.248   1.480  15.898  0.1828  0.5967 -0.5807
 3266TIP3    H131289   5.169   1.487  15.952  0.3717  1.1499 -0.3702
 3266TIP3    H231290   5.239   1.396  15.854 -1.2100  1.2436 -1.6226
 3267TIP3   OH231291   1.990   0.005  11.387 -0.6299 -0.2992  0.3730
 3267TIP3    H131292   1.923   0.070  11.365  1.6064  2.5226  1.2102
 3267TIP3    H231293   2.011  -0.037  11.303 -0.0333  2.3268 -0.9102
 3268TIP3   OH231294   4.573   3.716   3.848 -0.3079  0.9609  0.0313
 3268TIP3    H131295   4.530   3.632   3.862  0.7839  0.6267  1.6503
 3268TIP3    H231296   4.650   3.695   3.794 -0.0645  0.9155  0.3914
 3269TIP3   OH231297   3.467   0.441  11.897  1.0114 -0.1216 -0.0580
 3269TIP3    H131298   3.398   0.379  11.919  0.5112 -0.0246 -1.3027
 3269TIP3    H231299   3.427   0.527  11.911  1.5076 -0.0432  1.0582
 3270TIP3   OH231300   4.046   0.200  15.938  0.3512  1.0119 -0.4110
 3270TIP3    H131301   4.006   0.186  15.852  2.1328  0.4528 -1.1971
 3270TIP3    H231302   4.122   0.141  15.939  1.0611  1.8971  1.0513
 3271TIP3   OH231303   0.606   3.533   5.427 -0.4489 -0.3348  0.0024
 3271TIP3    H131304   0.643   3.619   5.446 -1.1322 -0.1343  0.4478
 3271TIP3    H231305   0.681   3.481   5.396 -0.0589  0.4492 -0.4069
 3272TIP3   OH231306   2.728   3.974  11.632 -0.3287 -0.3084 -0.2965
 3272TIP3    H131307   2.770   4.060  11.634  0.1492 -0.5530  0.6594
 3272TIP3    H231308   2.645   3.989  11.587  0.4452  0.3332 -1.5790
 3273TIP3   OH231309   1.233   1.117  12.021 -0.3479 -0.3488  0.1870
 3273TIP3    H131310   1.141   1.129  12.043 -0.1562  0.8762  0.3768
 3273TIP3    H231311   1.249   1.024  12.035 -1.4383 -0.4923  0.5750
 3274TIP3   OH231312   1.805   1.830   2.944  0.3158  0.0756 -0.3622
 3274TIP3    H131313   1.833   1.895   3.008 -1.5856  0.8821 -0.2967
 3274TIP3    H231314   1.810   1.875   2.860 -1.6245  0.5828 -0.2507
 3275TIP3   OH231315   3.656   6.633  12.367  0.3748  0.0373  0.0405
 3275TIP3    H131316   3.725   6.699  12.365  0.3063  0.1051 -0.5047
 3275TIP3    H231317   3.700   6.551  12.343  0.2514  0.1006 -0.4132
 3276TIP3   OH231318   3.376   2.620   2.587 -0.0735  0.6081 -0.1229
 3276TIP3    H131319   3.362   2.617   2.493  0.7480  1.5889 -0.2975
 3276TIP3    H231320   3.419   2.537   2.608 -0.0669  0.4780 -0.6451
 3277TIP3   OH231321   4.781   1.292   0.267  0.4655 -0.3348  0.3433
 3277TIP3    H131322   4.831   1.340   0.202 -1.3031 -1.9675 -2.4145
 3277TIP3    H231323   4.736   1.223   0.218 -2.2222 -0.7389  3.0339
 3278TIP3   OH231324   0.938   0.293   0.139  0.1350  0.1673 -0.2711
 3278TIP3    H131325   0.865   0.268   0.083  0.6895 -0.3964 -0.7685
 3278TIP3    H231326   0.922   0.385   0.161  0.1884  0.5854 -1.8281
 3279TIP3   OH231327   5.390   5.290  11.924 -0.2368  0.2908 -0.2202
 3279TIP3    H131328   5.458   5.330  11.977 -0.2379  0.4625 -0.3476
 3279TIP3    H231329   5.399   5.196  11.940  0.2994  0.2829 -0.5604
 3280TIP3   OH231330   2.404   6.212  14.662  0.2693  0.1215  0.1207
 3280TIP3    H131331   2.339   6.223  14.731 -0.0093 -1.2385  0.1055
 3280TIP3    H231332   2.460   6.141  14.693  0.0535 -0.6060 -1.1071
 3281TIP3   OH231333   1.266   2.864  13.291  0.1632  0.1281 -0.4734
 3281TIP3    H131334   1.248   2.789  13.236 -1.1523  0.3473 -0.3806
 3281TIP3    H231335   1.335   2.912  13.245  0.4221 -0.6832 -0.9474
 3282TIP3   OH231336   3.580   3.169  11.293 -0.4610 -0.0194 -0.5314
 3282TIP3    H131337   3.666   3.190  11.256 -1.2962  2.2158 -1.4256
 3282TIP3    H231338   3.520   3.175  11.218 -1.7144  1.0017  0.5049
 3283TIP3   OH231339   4.250   3.728   2.891  0.7001 -0.2103  0.3618
 3283TIP3    H131340   4.274   3.798   2.953  0.9236 -0.1952  0.2578
 3283TIP3    H231341   4.154   3.729   2.891  0.6600 -1.0234  1.6362
 3284TIP3   OH231342   4.904   3.883  13.303 -0.0339 -0.5146 -0.0362
 3284TIP3    H131343   4.875   3.972  13.324  0.9724  0.2075 -1.5055
 3284TIP3    H231344   4.841   3.852  13.238  1.0618  0.1854 -1.5110
 3285TIP3   OH231345   2.748   6.202   3.410  0.4596 -0.0070 -0.2992
 3285TIP3    H131346   2.837   6.194   3.443 -0.1770  0.5271  1.6634
 3285TIP3    H231347   2.723   6.112   3.387  1.2144 -0.2703 -0.1268
 3286TIP3   OH231348   4.533   4.823   4.806 -0.1247  0.2252 -0.3900
 3286TIP3    H131349   4.468   4.786   4.865  0.7968 -0.2052  0.3808
 3286TIP3    H231350   4.548   4.912   4.838  1.5936 -0.5436  1.1139
 3287TIP3   OH231351   2.556   1.523  11.793 -0.4098  0.2825 -0.0139
 3287TIP3    H131352   2.569   1.617  11.780 -0.1864  0.3448  0.6425
 3287TIP3    H231353   2.503   1.496  11.718 -1.8549  1.2440  0.6073
 3288TIP3   OH231354   0.848   6.620   0.792  0.0783  0.3536  0.4032
 3288TIP3    H131355   0.933   6.658   0.773 -0.1588  0.8846  0.3786
 3288TIP3    H231356   0.786   6.692   0.779 -0.7071 -0.7052 -2.3850
 3289TIP3   OH231357   6.345   6.021   1.216 -0.1496  0.0107 -0.1062
 3289TIP3    H131358   6.358   5.931   1.244  0.8590  0.4957  1.0791
 3289TIP3    H231359   6.387   6.026   1.130  2.6904  0.0829  1.1711
 3290TIP3   OH231360   3.676   5.939  15.135  0.6988 -0.3412 -0.1986
 3290TIP3    H131361   3.685   5.848  15.163  0.6737 -0.5874 -0.9698
 3290TIP3    H231362   3.733   5.947  15.059 -1.2564 -0.4364 -1.7734
 3291TIP3   OH231363   4.956   4.827   3.731 -0.3469 -0.1622  0.2260
 3291TIP3    H131364   4.982   4.840   3.640  0.8173 -0.7392  0.4578
 3291TIP3    H231365   4.932   4.914   3.762 -1.3754 -0.0564 -0.7987
 3292TIP3   OH231366   6.599   0.664  13.838 -0.7841  0.0269 -0.2448
 3292TIP3    H131367   6.577   0.752  13.868 -0.1325  0.4348 -0.9163
 3292TIP3    H231368   6.672   0.637  13.894 -1.3885 -0.3434  0.3717
 3293TIP3   OH231369   0.274   5.443  12.617  0.5167 -0.2719 -0.1280
 3293TIP3    H131370   0.231   5.475  12.538 -1.8760 -0.6966  0.9178
 3293TIP3    H231371   0.248   5.352  12.624  0.1812 -0.0918  1.4356
 3294TIP3   OH231372   6.729   5.430  17.190 -0.3520 -0.4418 -0.3083
 3294TIP3    H131373   6.770   5.349  17.159  1.0504  0.3479 -0.6016
 3294TIP3    H231374   6.643   5.430  17.149 -1.6609 -3.2313  2.0339
 3295TIP3   OH231375   5.935   2.248   2.061 -0.0455  0.4490 -0.2758
 3295TIP3    H131376   5.948   2.168   2.111 -0.9992  0.9933  0.8702
 3295TIP3    H231377   6.006   2.306   2.090  0.3013  0.2460 -0.6893
 3296TIP3   OH231378   2.597   3.525   1.901 -0.2392  0.1781 -0.0489
 3296TIP3    H131379   2.519   3.473   1.880 -0.5566  0.1228  1.1934
 3296TIP3    H231380   2.667   3.460   1.909 -0.6509 -0.0950  1.5745
 3297TIP3   OH231381   3.356   1.842   0.332  0.0104 -0.6569  0.3267
 3297TIP3    H131382   3.394   1.757   0.350  0.8012 -0.5185 -0.5868
 3297TIP3    H231383   3.398   1.870   0.250 -1.6387 -0.2491 -0.4319
 3298TIP3   OH231384   0.449   2.751  14.099 -0.1937 -0.5692  0.0482
 3298TIP3    H131385   0.539   2.784  14.100 -0.5706  0.4840  0.9601
 3298TIP3    H231386   0.434   2.717  14.187 -1.1519  0.6484  0.3890
 3299TIP3   OH231387   0.767   0.074  13.050  0.0883 -0.1619 -0.0714
 3299TIP3    H131388   0.709   0.140  13.012 -0.4641 -1.5636 -1.8161
 3299TIP3    H231389   0.765   0.002  12.987  3.2220 -0.5574  0.1245
 3300TIP3   OH231390   1.738   1.440  12.036  0.2570  0.2770 -0.5327
 3300TIP3    H131391   1.798   1.424  11.963  0.2777  1.0357 -0.6826
 3300TIP3    H231392   1.713   1.352  12.065  0.7430 -0.0381 -1.0409
 3301TIP3   OH231393   3.528   2.914   8.295 -0.9738 -0.3261  0.1322
 3301TIP3    H131394   3.523   2.843   8.231 -0.7022 -0.4828  0.2801
 3301TIP3    H231395   3.499   2.874   8.377 -2.8896  0.2925 -0.2059
 3302TIP3   OH231396   4.102   2.433   1.346 -0.2187 -0.0567  0.0335
 3302TIP3    H131397   4.010   2.453   1.328  0.0273  1.9999  0.7335
 3302TIP3    H231398   4.136   2.513   1.385  1.1903 -1.6782  2.3754
 3303TIP3   OH231399   4.795   4.418  14.615 -0.6719  0.1256 -0.4036
 3303TIP3    H131400   4.758   4.474  14.683 -1.2785 -0.5365 -0.1697
 3303TIP3    H231401   4.753   4.447  14.534 -1.6159 -0.5273 -0.1598
 3304TIP3   OH231402   5.333   2.116   4.352 -0.1071 -0.5555 -0.0941
 3304TIP3    H131403   5.257   2.111   4.294 -0.3595 -1.1585  0.2796
 3304TIP3    H231404   5.296   2.122   4.440  0.2787 -0.1017  0.0450
 3305TIP3   OH231405   1.725   5.018   4.748  0.4354 -0.6008 -0.8295
 3305TIP3    H131406   1.745   5.110   4.731 -0.2966 -0.5412 -1.4137
 3305TIP3    H231407   1.632   5.017   4.772  0.2474 -1.2561 -1.5242
 3306TIP3   OH231408   5.135   4.402   5.005  0.0373  0.1418  0.0175
 3306TIP3    H131409   5.158   4.310   4.994 -0.7412 -0.0060 -0.4817
 3306TIP3    H231410   5.045   4.400   5.037  0.0230  0.7267  0.0216
 3307TIP3   OH231411   3.672   5.897  16.556  0.0908  0.3714  0.2843
 3307TIP3    H131412   3.751   5.942  16.526 -0.8098  0.6175 -1.9460
 3307TIP3    H231413   3.661   5.925  16.646  1.4372  1.9275  0.0182
 3308TIP3   OH231414   4.188   6.569   2.541  0.0018  0.2607  0.4246
 3308TIP3    H131415   4.257   6.568   2.474 -0.8916 -0.0930 -0.5261
 3308TIP3    H231416   4.129   6.639   2.513 -1.1798 -0.8790 -0.0289
 3309TIP3   OH231417   0.871   1.878  12.809 -0.1924  0.1726 -1.0411
 3309TIP3    H131418   0.847   1.811  12.745 -0.3260 -0.3923 -0.4042
 3309TIP3    H231419   0.952   1.916  12.774  1.2369 -1.9370 -0.2404
 3310TIP3   OH231420   4.808   4.032  15.252  0.4960 -0.1223  0.1708
 3310TIP3    H131421   4.720   4.042  15.290 -0.2284  1.2593 -1.7042
 3310TIP3    H231422   4.796   3.970  15.180  0.6700  1.2152 -1.0610
 3311TIP3   OH231423   5.815   4.280   5.688 -0.4046  0.0103  0.3389
 3311TIP3    H131424   5.727   4.277   5.651 -0.1704  0.9407 -0.3491
 3311TIP3    H231425   5.869   4.232   5.624 -0.1939  0.6223  0.0451
 3312TIP3   OH231426   2.663   5.799   0.908  0.3809  0.0210  0.1613
 3312TIP3    H131427   2.570   5.814   0.894  0.6401 -0.4970 -2.6696
 3312TIP3    H231428   2.670   5.704   0.922  0.5998 -0.1640 -1.1222
 3313TIP3   OH231429   5.137   6.331  15.467  0.3217  0.0280 -0.4554
 3313TIP3    H131430   5.171   6.249  15.504 -1.1699 -0.5503 -0.2749
 3313TIP3    H231431   5.180   6.338  15.382  1.6386 -0.1230  0.1782
 3314TIP3   OH231432   3.120   3.778  15.599 -0.0954 -0.6573 -0.2013
 3314TIP3    H131433   3.146   3.845  15.536 -1.6642  0.8466  0.6556
 3314TIP3    H231434   3.202   3.743  15.633  0.9398  2.6314  1.1329
 3315TIP3   OH231435   6.204   3.205  13.472  0.4886  0.4537  0.3265
 3315TIP3    H131436   6.111   3.212  13.447  1.2568  0.6665 -2.9052
 3315TIP3    H231437   6.215   3.271  13.540 -1.5360  1.1131  0.0900
 3316TIP3   OH231438   2.235   2.832   4.844 -0.6072 -0.2332 -0.2212
 3316TIP3    H131439   2.296   2.869   4.908  0.6798 -1.6993 -0.5617
 3316TIP3    H231440   2.219   2.904   4.783 -0.4870  0.6555  0.7677
 3317TIP3   OH231441   2.353   4.728  12.619 -0.1194 -0.3336 -0.7175
 3317TIP3    H131442   2.328   4.653  12.566  1.3059 -0.4412 -1.2879
 3317TIP3    H231443   2.425   4.769  12.570  2.9263 -1.7666  2.1311
 3318TIP3   OH231444   2.337   2.563  14.646  0.5410  0.5295  0.1232
 3318TIP3    H131445   2.311   2.472  14.659 -0.7741  0.6631 -1.3028
 3318TIP3    H231446   2.256   2.613  14.655  1.1074  1.4733  0.1226
 3319TIP3   OH231447   0.053   2.836   1.620  0.2246 -0.4130  0.0379
 3319TIP3    H131448   0.132   2.818   1.671  1.2347 -1.1486 -1.6902
 3319TIP3    H231449   0.000   2.891   1.677  3.0683  2.2798  0.3390
 3320TIP3   OH231450   4.869   6.060   3.358 -0.0025 -0.3015  0.3360
 3320TIP3    H131451   4.900   5.970   3.350 -1.4683 -0.8495  0.6285
 3320TIP3    H231452   4.837   6.067   3.448  1.5232  1.0113  0.8399
 3321TIP3   OH231453   3.156   5.831   0.715 -0.2026 -0.0342 -0.0250
 3321TIP3    H131454   3.141   5.914   0.762  3.4116 -0.6680  2.7428
 3321TIP3    H231455   3.154   5.855   0.623  0.0299  3.0060  0.6451
 3322TIP3   OH231456   5.710   3.395  10.720 -0.8137 -0.3876 -0.3341
 3322TIP3    H131457   5.792   3.397  10.769 -0.9720  1.3120 -0.0854
 3322TIP3    H231458   5.732   3.355  10.636 -0.0736 -1.3287  0.2909
 3323TIP3   OH231459   5.409   3.853  15.186  0.4191  0.0867 -0.8737
 3323TIP3    H131460   5.467   3.903  15.244  0.8828 -0.4465 -0.8643
 3323TIP3    H231461   5.468   3.802  15.132 -0.0479 -0.7576 -0.6036
 3324TIP3   OH231462   5.863   3.259  15.724 -0.9320 -0.7315  0.2092
 3324TIP3    H131463   5.917   3.192  15.682 -0.9963 -0.0421 -0.9908
 3324TIP3    H231464   5.860   3.331  15.661 -0.7162  0.4938  1.5500
 3325TIP3   OH231465   1.697   6.629   2.003  0.6278  0.4849  0.0648
 3325TIP3    H131466   1.752   6.708   1.996 -0.0135  0.8781 -0.7594
 3325TIP3    H231467   1.608   6.663   2.008  0.3544 -0.1909 -0.1194
 3326TIP3   OH231468   5.182   2.571  12.387 -0.1617  0.0777 -0.3520
 3326TIP3    H131469   5.273   2.597  12.371 -0.0285  0.3186  0.7427
 3326TIP3    H231470   5.187   2.508  12.458 -0.8710  0.1900 -0.1944
 3327TIP3   OH231471   1.754   6.726   0.641 -0.0401  0.0244  0.0189
 3327TIP3    H131472   1.720   6.761   0.723  1.0584  1.5531 -0.1382
 3327TIP3    H231473   1.847   6.749   0.642 -0.2832  1.4648 -2.3029
 3328TIP3   OH231474   0.045   0.649   3.278 -0.2837 -0.2675  0.4854
 3328TIP3    H131475   0.036   0.697   3.360  0.7953 -0.5983  0.8211
 3328TIP3    H231476   0.126   0.598   3.289  0.4267  0.4383 -1.1510
 3329TIP3   OH231477   4.475   5.291  13.912  0.0506 -0.2307  0.1635
 3329TIP3    H131478   4.531   5.362  13.944  0.5655 -0.2737 -0.6141
 3329TIP3    H231479   4.392   5.303  13.958 -0.4403  1.8771 -1.1258
 3330TIP3   OH231480   0.929   1.640   3.047  0.1599 -0.4666 -0.2247
 3330TIP3    H131481   0.912   1.673   2.958 -0.0096  4.3008  1.3015
 3330TIP3    H231482   0.854   1.585   3.066 -0.7011 -0.1909 -2.4341
 3331TIP3   OH231483   3.154   4.090   3.369 -0.0081  0.1304 -0.4325
 3331TIP3    H131484   3.131   4.103   3.461 -1.4723 -1.1415 -0.5766
 3331TIP3    H231485   3.088   4.139   3.321 -1.0236 -1.5301 -0.8176
 3332TIP3   OH231486   3.456   0.424  14.272  0.2720 -0.1014  0.1422
 3332TIP3    H131487   3.486   0.381  14.192  0.6027 -0.1009  0.2626
 3332TIP3    H231488   3.407   0.357  14.320  0.7049 -0.3183  0.2850
 3333TIP3   OH231489   4.675   0.825   5.404 -0.1490 -0.1775 -0.7799
 3333TIP3    H131490   4.766   0.855   5.407  0.0730 -0.8934  0.3244
 3333TIP3    H231491   4.635   0.878   5.335  1.1506 -0.0069 -1.4412
 3334TIP3   OH231492   2.050   2.849   0.519  0.3282  0.3688 -0.0586
 3334TIP3    H131493   1.989   2.908   0.476  0.3793 -0.3984 -1.2405
 3334TIP3    H231494   1.994   2.790   0.570  0.1633  0.4083 -0.1941
 3335TIP3   OH231495   5.147   6.107   1.934 -0.7046 -0.0653  0.1642
 3335TIP3    H131496   5.182   6.194   1.918  0.4939 -0.4171  0.7378
 3335TIP3    H231497   5.098   6.115   2.017 -3.0899  0.7002 -1.2177
 3336TIP3   OH231498   2.707   2.758  16.679 -0.1757 -0.2164 -0.0431
 3336TIP3    H131499   2.762   2.701  16.732  0.1424  0.2656  0.1502
 3336TIP3    H231500   2.682   2.704  16.604  0.2164 -0.5733  0.0800
 3337TIP3   OH231501   1.603   4.965  13.290 -0.0545 -0.2732 -0.0687
 3337TIP3    H131502   1.635   5.028  13.225  0.3251 -1.0439 -0.6496
 3337TIP3    H231503   1.511   4.987  13.301 -0.0823 -0.0139 -0.7499
 3338TIP3   OH231504   0.768   5.612   1.449 -0.3712  0.3498 -0.3405
 3338TIP3    H131505   0.738   5.661   1.525  0.5590 -1.1601  1.0436
 3338TIP3    H231506   0.720   5.530   1.452  0.1497  0.0076 -1.0192
 3339TIP3   OH231507   1.740   6.612   4.812 -0.2346  0.2521  0.0542
 3339TIP3    H131508   1.815   6.553   4.802  0.5324  1.5637 -3.2934
 3339TIP3    H231509   1.692   6.604   4.729 -3.1510  0.3985  1.6114
 3340TIP3   OH231510   1.953   5.892  16.755 -0.0497  0.1312 -0.0572
 3340TIP3    H131511   1.931   5.800  16.768  0.9125 -0.0637  0.2717
 3340TIP3    H231512   1.921   5.937  16.833  1.7381 -0.3419  1.0084
 3341TIP3   OH231513   2.270   3.580   5.076 -0.2638 -0.2321  0.0169
 3341TIP3    H131514   2.262   3.543   4.988  1.1334 -2.7143  0.8213
 3341TIP3    H231515   2.334   3.650   5.067 -1.0347  0.3482 -1.1341
 3342TIP3   OH231516   5.753   1.450   1.160 -0.6888  0.3511  0.5909
 3342TIP3    H131517   5.708   1.529   1.191 -0.1292  0.4995  1.0353
 3342TIP3    H231518   5.740   1.451   1.065 -1.2414  0.6272  0.6653
 3343TIP3   OH231519   6.275   3.827  12.214 -0.1513 -0.0429  0.4342
 3343TIP3    H131520   6.357   3.835  12.264  1.0166 -0.0941 -1.3841
 3343TIP3    H231521   6.207   3.819  12.281  0.8682  3.4820  2.1433
 3344TIP3   OH231522   6.647   2.269   0.936  0.2299  0.4205  0.0863
 3344TIP3    H131523   6.634   2.190   0.883 -0.5051 -0.0268  0.8916
 3344TIP3    H231524   6.701   2.240   1.009 -0.0280  0.6584  0.3746
 3345TIP3   OH231525   2.662   4.589  14.987  0.1289  0.0175 -0.1037
 3345TIP3    H131526   2.654   4.516  14.925  1.4860 -0.8239  0.6645
 3345TIP3    H231527   2.594   4.651  14.960 -1.3924 -1.7312 -0.5065
 3346TIP3   OH231528   2.722   6.302  14.893  0.1185 -0.4457 -0.2296
 3346TIP3    H131529   2.748   6.273  14.980 -0.0758  0.6684  0.2109
 3346TIP3    H231530   2.798   6.351  14.861 -0.0351 -0.3587 -0.4630
 3347TIP3   OH231531   5.788   4.906  16.822 -0.3756  0.1020 -0.6239
 3347TIP3    H131532   5.730   4.854  16.766 -0.9673 -0.3039  0.3383
 3347TIP3    H231533   5.737   4.923  16.901  0.2201  1.2064 -0.4598
 3348TIP3   OH231534   4.079   4.209  13.073 -0.1357  0.5720  0.3913
 3348TIP3    H131535   4.022   4.268  13.024  1.0379  0.5689 -1.0293
 3348TIP3    H231536   4.120   4.265  13.140 -0.1355  1.0506 -0.0068
 3349TIP3   OH231537   0.165   3.410   2.342 -1.1230  0.1551  0.3787
 3349TIP3    H131538   0.165   3.479   2.409 -0.7548 -0.4434  1.0112
 3349TIP3    H231539   0.245   3.360   2.359 -2.2781 -1.5496  1.1484
 3350TIP3   OH231540   4.746   2.579  16.272 -0.6600  0.3139 -0.0551
 3350TIP3    H131541   4.788   2.529  16.202  0.5885  1.0723  0.1140
 3350TIP3    H231542   4.653   2.580  16.250 -0.3986 -0.2056 -1.2169
 3351TIP3   OH231543   0.646   6.500  13.498  0.0013  0.7165  0.6334
 3351TIP3    H131544   0.711   6.548  13.446  0.9837  0.0715  1.2275
 3351TIP3    H231545   0.672   6.515  13.588 -0.4437  0.1028  0.8668
 3352TIP3   OH231546   2.329   2.323   2.309 -0.5620  0.2122  0.4348
 3352TIP3    H131547   2.370   2.291   2.229 -0.3373  0.2779  0.5237
 3352TIP3    H231548   2.400   2.364   2.358 -0.2908 -1.4310  1.5239
 3353TIP3   OH231549   5.475   5.569  15.773 -0.0882 -0.5513  0.1107
 3353TIP3    H131550   5.524   5.515  15.711 -1.1291 -1.3260 -0.0725
 3353TIP3    H231551   5.388   5.530  15.775 -0.9708  1.2974 -0.2390
 3354TIP3   OH231552   0.491   5.882  14.389 -0.7238 -0.3777  0.6934
 3354TIP3    H131553   0.455   5.820  14.326 -2.8331  0.0947  1.3710
 3354TIP3    H231554   0.426   5.952  14.394  0.6165  0.8627  1.5102
 3355TIP3   OH231555   6.159   2.562  12.675 -0.2189  0.3947 -0.6641
 3355TIP3    H131556   6.191   2.636  12.622 -0.8411  0.6426 -0.6973
 3355TIP3    H231557   6.094   2.601  12.734  1.5565  0.4392  1.3911
 3356TIP3   OH231558   6.033   0.904  12.559  0.3152 -0.4996 -0.2255
 3356TIP3    H131559   6.020   0.879  12.467  1.0517  1.5673 -0.9699
 3356TIP3    H231560   6.116   0.862  12.584  1.4645  0.9430 -1.3877
 3357TIP3   OH231561   6.756   2.560   4.140 -0.1370  0.2048  0.4787
 3357TIP3    H131562   6.661   2.557   4.137 -0.0868 -0.5471 -1.6102
 3357TIP3    H231563   6.783   2.472   4.166 -0.0009 -0.9703 -3.1086
 3358TIP3   OH231564   4.593   4.905   5.455  0.1462 -0.9749  0.1559
 3358TIP3    H131565   4.575   4.813   5.471 -0.0638 -1.3494 -1.9422
 3358TIP3    H231566   4.562   4.921   5.365 -2.0705  1.7402  1.2449
 3359TIP3   OH231567   6.545   1.327   5.519  0.1951 -0.0819  0.4413
 3359TIP3    H131568   6.453   1.311   5.538  0.0197  0.0679 -0.2506
 3359TIP3    H231569   6.548   1.416   5.484  0.4929 -0.3351 -0.2089
 3360TIP3   OH231570   3.285   6.468  13.452  0.1547  0.0480 -0.1692
 3360TIP3    H131571   3.328   6.495  13.371 -0.9905  0.7138 -0.5862
 3360TIP3    H231572   3.322   6.524  13.520  0.8873 -0.2905 -0.2864
 3361TIP3   OH231573   1.487   5.664  16.869  0.1915 -0.5982  0.5133
 3361TIP3    H131574   1.471   5.607  16.945 -0.9168 -2.7142 -1.1915
 3361TIP3    H231575   1.473   5.607  16.794  2.4673  1.0865 -1.3297
 3362TIP3   OH231576   4.170   5.572   0.335 -0.0450  0.0396 -0.0836
 3362TIP3    H131577   4.091   5.625   0.338  1.5940  2.6419  0.7820
 3362TIP3    H231578   4.141   5.486   0.305 -3.1199  0.9419  0.0088
 3363TIP3   OH231579   5.622   0.373   4.474 -0.0555  0.0993  0.5014
 3363TIP3    H131580   5.670   0.294   4.447 -2.6297 -1.0469 -1.0282
 3363TIP3    H231581   5.642   0.437   4.406 -1.0518 -0.5554 -0.4395
 3364TIP3   OH231582   5.904   2.803   4.073 -0.0495 -0.0539 -0.4265
 3364TIP3    H131583   5.946   2.876   4.029  1.4085 -0.5066  0.1579
 3364TIP3    H231584   5.867   2.750   4.002  1.7556 -0.4721 -1.0965
 3365TIP3   OH231585   5.893   4.599   1.820  0.4070 -0.2864  0.1993
 3365TIP3    H131586   5.984   4.576   1.802  0.3028 -0.4827 -0.0966
 3365TIP3    H231587   5.843   4.523   1.788  0.0130  0.5457 -1.2477
 3366TIP3   OH231588   0.851   5.685  13.231  0.1491  0.6696 -0.5535
 3366TIP3    H131589   0.852   5.594  13.202 -1.6382  0.5117 -0.2235
 3366TIP3    H231590   0.928   5.694  13.287  0.9698 -0.3196 -1.4938
 3367TIP3   OH231591   5.836   6.646  17.281  0.0623  0.0880  0.1221
 3367TIP3    H131592   5.765   6.667  17.220  0.8236 -0.0352 -0.8514
 3367TIP3    H231593   5.867   6.560  17.253  0.3897  0.0033  0.7275
 3368TIP3   OH231594   6.295   4.282   1.751  0.0224  0.3334  0.6801
 3368TIP3    H131595   6.233   4.325   1.810  0.6288  0.1605  1.4784
 3368TIP3    H231596   6.379   4.325   1.770 -0.0727  1.5604 -1.3921
 3369TIP3   OH231597   1.264   5.688   3.246 -0.1358  0.3468  1.1826
 3369TIP3    H131598   1.188   5.641   3.280  0.3175  0.4080  2.3210
 3369TIP3    H231599   1.228   5.748   3.180 -0.7575 -1.3495 -0.1015
 3370TIP3   OH231600   0.078   1.072  13.603 -0.0552  0.0042  0.6693
 3370TIP3    H131601   0.127   1.125  13.667  1.4610  0.5335 -0.8720
 3370TIP3    H231602   0.032   1.137  13.550 -0.1393 -0.3617  0.2984
 3371TIP3   OH231603   3.038   5.297  14.439  0.0227  0.6815  0.0329
 3371TIP3    H131604   3.075   5.384  14.429 -0.3691  0.8662  0.1685
 3371TIP3    H231605   3.113   5.239  14.448  0.3163  0.8691 -1.1097
 3372TIP3   OH231606   3.683   1.817  15.710 -0.3406  0.0752  0.5577
 3372TIP3    H131607   3.623   1.856  15.646 -2.0150 -1.5784  1.0271
 3372TIP3    H231608   3.712   1.736  15.670 -1.6991 -1.1757  1.9420
 3373TIP3   OH231609   1.360   0.917  16.521  0.1290  0.3795  0.3699
 3373TIP3    H131610   1.294   0.984  16.533  0.5381  0.9542 -0.5138
 3373TIP3    H231611   1.434   0.962  16.481 -0.0062 -0.7940 -1.3127
 3374TIP3   OH231612   0.122   6.601  16.282  0.1693 -0.1862  0.2733
 3374TIP3    H131613   0.029   6.615  16.266  0.2951  0.5799  0.1348
 3374TIP3    H231614   0.164   6.621  16.198  0.5547  0.6148  0.6432
 3375TIP3   OH231615   5.781   3.254   3.722  0.0856  0.3399 -0.1552
 3375TIP3    H131616   5.726   3.204   3.783 -0.9347  0.6108 -0.8246
 3375TIP3    H231617   5.864   3.208   3.722 -0.3725 -0.5215  0.3270
 3376TIP3   OH231618   6.370   3.318  12.890  0.0614  0.2438 -0.6363
 3376TIP3    H131619   6.445   3.338  12.945  0.7305 -1.4520 -0.8598
 3376TIP3    H231620   6.394   3.352  12.804  0.7855 -0.6289 -0.8020
 3377TIP3   OH231621   5.760   5.995  12.155  0.0765  0.2044 -0.0888
 3377TIP3    H131622   5.775   5.928  12.222 -0.3603 -1.6893 -1.8103
 3377TIP3    H231623   5.665   6.005  12.152  0.0721  0.0239 -0.6543
 3378TIP3   OH231624   3.331   6.283   0.361 -0.1204  0.3145 -0.2015
 3378TIP3    H131625   3.274   6.358   0.375  0.3513  0.9486 -1.5122
 3378TIP3    H231626   3.415   6.321   0.336  0.2462 -0.6356 -0.4523
 3379TIP3   OH231627   4.793   4.344   5.950 -0.2268  0.1617  0.2512
 3379TIP3    H131628   4.750   4.306   6.026 -1.2646 -0.7156 -0.7372
 3379TIP3    H231629   4.845   4.273   5.913 -1.3842 -0.0552 -1.0377
 3380TIP3   OH231630   3.119   3.114  10.779 -0.3465  0.1740 -0.5141
 3380TIP3    H131631   3.052   3.083  10.717  0.0389 -0.4659 -0.6212
 3380TIP3    H231632   3.070   3.142  10.856 -0.6764 -1.7684  0.0428
 3381TIP3   OH231633   3.476   4.869   5.868 -0.0787  0.5490 -0.1688
 3381TIP3    H131634   3.464   4.900   5.958  1.8198  1.7045 -0.2617
 3381TIP3    H231635   3.500   4.778   5.877  1.5302  1.0258  0.6196
 3382TIP3   OH231636   2.438   1.277  15.100  0.4949 -0.8222  0.1364
 3382TIP3    H131637   2.489   1.343  15.147  0.1846 -0.9035  0.5910
 3382TIP3    H231638   2.350   1.284  15.137  0.3883 -1.2823 -0.0231
 3383TIP3   OH231639   0.667   3.868  15.105 -0.6104  0.0470 -0.1837
 3383TIP3    H131640   0.575   3.871  15.078 -0.6752 -0.1784  0.0019
 3383TIP3    H231641   0.691   3.959  15.119 -1.7478  0.0067  2.8283
 3384TIP3   OH231642   6.427   4.029   5.274  0.1470 -0.2056 -0.7858
 3384TIP3    H131643   6.367   4.055   5.204 -1.5151  0.1130  0.6771
 3384TIP3    H231644   6.370   3.997   5.344  1.6221  0.7149  0.9463
 3385TIP3   OH231645   2.256   5.390  16.140  0.1680  0.3645  0.4206
 3385TIP3    H131646   2.161   5.389  16.138  0.1806 -0.2065 -0.7512
 3385TIP3    H231647   2.282   5.405  16.050  1.1963  1.1130  0.8278
 3386TIP3   OH231648   0.368   4.400   2.586 -0.0976  0.4283  0.2057
 3386TIP3    H131649   0.320   4.477   2.616  0.2575  1.1885 -1.0974
 3386TIP3    H231650   0.377   4.412   2.491 -1.1696 -1.8633 -0.2630
 3387TIP3   OH231651   3.450   5.199  14.266  0.1638  0.3659 -0.0174
 3387TIP3    H131652   3.454   5.165  14.177 -3.1105  0.0717 -0.1722
 3387TIP3    H231653   3.401   5.281  14.258 -0.2838  0.2767  1.4902
 3388TIP3   OH231654   0.087   5.837   3.442  0.0350  0.1857 -0.1372
 3388TIP3    H131655   0.110   5.790   3.522  0.7213  1.2038  0.3013
 3388TIP3    H231656   0.115   5.779   3.371  2.6500  0.6731  0.3795
 3389TIP3   OH231657   3.935   3.402  13.244  0.2482 -0.0582 -0.9282
 3389TIP3    H131658   3.928   3.453  13.325  0.3119  0.9358 -1.5413
 3389TIP3    H231659   3.975   3.319  13.272  0.4375  0.3423  0.0280
 3390TIP3   OH231660   1.850   3.864  14.881 -0.1630 -0.6089  0.7027
 3390TIP3    H131661   1.861   3.795  14.946 -0.1812 -1.1440  0.1473
 3390TIP3    H231662   1.763   3.849  14.844 -0.2253 -0.2016  0.6779
 3391TIP3   OH231663   0.038   2.723   0.972 -0.3358 -0.1680  0.0046
 3391TIP3    H131664   0.057   2.690   0.884  0.4205 -1.5547  0.6503
 3391TIP3    H231665  -0.057   2.719   0.980 -0.4018 -0.0908 -0.7214
 3392TIP3   OH231666   4.841   5.728  16.584  0.1065  0.2264  0.0587
 3392TIP3    H131667   4.853   5.814  16.625 -0.7810 -0.0548  0.9495
 3392TIP3    H231668   4.762   5.692  16.625 -0.8331 -0.0926 -1.8654
 3393TIP3   OH231669   2.670   0.337   5.849 -0.3596  0.3547  0.2874
 3393TIP3    H131670   2.689   0.387   5.769 -0.8225  1.3082  0.7639
 3393TIP3    H231671   2.754   0.329   5.893 -0.0257 -0.5184 -0.4782
 3394TIP3   OH231672   6.756   4.433  17.355  0.5512 -0.1031  0.0541
 3394TIP3    H131673   6.761   4.509  17.412  0.5678 -0.7225  0.8882
 3394TIP3    H231674   6.723   4.362  17.411  2.8431 -1.3473 -0.0428
 3395TIP3   OH231675   6.377   1.196   3.453  0.0240  0.3203 -0.4985
 3395TIP3    H131676   6.342   1.141   3.523 -0.1520  0.7866 -0.2227
 3395TIP3    H231677   6.303   1.209   3.393 -0.1457  0.9048 -0.1631
 3396TIP3   OH231678   4.333   4.047   0.439  0.0781 -0.0688 -0.0148
 3396TIP3    H131679   4.386   4.033   0.517  0.5258  0.1361 -0.2795
 3396TIP3    H231680   4.335   3.963   0.393 -0.5425 -0.3234  0.4011
 3397TIP3   OH231681   4.914   4.763  13.616 -0.2222 -0.0120  0.1714
 3397TIP3    H131682   4.866   4.831  13.663 -1.3428 -1.2212  0.8639
 3397TIP3    H231683   4.859   4.742  13.541 -0.6441 -1.1586  0.7745
 3398TIP3   OH231684   0.683   5.831  16.477 -0.3102 -0.1695  0.1087
 3398TIP3    H131685   0.660   5.872  16.394 -1.6050  0.6200  0.8100
 3398TIP3    H231686   0.598   5.806  16.515  0.3298 -1.7853  0.5814
 3399TIP3   OH231687   1.452   6.204  12.413  0.1398  0.2829 -0.1953
 3399TIP3    H131688   1.362   6.215  12.445  0.0637  0.1392 -0.3544
 3399TIP3    H231689   1.504   6.192  12.492 -0.1346 -0.6741 -0.1411
 3400TIP3   OH231690   1.383   5.526  17.349  0.3408 -0.3295  0.2324
 3400TIP3    H131691   1.388   5.621  17.346  0.5427 -0.2815  1.5006
 3400TIP3    H231692   1.412   5.503  17.438  1.7757 -1.6730 -0.5455
 3401TIP3   OH231693   6.594   6.716  14.303  0.2225 -0.4622 -0.3814
 3401TIP3    H131694   6.650   6.765  14.362  0.6113 -0.0665 -1.0643
 3401TIP3    H231695   6.505   6.748  14.322  0.0841 -1.7496  1.3373
 3402TIP3   OH231696   1.307   4.440  16.322  0.3922 -0.4339 -0.2255
 3402TIP3    H131697   1.360   4.388  16.261  1.8407 -3.1535  3.0808
 3402TIP3    H231698   1.369   4.500  16.363 -0.0590 -0.3707  0.3697
 3403TIP3   OH231699   5.168   0.831   5.091 -0.1298  0.3973 -0.4959
 3403TIP3    H131700   5.224   0.755   5.104  0.3600  1.0694  1.6297
 3403TIP3    H231701   5.079   0.796   5.094  0.0514 -0.6154 -3.4843
 3404TIP3   OH231702   4.229   0.886  16.561 -0.4321  0.5001 -0.0953
 3404TIP3    H131703   4.144   0.928  16.550 -1.0070 -0.5839  0.1785
 3404TIP3    H231704   4.253   0.855  16.474 -0.8220 -0.1449  0.0234
 3405TIP3   OH231705   3.272   4.152  13.723  0.4062  0.5809  0.3847
 3405TIP3    H131706   3.211   4.174  13.793 -1.7187 -1.3043 -0.7796
 3405TIP3    H231707   3.279   4.233  13.672 -0.5602  1.0386  0.9466
 3406TIP3   OH231708   2.475   5.317  16.261  0.2020  0.5921 -0.2670
 3406TIP3    H131709   2.482   5.250  16.194  1.2078  0.1085  0.2967
 3406TIP3    H231710   2.391   5.360  16.244 -0.0749 -0.2654 -1.1298
 3407TIP3   OH231711   1.020   4.588   5.474 -0.0163 -0.1086 -0.7106
 3407TIP3    H131712   0.944   4.614   5.526 -0.4321  1.9739 -2.2322
 3407TIP3    H231713   1.095   4.625   5.522 -0.1068 -0.6277 -0.1511
 3408TIP3   OH231714   2.157   3.918  13.956  0.3150 -0.2896  0.4794
 3408TIP3    H131715   2.134   3.852  14.021 -0.2244 -2.1344 -1.4960
 3408TIP3    H231716   2.079   3.926  13.901  1.3368 -0.0553 -0.9800
 3409TIP3   OH231717   1.197   6.210  12.504 -0.0118  0.1614  0.1601
 3409TIP3    H131718   1.169   6.275  12.440 -0.5816 -1.1409 -0.9625
 3409TIP3    H231719   1.180   6.126  12.462  1.2336 -0.7256  1.3399
 3410TIP3   OH231720   3.755   2.182  11.603 -0.7093  0.2561 -0.2232
 3410TIP3    H131721   3.728   2.091  11.613  2.9119 -0.7897  1.6916
 3410TIP3    H231722   3.763   2.215  11.692 -2.0491  2.5533 -0.8838
 3411TIP3   OH231723   6.039   3.838   5.720 -0.1493  0.5385 -0.6050
 3411TIP3    H131724   6.085   3.779   5.660 -1.3488 -0.8609 -0.1962
 3411TIP3    H231725   6.099   3.849   5.794  0.9311  1.5008 -1.5867
 3412TIP3   OH231726   6.155   4.654  16.866 -0.1210 -0.2699 -0.0560
 3412TIP3    H131727   6.104   4.631  16.788  0.2149  0.5750 -0.5327
 3412TIP3    H231728   6.089   4.668  16.934 -0.7109  2.2941 -1.0306
 3413TIP3   OH231729   1.408   4.696   1.723 -0.3036  0.2735  0.6325
 3413TIP3    H131730   1.382   4.604   1.720 -1.4650  0.5793 -2.0726
 3413TIP3    H231731   1.329   4.745   1.699  0.8558  1.7930 -0.3204
 3414TIP3   OH231732   6.157   5.427   1.704 -0.2871  0.3994  0.5937
 3414TIP3    H131733   6.228   5.410   1.767  0.6873  1.4938 -0.1850
 3414TIP3    H231734   6.198   5.417   1.618 -1.5615 -0.8808  0.0934
 3415TIP3   OH231735   0.237   2.039   2.138  0.5103  0.3423 -0.1347
 3415TIP3    H131736   0.199   1.962   2.096 -0.5456 -0.1303  1.5836
 3415TIP3    H231737   0.300   2.003   2.201 -0.8454  0.7541  1.5295
 3416TIP3   OH231738   5.762   3.978  14.335  0.1060 -0.2998 -0.0556
 3416TIP3    H131739   5.741   4.072  14.338 -0.5868 -0.4700  1.2666
 3416TIP3    H231740   5.677   3.935  14.332  0.4310 -0.8977 -1.6227
 3417TIP3   OH231741   0.049   3.103   2.238 -0.4269 -0.0639 -0.2354
 3417TIP3    H131742  -0.009   3.056   2.178 -1.0292  2.1155 -1.5007
 3417TIP3    H231743   0.007   3.095   2.324 -2.0597  0.5436 -0.9324
 3418TIP3   OH231744   4.277   5.739  16.378  0.0969  0.3239  0.2677
 3418TIP3    H131745   4.246   5.802  16.312  1.4198 -0.5043 -1.1997
 3418TIP3    H231746   4.260   5.783  16.462 -0.1730  2.0978 -0.6568
 3419TIP3   OH231747   2.743   2.413   1.168 -0.4640 -0.2795  0.3070
 3419TIP3    H131748   2.729   2.450   1.081  0.5471 -1.5924 -0.4611
 3419TIP3    H231749   2.673   2.349   1.179 -1.0284  0.4042  0.7911
 3420TIP3   OH231750   5.467   4.929   2.813 -0.9016  0.1416 -0.2846
 3420TIP3    H131751   5.391   4.966   2.856 -0.4985  0.1686  0.4246
 3420TIP3    H231752   5.518   4.889   2.884 -0.6479 -0.5656 -0.8450
 3421TIP3   OH231753   6.302   5.827   0.209  0.2851  0.2788 -0.6294
 3421TIP3    H131754   6.238   5.897   0.209 -0.0012  0.0183 -1.0108
 3421TIP3    H231755   6.314   5.805   0.117 -0.1508 -0.6494 -0.4701
 3422TIP3   OH231756   0.963   5.988   3.289  0.6249 -0.3304  0.0774
 3422TIP3    H131757   0.912   5.914   3.320  0.0242  0.4094  0.9092
 3422TIP3    H231758   0.956   6.053   3.359  1.1214  0.5150 -0.6385
 3423TIP3   OH231759   2.323   3.523   2.811 -0.4367 -1.0936  0.5326
 3423TIP3    H131760   2.388   3.453   2.803 -0.1123 -0.7889  0.4773
 3423TIP3    H231761   2.311   3.555   2.721 -0.8098 -1.2830  0.5164
 3424TIP3   OH231762   3.089   6.069  12.192  0.1429  0.0851  0.1670
 3424TIP3    H131763   3.030   6.079  12.266 -2.0513 -1.9045 -1.1540
 3424TIP3    H231764   3.093   6.155  12.151  1.0259  1.0928  2.2532
 3425TIP3   OH231765   5.883   1.001   3.471 -0.0450  0.3240  0.6362
 3425TIP3    H131766   5.969   0.960   3.472 -0.5592 -0.8314 -0.4093
 3425TIP3    H231767   5.897   1.084   3.424  0.5526  0.3074  0.7777
 3426TIP3   OH231768   3.318   3.538  10.870  0.4133 -0.6110 -0.4071
 3426TIP3    H131769   3.306   3.630  10.848 -1.3911 -0.3912  1.2619
 3426TIP3    H231770   3.312   3.535  10.966 -0.6651 -2.5876 -0.4909
 3427TIP3   OH231771   5.858   5.504   3.342  0.9286 -0.1060  0.2068
 3427TIP3    H131772   5.779   5.511   3.289  0.0493 -0.6408  1.4149
 3427TIP3    H231773   5.929   5.525   3.281 -0.0307 -0.7921 -1.2113
 3428TIP3   OH231774   0.350   0.893  17.068 -0.4843 -0.1013 -0.4812
 3428TIP3    H131775   0.414   0.944  17.018  1.1261 -1.3137  0.2317
 3428TIP3    H231776   0.390   0.806  17.076 -1.3962 -0.3980  1.5431
 3429TIP3   OH231777   3.888   6.632   4.118 -0.0368  0.3949  0.0498
 3429TIP3    H131778   3.970   6.653   4.162 -0.7843 -0.6618  2.0217
 3429TIP3    H231779   3.821   6.645   4.185 -1.1265 -2.2198 -0.4398
 3430TIP3   OH231780   2.753   4.544  16.314  0.2294  0.9911 -0.1836
 3430TIP3    H131781   2.835   4.499  16.330  0.1093  1.1140  0.8547
 3430TIP3    H231782   2.703   4.484  16.258  0.7634  0.6292 -0.2769
 3431TIP3   OH231783   1.914   2.296   3.897 -0.6632 -0.0842 -0.0190
 3431TIP3    H131784   2.002   2.285   3.860 -0.2649 -3.2650  1.5622
 3431TIP3    H231785   1.886   2.383   3.867  4.1070  2.4326  1.6843
 3432TIP3   OH231786   4.636   2.113   3.624  0.4718  0.1190  0.5563
 3432TIP3    H131787   4.548   2.113   3.661  0.3887 -2.7706  0.6254
 3432TIP3    H231788   4.672   2.199   3.645 -1.5954  0.6253  2.3259
 3433TIP3   OH231789   0.077   1.098  12.656  0.5375  0.0945  0.2418
 3433TIP3    H131790   0.131   1.027  12.691  0.6832  0.0904  0.0093
 3433TIP3    H231791   0.024   1.056  12.588  0.4803  0.1671  0.2422
 3434TIP3   OH231792   6.446   3.740   2.412 -0.1415  0.7530 -0.2231
 3434TIP3    H131793   6.425   3.813   2.355  0.1479  0.3158 -0.8980
 3434TIP3    H231794   6.374   3.677   2.400 -0.3622  0.8912  0.3126
 3435TIP3   OH231795   4.684   2.418  11.135  0.5185  0.2125 -0.0333
 3435TIP3    H131796   4.657   2.452  11.049 -0.3779 -1.9517 -0.6651
 3435TIP3    H231797   4.774   2.387  11.120 -0.2903 -1.9112 -0.7723
 3436TIP3   OH231798   1.050   3.116   0.594 -0.1569 -0.2555 -1.0823
 3436TIP3    H131799   1.095   3.122   0.678 -1.5395  1.7235 -0.4120
 3436TIP3    H231800   1.103   3.054   0.543  0.9915 -1.1144  1.0322
 3437TIP3   OH231801   0.520   2.699   1.622  0.3382  0.7109 -0.6361
 3437TIP3    H131802   0.439   2.716   1.573  0.7884  1.2845 -1.1960
 3437TIP3    H231803   0.491   2.690   1.713 -0.5921 -1.0809 -1.0778
 3438TIP3   OH231804   5.495   4.133   4.606 -0.6046  0.3897  0.5106
 3438TIP3    H131805   5.504   4.063   4.540  2.9107  0.4528  0.7032
 3438TIP3    H231806   5.504   4.214   4.556  0.4389  0.4924  0.8466
 3439TIP3   OH231807   5.664   3.134  13.532  0.3909  0.0207 -0.1888
 3439TIP3    H131808   5.647   3.045  13.501  0.0845  0.3322 -0.9521
 3439TIP3    H231809   5.739   3.163  13.479 -0.4575  0.7411 -1.0383
 3440TIP3   OH231810   4.093   5.103  17.115  0.0773 -0.7019  0.1907
 3440TIP3    H131811   4.161   5.143  17.169 -3.2734  2.0180  2.9377
 3440TIP3    H231812   4.116   5.128  17.025  1.9155  1.4445  1.1641
 3441TIP3   OH231813   5.116   4.038   3.024 -0.9795  0.2194 -0.0023
 3441TIP3    H131814   5.095   3.951   3.059 -1.3199  0.9575  1.7570
 3441TIP3    H231815   5.066   4.044   2.943 -2.4862 -0.5190  0.8308
 3442TIP3   OH231816   3.302   6.018   3.483 -0.5619  0.3223  0.1001
 3442TIP3    H131817   3.324   5.995   3.573 -0.3143 -0.2623 -0.1082
 3442TIP3    H231818   3.211   5.989   3.472 -0.2488 -0.5775 -0.1639
 3443TIP3   OH231819   3.326   4.882  11.127 -0.9083  0.1725 -0.3441
 3443TIP3    H131820   3.236   4.853  11.113 -0.7069  0.1650 -1.7633
 3443TIP3    H231821   3.357   4.907  11.040  0.2409  0.8347  0.2277
 3444TIP3   OH231822   6.455   0.595   5.643 -0.0460 -0.4258  0.3050
 3444TIP3    H131823   6.438   0.667   5.582 -2.3980 -2.1944 -1.3230
 3444TIP3    H231824   6.435   0.632   5.729 -2.8382  0.5256 -0.6395
 3445TIP3   OH231825   0.815   5.396   5.885 -0.3734 -0.0297 -0.2323
 3445TIP3    H131826   0.813   5.301   5.877  0.7798 -0.0134 -0.8899
 3445TIP3    H231827   0.835   5.412   5.977 -1.6003 -0.3916  0.1182
 3446TIP3   OH231828   5.653   0.232  16.676 -0.2664  0.8045 -0.3850
 3446TIP3    H131829   5.695   0.287  16.610  2.6132 -0.0655  0.5484
 3446TIP3    H231830   5.719   0.225  16.746 -1.1944 -2.2965  0.3499
 3447TIP3   OH231831   2.606   6.599   6.038  0.0510  0.8728  0.4655
 3447TIP3    H131832   2.627   6.528   5.977  0.4489 -0.4140  2.0538
 3447TIP3    H231833   2.583   6.673   5.981 -0.3141 -0.4890 -1.2304
 3448TIP3   OH231834   6.177   4.567   4.012 -0.2164  0.6632  0.1179
 3448TIP3    H131835   6.247   4.533   4.069  1.2658  2.9775 -0.1735
 3448TIP3    H231836   6.224   4.610   3.941 -2.0096  0.6253 -1.1376
 3449TIP3   OH231837   5.942   6.128  11.746  0.2972  0.2439 -0.1958
 3449TIP3    H131838   5.911   6.042  11.716 -0.0613  0.3618 -0.1729
 3449TIP3    H231839   5.928   6.126  11.841 -2.2882  1.3224 -0.4774
 3450TIP3   OH231840   5.851   6.076   1.935  0.5203  0.2663  0.2795
 3450TIP3    H131841   5.912   6.003   1.943  0.5878  0.3495  0.5056
 3450TIP3    H231842   5.780   6.042   1.880  1.9264  0.8948 -2.0703
 3451TIP3   OH231843   2.879   3.540  13.332  0.2870 -0.3025 -0.2738
 3451TIP3    H131844   2.864   3.461  13.384 -0.7057 -0.4468 -0.7532
 3451TIP3    H231845   2.959   3.522  13.282 -0.7951 -1.6729 -1.5950
 3452TIP3   OH231846   1.566   5.417  15.373  0.1728  0.3757 -0.2069
 3452TIP3    H131847   1.592   5.376  15.455 -0.3756 -0.7533 -0.5714
 3452TIP3    H231848   1.518   5.496  15.399 -1.6332 -0.9326  0.6479
 3453TIP3   OH231849   2.677   0.262   4.654  0.1634  0.1602  0.0894
 3453TIP3    H131850   2.699   0.347   4.616  0.0798  0.0477 -0.2207
 3453TIP3    H231851   2.750   0.206   4.630  0.0104  0.0346 -0.0931
 3454TIP3   OH231852   1.757   5.636   4.470 -0.3807 -0.2342 -0.1554
 3454TIP3    H131853   1.771   5.691   4.393  1.8974  0.4560  0.6634
 3454TIP3    H231854   1.674   5.591   4.453 -1.1811  1.7334 -1.8853
 3455TIP3   OH231855   0.664   0.870   3.691 -0.3292  0.2641 -0.3652
 3455TIP3    H131856   0.582   0.826   3.670  0.0934  0.2386 -2.1048
 3455TIP3    H231857   0.708   0.811   3.752 -1.7702  0.5012  0.9633
 3456TIP3   OH231858   6.465   5.268   4.086 -0.1099  0.7308  0.2209
 3456TIP3    H131859   6.436   5.218   4.162  0.8492 -1.0528 -0.5034
 3456TIP3    H231860   6.554   5.236   4.069  0.0160  1.6976 -1.1338
 3457TIP3   OH231861   4.855   4.146  16.483 -0.0404 -0.1933  0.0269
 3457TIP3    H131862   4.779   4.198  16.459 -0.2477 -0.5109 -0.0096
 3457TIP3    H231863   4.914   4.208  16.528 -0.5905 -0.0819  0.6118
 3458TIP3   OH231864   6.087   0.144  11.638 -0.3874  0.3180  0.2526
 3458TIP3    H131865   6.062   0.235  11.649 -1.5503  0.0839 -0.2650
 3458TIP3    H231866   6.069   0.125  11.546 -1.0628 -0.6766  0.5658
 3459TIP3   OH231867   5.655   0.474   1.546 -0.1116 -0.2522 -0.1479
 3459TIP3    H131868   5.714   0.468   1.621 -0.7986 -2.0487  0.3121
 3459TIP3    H231869   5.568   0.454   1.581 -0.9787  1.8867 -0.8917
 3460TIP3   OH231870   1.388   4.174  12.914  0.3753 -0.1977 -0.0195
 3460TIP3    H131871   1.391   4.079  12.898 -1.6311 -0.2475 -0.4363
 3460TIP3    H231872   1.392   4.182  13.009  3.5863 -0.4536 -0.0378
 3461TIP3   OH231873   2.948   1.736  16.795 -0.0332  0.0801 -0.5628
 3461TIP3    H131874   3.034   1.778  16.792  0.1346 -0.2194 -0.0846
 3461TIP3    H231875   2.957   1.669  16.863 -1.0790  1.0199  0.5580
 3462TIP3   OH231876   0.231   5.047   5.437 -0.1222 -0.1924  0.0209
 3462TIP3    H131877   0.208   5.091   5.518 -2.5870  0.0443 -0.7356
 3462TIP3    H231878   0.236   4.954   5.460 -0.3068 -0.0754  0.5235
 3463TIP3   OH231879   5.866   0.886   4.540  0.2599  0.8315  0.3493
 3463TIP3    H131880   5.913   0.880   4.623  0.0968 -0.8933  0.3593
 3463TIP3    H231881   5.901   0.814   4.487 -1.7996 -0.0591  0.0819
 3464TIP3   OH231882   1.820   0.409   0.171 -0.2168 -0.5070 -0.5536
 3464TIP3    H131883   1.891   0.405   0.107 -0.6991 -0.4162 -1.1021
 3464TIP3    H231884   1.816   0.501   0.198  0.6563 -0.7290  0.3846
 3465TIP3   OH231885   4.392   1.329   4.041 -0.1856  0.2702  0.2792
 3465TIP3    H131886   4.475   1.295   4.007 -0.3626 -1.0778  1.1539
 3465TIP3    H231887   4.418   1.395   4.106  0.1606  1.3560 -0.9194
 3466TIP3   OH231888   1.796   4.071  10.858 -0.1084 -0.0559  0.4825
 3466TIP3    H131889   1.746   4.152  10.845 -0.1144  0.3785  2.6862
 3466TIP3    H231890   1.869   4.077  10.797 -1.3671  0.4831 -1.0313
 3467TIP3   OH231891   6.572   3.946   3.173  0.3957 -0.1034  0.2063
 3467TIP3    H131892   6.514   4.019   3.155  1.5801  0.9998  0.6874
 3467TIP3    H231893   6.517   3.881   3.216 -0.5222  0.7978  0.4205
 3468TIP3   OH231894   1.391   0.807   0.802  0.7248 -0.3574  0.4664
 3468TIP3    H131895   1.446   0.729   0.812  1.0496  0.0239  1.8310
 3468TIP3    H231896   1.414   0.863   0.876 -1.4975 -0.1819  1.1133
 3469TIP3   OH231897   5.005   3.687  14.747  0.0231  0.0093  0.2352
 3469TIP3    H131898   5.070   3.656  14.684 -0.6532  0.5821 -0.7736
 3469TIP3    H231899   5.051   3.751  14.800  0.3765  0.1796 -0.2713
 3470TIP3   OH231900   4.591   3.287   5.191  0.0996 -0.2782 -0.2033
 3470TIP3    H131901   4.625   3.223   5.128  2.0813 -0.1523  0.6768
 3470TIP3    H231902   4.509   3.248   5.222 -0.4266 -0.8000 -2.1068
 3471TIP3   OH231903   5.733   1.515   0.867 -0.4173 -0.3340  0.3847
 3471TIP3    H131904   5.694   1.575   0.804 -0.1358  0.7609  1.2097
 3471TIP3    H231905   5.682   1.434   0.859 -0.4709 -0.1739 -1.1194
 3472TIP3   OH231906   2.374   0.627  15.678  1.0137 -0.6969 -0.8870
 3472TIP3    H131907   2.390   0.720  15.665  1.1369 -0.3664  1.2985
 3472TIP3    H231908   2.284   0.622  15.709  0.9014 -1.3469 -1.2981
 3473TIP3   OH231909   6.202   2.165  11.635  0.4104  0.0045 -0.4466
 3473TIP3    H131910   6.279   2.108  11.632 -0.7322 -1.5766 -0.9891
 3473TIP3    H231911   6.129   2.108  11.612 -1.1530  1.0964  1.4976
 3474TIP3   OH231912   1.090   2.489  15.788  0.5083 -0.0436 -0.0627
 3474TIP3    H131913   1.179   2.456  15.800  0.6830 -0.8247 -2.8773
 3474TIP3    H231914   1.100   2.571  15.740 -0.2709  0.4671  0.6088
 3475TIP3   OH231915   1.550   2.347  13.563 -1.1770  0.3578 -0.4634
 3475TIP3    H131916   1.642   2.349  13.586 -0.7205  0.0405 -2.1463
 3475TIP3    H231917   1.519   2.437  13.577 -0.4600  0.6187 -0.5300
 3476TIP3   OH231918   4.267   5.865   5.203 -0.8861 -0.4762  0.2268
 3476TIP3    H131919   4.279   5.781   5.158  0.2814 -0.5051  0.5730
 3476TIP3    H231920   4.327   5.861   5.278 -2.7740 -0.4343  1.8204
 3477TIP3   OH231921   5.373   1.168  16.051  0.4066  0.1981 -0.6369
 3477TIP3    H131922   5.327   1.190  15.970  0.3543 -0.0969 -0.6884
 3477TIP3    H231923   5.327   1.090  16.084  0.8097 -0.0406 -0.6389
 3478TIP3   OH231924   3.816   0.111  12.418  0.0430  0.4775  0.1146
 3478TIP3    H131925   3.879   0.089  12.350  0.7717  1.1894  0.5434
 3478TIP3    H231926   3.768   0.186  12.382 -0.8309 -0.3040 -0.3706
 3479TIP3   OH231927   6.211   4.103  16.769 -0.6386  0.2406  0.1450
 3479TIP3    H131928   6.165   4.137  16.692 -0.7552  1.9568  0.9178
 3479TIP3    H231929   6.182   4.012  16.776 -2.6667  0.8057 -0.3202
 3480TIP3   OH231930   3.330   5.731  13.095 -0.0488  0.2700 -0.1593
 3480TIP3    H131931   3.372   5.707  13.012 -0.4126 -1.0391  0.0134
 3480TIP3    H231932   3.370   5.674  13.160 -2.2204 -1.2596 -0.0364
 3481TIP3   OH231933   1.119   2.170   2.620 -0.1277  0.0604  0.4648
 3481TIP3    H131934   1.145   2.248   2.571 -0.2862  0.0831  0.4131
 3481TIP3    H231935   1.100   2.105   2.552 -0.5334  0.1521  0.4876
 3482TIP3   OH231936   0.770   0.644  11.270 -0.0423 -0.3131  0.5398
 3482TIP3    H131937   0.860   0.654  11.237 -0.2937 -2.9898 -1.2280
 3482TIP3    H231938   0.773   0.566  11.325 -1.0633  0.3365  1.5634
 3483TIP3   OH231939   3.627   4.386   4.423  0.2090 -0.0559  0.1007
 3483TIP3    H131940   3.676   4.310   4.391 -1.4157 -0.6622 -1.0907
 3483TIP3    H231941   3.681   4.420   4.494  1.9845 -1.1002 -0.6505
 3484TIP3   OH231942   5.550   2.203  14.733 -0.0168  0.0417 -0.3285
 3484TIP3    H131943   5.637   2.224  14.700  0.5093 -0.4920  0.6383
 3484TIP3    H231944   5.501   2.284  14.726  0.3755  0.1964 -1.4307
 3485TIP3   OH231945   3.738   0.646  17.301 -0.3651 -0.1712  0.0388
 3485TIP3    H131946   3.734   0.663  17.207 -2.1898  0.6368  0.2102
 3485TIP3    H231947   3.668   0.583  17.317  1.6465 -2.4269  0.5193
 3486TIP3   OH231948   1.610   0.671   2.171  0.4598 -0.3873 -0.2989
 3486TIP3    H131949   1.623   0.758   2.209  2.3952 -0.6638 -0.2007
 3486TIP3    H231950   1.555   0.625   2.234  0.9422  0.1967  0.5763
 3487TIP3   OH231951   6.563   0.920   2.939  0.0371 -0.0618  0.1143
 3487TIP3    H131952   6.619   0.909   3.016 -0.0515  0.7102  0.2921
 3487TIP3    H231953   6.583   1.007   2.906 -2.0186  0.8052  0.9724
 3488TIP3   OH231954   3.826   3.035  13.006 -0.1204  0.0873  0.4001
 3488TIP3    H131955   3.914   3.003  12.985 -0.7167 -0.9617 -0.6085
 3488TIP3    H231956   3.823   3.123  12.969  0.0188 -0.4370 -0.9039
 3489TIP3   OH231957   1.195   0.832  17.078  0.3020 -0.0630 -0.4941
 3489TIP3    H131958   1.276   0.785  17.058 -0.3490 -1.2000 -0.5246
 3489TIP3    H231959   1.144   0.827  16.997 -0.6288 -1.1151  0.1369
 3490TIP3   OH231960   2.425   4.313  11.188  0.0463  0.6770 -0.3660
 3490TIP3    H131961   2.465   4.231  11.158 -0.3773  0.3563 -0.0686
 3490TIP3    H231962   2.465   4.330  11.273 -2.0193 -0.8357  0.9922
 3491TIP3   OH231963   4.247   0.380   5.184 -0.1733 -0.3946 -0.1272
 3491TIP3    H131964   4.177   0.335   5.137  0.8942 -1.3821 -0.8303
 3491TIP3    H231965   4.285   0.439   5.120  0.6983 -1.0782 -0.2581
 3492TIP3   OH231966   0.479   3.103  13.993 -0.1073 -0.2750  0.0935
 3492TIP3    H131967   0.452   3.036  13.931  0.4401  0.7840 -1.3330
 3492TIP3    H231968   0.426   3.086  14.071 -2.3291 -0.4054 -1.3557
 3493TIP3   OH231969   3.273   4.187   0.739 -0.4672  0.1645  0.4280
 3493TIP3    H131970   3.304   4.271   0.774 -0.2531  0.0836  0.4360
 3493TIP3    H231971   3.352   4.146   0.704 -0.6198  0.0849  0.1798
 3494TIP3   OH231972   2.667   5.482   5.887 -0.5342 -0.1383 -0.8524
 3494TIP3    H131973   2.652   5.474   5.981  1.6499  0.2791 -0.4116
 3494TIP3    H231974   2.741   5.425   5.869  0.2079  1.1032 -1.9787
 3495TIP3   OH231975   1.231   2.985  16.132  0.3063  0.1409  0.1844
 3495TIP3    H131976   1.252   2.957  16.044 -0.7884  0.4767 -0.2069
 3495TIP3    H231977   1.211   3.079  16.124 -1.7379 -0.2147  0.3795
 3496TIP3   OH231978   1.776   0.927  16.207 -0.2823 -0.3067  0.5808
 3496TIP3    H131979   1.855   0.903  16.255  0.0691 -0.1825  0.0830
 3496TIP3    H231980   1.720   0.850  16.212  1.0754 -1.5284 -1.4968
 3497TIP3   OH231981   0.377   6.730   3.670 -0.0538 -0.3459  0.4105
 3497TIP3    H131982   0.352   6.759   3.757 -2.5215  1.2585 -0.7120
 3497TIP3    H231983   0.369   6.635   3.672 -1.0751 -0.2473  1.6472
 3498TIP3   OH231984   0.448   2.247  16.450  0.3616 -0.1788  0.5177
 3498TIP3    H131985   0.504   2.207  16.516  1.1511 -0.3019 -0.2061
 3498TIP3    H231986   0.490   2.331  16.431 -0.7387  0.5845  1.3133
 3499TIP3   OH231987   5.830   3.869  11.790 -0.1910  0.2211  0.0682
 3499TIP3    H131988   5.831   3.776  11.768 -0.7172 -0.1753  1.6226
 3499TIP3    H231989   5.747   3.882  11.836  1.2529  0.7256  2.7532
 3500TIP3   OH231990   5.604   1.292   0.431 -0.8304 -0.7070  0.1482
 3500TIP3    H131991   5.632   1.206   0.462  0.0818 -0.1076  1.0745
 3500TIP3    H231992   5.671   1.352   0.464 -2.1406  0.5287  0.6535
 3501TIP3   OH231993   0.839   2.284  15.477 -0.5128  0.2057 -0.6113
 3501TIP3    H131994   0.786   2.361  15.493 -1.7696 -0.8303  0.4522
 3501TIP3    H231995   0.780   2.210  15.492  0.9108 -0.9807 -0.5823
 3502TIP3   OH231996   0.011   0.628   2.912 -0.6354 -0.0983  0.1843
 3502TIP3    H131997   0.038   0.702   2.967 -1.6181  0.3273  0.1223
 3502TIP3    H231998  -0.069   0.595   2.954 -1.2108  0.0187 -0.7808
 3503TIP3   OH231999   2.257   0.116  13.476  0.8544  0.2735  0.0405
 3503TIP3    H132000   2.295   0.047  13.423  0.7427  1.7417 -2.0696
 3503TIP3    H232001   2.306   0.195  13.453  3.5151  0.4802  5.0318
 3504TIP3   OH232002   1.524   4.719  14.030  0.1592 -0.3357  0.5325
 3504TIP3    H132003   1.470   4.693  13.956 -0.7960  0.1979  1.0343
 3504TIP3    H232004   1.464   4.760  14.091  0.9496 -0.6761  1.5677
 3505TIP3   OH232005   3.261   1.522  16.753 -0.2161  0.2011 -0.3222
 3505TIP3    H132006   3.291   1.606  16.717  1.0766 -0.6333 -1.2635
 3505TIP3    H232007   3.330   1.494  16.812 -1.3104  0.4629  1.1471
 3506TIP3   OH232008   0.233   2.813   1.171  0.3185 -0.4718 -0.0301
 3506TIP3    H132009   0.168   2.867   1.217  0.2493 -1.5205  1.1430
 3506TIP3    H232010   0.190   2.789   1.089 -1.0845 -1.6946  1.0131
 3507TIP3   OH232011   4.708   4.027  11.588  0.8350 -0.1926  0.9767
 3507TIP3    H132012   4.786   4.019  11.642  0.3128 -3.2696  1.5022
 3507TIP3    H232013   4.715   3.955  11.525 -1.4234 -0.3905  0.8636
 3508TIP3   OH232014   3.996   2.828  12.056  0.1358  0.3036  1.1098
 3508TIP3    H132015   4.086   2.854  12.078  1.0491 -0.3467 -1.4852
 3508TIP3    H232016   3.996   2.733  12.061  0.1868  0.1672 -0.6770
 3509TIP3   OH232017   4.929   5.313  10.577  0.3845 -0.4337 -0.2276
 3509TIP3    H132018   4.835   5.302  10.588  0.2337 -0.9085 -1.6864
 3509TIP3    H232019   4.950   5.393  10.624 -1.1679  0.9408 -1.7209
 3510TIP3   OH232020   2.305   5.047  14.203  0.4960  0.0663  0.2502
 3510TIP3    H132021   2.388   5.079  14.239  0.1884  0.1409  0.9107
 3510TIP3    H232022   2.326   5.020  14.113  0.7097  2.3510 -0.4357
 3511TIP3   OH232023   1.884   6.750   5.434 -0.3299  0.0858  0.2126
 3511TIP3    H132024   1.791   6.726   5.426 -0.3450  0.6542 -2.1442
 3511TIP3    H232025   1.883   6.843   5.457 -0.2910 -0.4022  2.3594
 3512TIP3   OH232026   3.405   6.015  16.005  1.0700  0.4843 -0.7959
 3512TIP3    H132027   3.455   6.084  16.049 -0.6367  0.3855  1.4777
 3512TIP3    H232028   3.460   5.937  16.013  1.5843  0.8817 -0.4100
 3513TIP3   OH232029   1.085   3.366   4.477  0.3414 -0.2875  0.2533
 3513TIP3    H132030   1.103   3.460   4.475  0.8558 -0.3922 -0.4905
 3513TIP3    H232031   1.027   3.354   4.553 -2.3096  1.0972 -1.3790
 3514TIP3   OH232032   0.501   0.428   5.368  0.2022 -0.0630  0.3235
 3514TIP3    H132033   0.505   0.464   5.279  0.0554 -0.1735  0.2713
 3514TIP3    H232034   0.567   0.477   5.417 -2.0372  2.4890  1.0619
 3515TIP3   OH232035   1.998   0.679   0.688  0.3952 -0.1593 -0.3782
 3515TIP3    H132036   2.041   0.679   0.774  0.8688 -0.1004 -0.6123
 3515TIP3    H232037   1.927   0.615   0.696 -0.4155  0.7966  0.4743
 3516TIP3   OH232038   5.851   1.266   4.654  0.1834  0.4982  0.6182
 3516TIP3    H132039   5.874   1.305   4.738  3.2424  0.6260 -0.1599
 3516TIP3    H232040   5.861   1.337   4.591 -3.0255  0.6717  0.1412
 3517TIP3   OH232041   2.964   3.741  14.780 -0.7344 -0.5186 -0.5548
 3517TIP3    H132042   2.972   3.680  14.706  2.2937  1.1689 -1.8066
 3517TIP3    H232043   2.974   3.685  14.858 -1.9421 -2.0661 -1.4586
 3518TIP3   OH232044   3.956   2.491  11.430 -0.1756  0.9841  0.1013
 3518TIP3    H132045   3.984   2.465  11.342  0.5116  1.1757  0.2543
 3518TIP3    H232046   4.021   2.452  11.488 -1.3969 -0.3253  0.6623
 3519TIP3   OH232047   5.582   3.281   4.477 -0.2424  0.1944  0.1745
 3519TIP3    H132048   5.599   3.363   4.432 -3.0059 -0.2230 -1.8678
 3519TIP3    H232049   5.556   3.306   4.566  0.8425  1.3547  0.1820
 3520TIP3   OH232050   2.006   5.916   2.884  0.4357  0.7432 -0.4953
 3520TIP3    H132051   1.923   5.958   2.904  1.0569  2.0129 -0.4428
 3520TIP3    H232052   1.991   5.872   2.801 -0.7057 -0.3173  0.2450
 3521TIP3   OH232053   5.831   1.886  17.034 -0.4537  0.1276  0.1644
 3521TIP3    H132054   5.799   1.963  17.080 -2.9757 -1.1208  0.7021
 3521TIP3    H232055   5.896   1.919  16.973 -0.4858  2.4695  1.3001
 3522TIP3   OH232056   1.334   1.387   0.949  0.2462 -0.3555  0.4653
 3522TIP3    H132057   1.347   1.358   0.859 -0.6363  0.6864 -0.0141
 3522TIP3    H232058   1.277   1.320   0.988 -1.0555  0.2328 -0.3703
 3523TIP3   OH232059   2.158   6.474  16.575  0.2728 -0.1921  0.0523
 3523TIP3    H132060   2.096   6.402  16.571  0.1045  0.0014 -2.5134
 3523TIP3    H232061   2.106   6.552  16.554  0.4790  0.7328  2.5863
 3524TIP3   OH232062   5.295   5.463  16.472 -0.0101 -0.2346 -0.4120
 3524TIP3    H132063   5.300   5.555  16.500  0.3854 -0.3343 -0.1566
 3524TIP3    H232064   5.300   5.468  16.376  0.0714  0.0050 -0.3967
 3525TIP3   OH232065   0.400   4.378  16.231  0.2342  0.5513  0.1291
 3525TIP3    H132066   0.351   4.459  16.240 -0.8813 -0.1437  0.5081
 3525TIP3    H232067   0.356   4.330  16.161  0.3211 -0.1112  0.5125
 3526TIP3   OH232068   0.253   5.969  15.379 -0.3713  0.5726 -0.1393
 3526TIP3    H132069   0.262   5.942  15.288  2.6669  0.8505 -0.0251
 3526TIP3    H232070   0.172   6.020  15.381 -2.2122 -2.0542 -1.9364
 3527TIP3   OH232071   3.517   1.107  12.518 -0.7732 -0.0414 -0.0972
 3527TIP3    H132072   3.568   1.054  12.578 -1.6099  0.6165  1.2521
 3527TIP3    H232073   3.452   1.047  12.482 -0.0543 -0.5160 -0.6172
 3528TIP3   OH232074   0.944   2.610   3.125  0.0957  0.0281 -0.0766
 3528TIP3    H132075   0.991   2.691   3.100 -1.6531  1.2336  0.3786
 3528TIP3    H232076   0.966   2.548   3.055  0.3155  1.3613 -1.2440
 3529TIP3   OH232077   5.564   0.888  10.432 -0.2311  0.1961  0.3888
 3529TIP3    H132078   5.552   0.850  10.345 -0.8564 -0.2273  0.6476
 3529TIP3    H232079   5.517   0.829  10.490 -0.1110  0.6635  0.9719
 3530TIP3   OH232080   3.975   4.475  13.924  0.1961 -0.0758  0.1847
 3530TIP3    H132081   4.023   4.482  14.006  0.9001  0.7044 -0.2751
 3530TIP3    H232082   4.010   4.397  13.882  0.8646  0.3144 -0.0052
 3531TIP3   OH232083   5.262   5.566   1.460 -0.1514  0.3007 -0.3556
 3531TIP3    H132084   5.341   5.603   1.499  0.7133 -0.2547 -1.5143
 3531TIP3    H232085   5.191   5.623   1.489  0.4540  0.0207  1.8323
 3532TIP3   OH232086   5.899   2.286  12.110  0.4508 -0.1215 -0.0075
 3532TIP3    H132087   5.807   2.310  12.121  0.2809 -1.0006  0.5786
 3532TIP3    H232088   5.900   2.227  12.035 -0.0413 -3.0127  2.1019
 3533TIP3   OH232089   3.503   1.662   5.153  0.1204 -0.0158  0.4736
 3533TIP3    H132090   3.453   1.686   5.075 -0.1816  0.4778  0.8177
 3533TIP3    H232091   3.550   1.582   5.127 -1.5909 -1.0566  0.4457
 3534TIP3   OH232092   1.466   3.680   0.010 -0.1594 -0.0818  0.5391
 3534TIP3    H132093   1.557   3.709   0.014 -0.3600  0.5367  0.7877
 3534TIP3    H232094   1.466   3.597   0.058  0.9010 -1.8769 -2.3198
 3535TIP3   OH232095   5.829   4.911  12.855  0.6362  0.4792  0.1873
 3535TIP3    H132096   5.761   4.868  12.805  1.1596  0.6504 -0.6840
 3535TIP3    H232097   5.787   4.990  12.889 -0.1569 -0.3836  1.3111
 3536TIP3   OH232098   1.282   3.789  14.302  0.2212 -0.0247  0.1195
 3536TIP3    H132099   1.318   3.876  14.285  1.2870 -0.2507  1.0976
 3536TIP3    H232100   1.274   3.785  14.398 -0.5980 -0.7050  0.0337
 3537TIP3   OH232101   0.686   4.337  12.550 -0.0446 -0.3870  0.1840
 3537TIP3    H132102   0.723   4.288  12.624 -2.1456  1.8806  3.0123
 3537TIP3    H232103   0.646   4.414  12.591 -1.0799  1.2022 -3.4419
 3538TIP3   OH232104   0.301   6.747   2.756 -0.1885 -0.3459 -0.0268
 3538TIP3    H132105   0.384   6.794   2.771 -1.1166  0.9782  1.2566
 3538TIP3    H232106   0.249   6.807   2.702  0.6981 -2.4001 -3.4486
 3539TIP3   OH232107   3.769   3.193  14.736  0.0045  0.0891 -0.0031
 3539TIP3    H132108   3.689   3.241  14.757 -0.1823  1.6884 -3.6601
 3539TIP3    H232109   3.839   3.244  14.778 -0.5503  1.4325 -0.6400
 3540TIP3   OH232110   6.610   5.873   4.575 -0.0742 -0.0893  0.0433
 3540TIP3    H132111   6.603   5.884   4.480 -0.2131  0.3193  0.1002
 3540TIP3    H232112   6.555   5.797   4.594 -0.3017  0.0248 -0.1619
 3541TIP3   OH232113   0.865   6.078   2.455 -0.1684 -0.2306  0.4940
 3541TIP3    H132114   0.796   6.134   2.419 -1.4533 -1.8160  0.3851
 3541TIP3    H232115   0.887   6.019   2.384  3.3733  1.9187 -0.4767
 3542TIP3   OH232116   6.356   2.720  12.217  0.2697 -0.4716 -0.0040
 3542TIP3    H132117   6.304   2.641  12.201  0.7978 -0.7920 -0.1488
 3542TIP3    H232118   6.301   2.791  12.183 -0.2346 -0.7654  0.1813
 3543TIP3   OH232119   0.219   2.807   0.226 -0.5006 -0.0320  0.0367
 3543TIP3    H132120   0.203   2.713   0.231 -0.6489  0.0625  1.7839
 3543TIP3    H232121   0.183   2.833   0.141 -0.6951 -1.4947 -0.3502
 3544TIP3   OH232122   0.833   2.903   5.740  0.1799 -0.5890  0.2399
 3544TIP3    H132123   0.741   2.879   5.727  0.2712 -1.7939  1.4784
 3544TIP3    H232124   0.847   2.894   5.834  1.8059 -1.4329 -0.0284
 3545TIP3   OH232125   4.656   6.504  14.978 -0.0544 -0.0119 -0.3023
 3545TIP3    H132126   4.676   6.537  14.891 -0.1472 -0.1642 -0.3823
 3545TIP3    H232127   4.695   6.568  15.038 -3.0486  2.0798 -0.3983
 3546TIP3   OH232128   5.753   1.123   1.927  0.2800  0.2814  0.1741
 3546TIP3    H132129   5.664   1.091   1.944  0.3103 -0.5662 -1.1195
 3546TIP3    H232130   5.809   1.047   1.945  0.5312  0.1535 -1.0644
 3547TIP3   OH232131   1.238   2.952  14.306  0.1602  0.5134 -0.1503
 3547TIP3    H132132   1.254   2.882  14.242 -1.2237  0.5315 -0.5333
 3547TIP3    H232133   1.321   2.999  14.311  0.7975 -0.5105 -0.6709
 3548TIP3   OH232134   3.985   3.670   2.950 -0.0526 -0.5764 -0.0472
 3548TIP3    H132135   3.917   3.697   3.011 -0.4428 -2.2961  0.3266
 3548TIP3    H232136   4.012   3.583   2.981  2.0267 -0.1179 -0.4299
 3549TIP3   OH232137   0.625   5.069   0.176  0.0824  0.0115 -0.1844
 3549TIP3    H132138   0.597   5.095   0.089 -1.0698 -1.2040 -0.2059
 3549TIP3    H232139   0.550   5.022   0.213  1.0340 -0.7098  0.9195
 3550TIP3   OH232140   6.337   6.307  12.903  0.5229 -0.4803  0.3089
 3550TIP3    H132141   6.409   6.294  12.965  1.9380 -0.6934 -1.3243
 3550TIP3    H232142   6.286   6.226  12.908  0.1740 -0.2028  1.7079
 3551TIP3   OH232143   6.358   5.743   5.392 -0.0800 -0.1218 -0.1144
 3551TIP3    H132144   6.287   5.733   5.328 -0.1670  0.2327 -0.0761
 3551TIP3    H232145   6.321   5.800   5.460  0.2084 -0.0086 -0.0498
 3552TIP3   OH232146   1.812   0.498  11.055 -0.1846  0.0681  0.1655
 3552TIP3    H132147   1.741   0.474  11.114  0.0254  2.2807  1.4375
 3552TIP3    H232148   1.837   0.586  11.083  0.8534  0.6660 -2.3873
 3553TIP3   OH232149   5.159   1.164   1.242  0.4532 -0.0002 -0.2886
 3553TIP3    H132150   5.115   1.133   1.321  1.6742 -0.5091  0.2184
 3553TIP3    H232151   5.219   1.232   1.273 -0.4435  1.1872 -1.0637
 3554TIP3   OH232152   6.477   1.555  14.119 -0.0868 -0.2611  0.0743
 3554TIP3    H132153   6.551   1.555  14.059  0.0106  1.7657  0.1179
 3554TIP3    H232154   6.419   1.624  14.085 -0.4301  0.3511  1.8097
 3555TIP3   OH232155   6.717   1.052  17.018 -0.3279 -0.2280  0.0970
 3555TIP3    H132156   6.798   1.093  16.989 -1.0187  1.4839  0.4533
 3555TIP3    H232157   6.729   1.039  17.112  0.0455 -1.2658 -0.0821
 3556TIP3   OH232158   4.795   1.316  14.466  0.1064  0.3792  0.0381
 3556TIP3    H132159   4.717   1.323  14.521  0.2090 -0.6884  0.3631
 3556TIP3    H232160   4.854   1.260  14.517  0.8173  0.6225 -0.4997
 3557TIP3   OH232161   2.922   0.300  13.024  0.2113 -0.7356  0.5828
 3557TIP3    H132162   2.866   0.325  12.951  0.5770 -0.3709  0.4240
 3557TIP3    H232163   2.923   0.204  13.022  2.0925 -0.7352 -1.3501
 3558TIP3   OH232164   3.831   3.217  17.202  0.3575  0.7980 -0.4349
 3558TIP3    H132165   3.836   3.172  17.118  1.5002  1.1599 -0.5843
 3558TIP3    H232166   3.738   3.215  17.225 -0.1420  1.5701 -2.1915
 3559TIP3   OH232167   3.486   0.891   6.124  0.1827  0.1715  0.2809
 3559TIP3    H132168   3.438   0.973   6.119 -0.0477  0.0117 -0.1509
 3559TIP3    H232169   3.489   0.858   6.034  0.4627 -0.1846  0.4137
 3560TIP3   OH232170   1.562   6.659  14.273 -0.0982  0.0361 -0.2457
 3560TIP3    H132171   1.551   6.565  14.290 -1.9609  0.2121 -0.2951
 3560TIP3    H232172   1.580   6.665  14.180  0.6172 -0.2967 -0.1365
 3561TIP3   OH232173   0.788   2.074  16.163 -0.2850  0.2934  0.1531
 3561TIP3    H132174   0.758   1.993  16.122 -2.4961  0.1831  1.8219
 3561TIP3    H232175   0.748   2.144  16.111  1.3647  0.4039 -1.0895
 3562TIP3   OH232176   3.649   1.122  15.729 -0.4214  0.7307  0.6405
 3562TIP3    H132177   3.593   1.087  15.659 -0.6620  1.0443  0.6745
 3562TIP3    H232178   3.660   1.215  15.707  0.5165  0.5579  0.3538
 3563TIP3   OH232179   0.682   2.289  11.643  0.0019  0.6943  0.1247
 3563TIP3    H132180   0.747   2.359  11.631  1.5377 -0.7915 -0.5105
 3563TIP3    H232181   0.688   2.237  11.563 -0.9273 -0.3332  0.7013
 3564TIP3   OH232182   6.432   1.773   1.346 -0.2652  0.0258 -0.5065
 3564TIP3    H132183   6.482   1.855   1.348  1.3585 -0.9411 -0.1518
 3564TIP3    H232184   6.385   1.772   1.430  2.0120 -0.7455  0.8358
 3565TIP3   OH232185   0.102   3.440  15.367  0.7140  0.5090  0.5947
 3565TIP3    H132186   0.128   3.522  15.324 -1.1908  1.1310  0.5632
 3565TIP3    H232187   0.048   3.468  15.441  0.7042 -0.7107  1.0657
 3566TIP3   OH232188   6.678   5.122  15.770 -0.1033  0.4780 -0.1259
 3566TIP3    H132189   6.599   5.140  15.821  0.6502  0.1759  1.2084
 3566TIP3    H232190   6.651   5.132  15.679 -2.0158 -0.8340  0.2239
 3567TIP3   OH232191   1.186   5.689   2.265  0.2504 -0.4669 -0.2164
 3567TIP3    H132192   1.120   5.677   2.333 -0.5572  0.8334 -0.7170
 3567TIP3    H232193   1.259   5.732   2.309 -0.4889  0.8751 -0.2261
 3568TIP3   OH232194   3.221   4.351  16.079 -0.5930 -0.0454 -0.0727
 3568TIP3    H132195   3.134   4.333  16.045 -0.6053 -1.2678  0.5480
 3568TIP3    H232196   3.268   4.268  16.070  0.6925  0.7355 -0.8970
 3569TIP3   OH232197   2.949   2.785   5.454  0.7372 -0.5228 -0.3347
 3569TIP3    H132198   3.027   2.778   5.510  2.7200  0.9322 -2.7025
 3569TIP3    H232199   2.915   2.873   5.472  1.4941  0.0236 -1.4783
 3570TIP3   OH232200   1.615   3.278   6.839 -0.2562 -0.5998  1.0412
 3570TIP3    H132201   1.590   3.363   6.876  3.5931  0.8698  0.7776
 3570TIP3    H232202   1.652   3.230   6.913  0.4446 -0.7559  0.5968
 3571TIP3   OH232203   2.793   0.186  11.613  0.7166 -0.3888  0.1220
 3571TIP3    H132204   2.805   0.212  11.522 -0.9261 -1.3323 -0.3927
 3571TIP3    H232205   2.796   0.091  11.613  1.1548 -0.4003  1.1503
 3572TIP3   OH232206   3.199   2.705   3.691 -0.0733 -0.1878  0.3536
 3572TIP3    H132207   3.226   2.750   3.771 -0.3282 -1.4506  1.1774
 3572TIP3    H232208   3.119   2.750   3.664 -0.0557  0.1659  0.8824
 3573TIP3   OH232209   6.314   0.325   5.166  0.0191  0.0667  0.4224
 3573TIP3    H132210   6.299   0.370   5.250 -1.6686  1.6467 -0.6358
 3573TIP3    H232211   6.404   0.345   5.144 -0.1170  1.3297  0.9280
 3574TIP3   OH232212   1.205   6.133  14.683 -0.8482 -0.0456 -0.1485
 3574TIP3    H132213   1.214   6.074  14.758  1.5061  0.8151  0.3620
 3574TIP3    H232214   1.141   6.198  14.712 -0.4982 -0.1270  0.8624
 3575TIP3   OH232215   5.772   1.815  16.489 -0.9066 -0.1069 -0.1209
 3575TIP3    H132216   5.810   1.819  16.576 -0.2273 -1.3267 -0.3471
 3575TIP3    H232217   5.839   1.852  16.431 -0.3039 -1.6142 -0.4284
 3576TIP3   OH232218   3.815   6.327  15.181  0.2211  0.4203 -0.1487
 3576TIP3    H132219   3.766   6.388  15.126  0.4061  1.2569  0.5981
 3576TIP3    H232220   3.874   6.383  15.232  1.7913 -0.5308 -0.8577
 3577TIP3   OH232221   1.743   0.661   2.521 -0.3102 -0.7097 -0.1909
 3577TIP3    H132222   1.782   0.691   2.439  1.7273 -1.4349  0.4720
 3577TIP3    H232223   1.650   0.685   2.512  0.6076  3.6073 -0.7390
 3578TIP3   OH232224   3.519   4.137  13.337  0.2448  0.7110 -0.3797
 3578TIP3    H132225   3.512   4.070  13.270  2.2464  0.5257 -0.4408
 3578TIP3    H232226   3.490   4.094  13.417  1.3326 -0.1748 -0.4550
 3579TIP3   OH232227   1.272   4.307  16.564 -0.0154  0.0284 -0.1576
 3579TIP3    H132228   1.337   4.366  16.602 -0.7688  1.4893 -1.0490
 3579TIP3    H232229   1.259   4.339  16.475 -2.2045  0.0199  0.1059
 3580TIP3   OH232230   4.194   0.623   5.445  0.4314 -0.3660 -0.1749
 3580TIP3    H132231   4.278   0.658   5.472  0.2578 -0.2798  0.2476
 3580TIP3    H232232   4.201   0.528   5.461  0.7296 -0.4722 -0.8803
 3581TIP3   OH232233   3.603   0.330  16.490  0.0906  0.5275  0.0842
 3581TIP3    H132234   3.565   0.251  16.450 -1.6404  1.6917 -0.7121
 3581TIP3    H232235   3.651   0.372  16.419 -2.1644  2.0877 -0.6233
 3582TIP3   OH232236   5.654   2.054   4.919 -0.3526 -0.1177 -0.9081
 3582TIP3    H132237   5.658   2.029   5.012  0.9415 -2.2795 -1.4536
 3582TIP3    H232238   5.714   2.128   4.911 -1.1732  0.6800  0.1184
 3583TIP3   OH232239   3.479   3.852  16.027 -0.2766 -0.4909 -1.1624
 3583TIP3    H132240   3.556   3.897  16.061  0.1087 -0.3899 -2.1421
 3583TIP3    H232241   3.414   3.921  16.014 -0.9230 -0.7105  0.6478
 3584TIP3   OH232242   1.608   1.615   3.059  0.4272 -0.2386 -0.4382
 3584TIP3    H132243   1.699   1.624   3.030  0.6212 -2.1005 -0.5322
 3584TIP3    H232244   1.584   1.526   3.035 -0.9573 -0.2594  0.8648
 3585TIP3   OH232245   2.314   6.297   2.755  0.2319 -0.5489  0.6985
 3585TIP3    H132246   2.244   6.270   2.696  0.4116 -0.6594  0.5327
 3585TIP3    H232247   2.301   6.245   2.834  1.1759 -1.9026  0.0120
 3586TIP3   OH232248   0.631   2.953   1.628  0.8209  0.2035  0.1419
 3586TIP3    H132249   0.604   2.862   1.632 -1.3433  0.7977  0.9183
 3586TIP3    H232250   0.609   2.981   1.539 -2.2204  0.8736  0.9593
 3587TIP3   OH232251   1.066   3.582   0.357  0.5484  0.4340  0.1373
 3587TIP3    H132252   1.074   3.515   0.424 -0.9533  0.3783  0.3080
 3587TIP3    H232253   0.977   3.572   0.323  1.1821  0.6051 -1.7194
 3588TIP3   OH232254   2.120   6.351  15.125  0.1733  0.0087 -0.3482
 3588TIP3    H132255   2.172   6.389  15.195 -1.6135  0.1347  0.9683
 3588TIP3    H232256   2.056   6.419  15.102 -0.4914 -0.7203 -0.7360
 3589TIP3   OH232257   5.289   1.927  11.617 -0.6011  0.1062  0.4992
 3589TIP3    H132258   5.201   1.926  11.654 -2.5555  1.6437 -3.4434
 3589TIP3    H232259   5.308   2.020  11.601  1.6178 -0.2116  0.9095
 3590TIP3   OH232260   5.116   6.322  10.572  0.0865  0.2157  0.4886
 3590TIP3    H132261   5.044   6.342  10.512  1.4744  0.3885 -1.2044
 3590TIP3    H232262   5.114   6.392  10.637 -2.4334 -0.8167  1.6672
 3591TIP3   OH232263   2.242   0.138   0.751  0.5905  0.3404  0.1482
 3591TIP3    H132264   2.201   0.051   0.751 -1.2022  1.1526  0.2752
 3591TIP3    H232265   2.328   0.124   0.711 -0.4256 -1.1386 -1.6420
 3592TIP3   OH232266   6.694   4.298  10.822 -0.4063  0.3640  0.1215
 3592TIP3    H132267   6.766   4.235  10.816 -0.3167  0.5741 -1.1886
 3592TIP3    H232268   6.723   4.372  10.769 -2.0885 -0.0404 -1.4320
 3593TIP3   OH232269   3.419   1.336  17.124  0.6995  0.0785 -0.3996
 3593TIP3    H132270   3.373   1.255  17.148 -1.2143  0.7494 -1.5894
 3593TIP3    H232271   3.413   1.339  17.028 -0.1498  2.0881 -0.3331
 3594TIP3   OH232272   0.312   3.724   5.809  0.0473  0.1775  0.2402
 3594TIP3    H132273   0.292   3.715   5.903 -1.3402 -0.8954 -0.1318
 3594TIP3    H232274   0.295   3.816   5.790 -0.9528  0.1148  0.7773
 3595TIP3   OH232275   6.252   3.809  13.187 -0.5296 -0.0442 -0.1502
 3595TIP3    H132276   6.261   3.721  13.224 -1.4450 -0.5026 -0.9643
 3595TIP3    H232277   6.342   3.837  13.169 -0.0019  0.3796  2.7225
 3596TIP3   OH232278   6.387   3.009  11.504  0.0648 -0.3355 -0.2454
 3596TIP3    H132279   6.394   3.064  11.426 -1.8628  0.9610  0.4365
 3596TIP3    H232280   6.459   2.946  11.495  2.0735  1.9500 -1.3298
 3597TIP3   OH232281   0.762   1.087   1.073  0.3042 -0.7685  0.3558
 3597TIP3    H132282   0.771   1.034   0.994 -0.0808 -0.4055  0.0626
 3597TIP3    H232283   0.796   1.173   1.049 -0.2970 -0.5046  0.4183
 3598TIP3   OH232284   3.030   5.203  13.275 -0.0226  0.1523  0.5918
 3598TIP3    H132285   3.098   5.258  13.314 -0.2568  0.5518  0.4396
 3598TIP3    H232286   3.077   5.145  13.216  0.0820  1.1454 -0.3272
 3599TIP3   OH232287   0.283   5.625  15.078  0.1108  0.1887  0.3055
 3599TIP3    H132288   0.322   5.551  15.125  1.3126  0.5198 -0.1457
 3599TIP3    H232289   0.198   5.638  15.121  0.3408 -0.7602  1.0869
 3600TIP3   OH232290   3.102   1.757   3.257 -0.7101  0.5794 -0.0063
 3600TIP3    H132291   3.151   1.838   3.264  1.3492 -0.2674 -2.8883
 3600TIP3    H232292   3.015   1.783   3.229  0.0470  1.7913 -1.3070
 3601TIP3   OH232293   3.715   1.234   1.769  0.1637 -0.1144  0.6630
 3601TIP3    H132294   3.768   1.201   1.842  0.1683 -2.6107 -0.3497
 3601TIP3    H232295   3.778   1.245   1.698 -0.3720 -1.5733 -0.0825
 3602TIP3   OH232296   3.137   0.434  17.315  0.2682  0.5073  0.3243
 3602TIP3    H132297   3.201   0.388  17.370  0.1435 -0.4622 -0.3137
 3602TIP3    H232298   3.189   0.497  17.266  0.8040 -0.4226 -0.3481
 3603TIP3   OH232299   2.733   3.085   2.200  0.0393 -0.2369  0.7701
 3603TIP3    H132300   2.799   3.097   2.132 -1.5750  0.3068 -0.7988
 3603TIP3    H232301   2.762   3.008   2.248  2.0095  0.2385  0.4291
 3604TIP3   OH232302   1.371   3.231   1.853 -0.3262 -0.0557 -0.6896
 3604TIP3    H132303   1.396   3.289   1.781 -0.0812 -0.8524 -1.2538
 3604TIP3    H232304   1.278   3.248   1.866  0.0248  1.4893  0.1052
 3605TIP3   OH232305   3.411   3.537   6.819  0.0423 -0.1541  0.4172
 3605TIP3    H132306   3.316   3.545   6.820 -0.0733 -1.3330  0.3076
 3605TIP3    H232307   3.442   3.618   6.779 -1.0189 -0.5410 -1.3202
 3606TIP3   OH232308   2.244   3.276  14.693 -0.0354 -0.5628 -0.7380
 3606TIP3    H132309   2.325   3.323  14.715 -0.9541  0.3271  0.9071
 3606TIP3    H232310   2.182   3.345  14.670 -0.2321 -1.2642 -2.4337
 3607TIP3   OH232311   3.294   3.394  11.392  0.1947  0.1403  0.1821
 3607TIP3    H132312   3.255   3.307  11.395 -2.2714  1.1868  0.4288
 3607TIP3    H232313   3.320   3.412  11.482 -0.2681  0.0771  0.3291
 3608TIP3   OH232314   0.605   4.141   6.313 -0.1315  0.1883 -0.2947
 3608TIP3    H132315   0.546   4.111   6.382 -2.5860  1.2946 -1.8106
 3608TIP3    H232316   0.631   4.229   6.341  0.9797 -0.3254  0.4082
 3609TIP3   OH232317   5.901   3.083   1.950 -0.1913 -0.6708 -0.5116
 3609TIP3    H132318   5.810   3.079   1.982 -0.9457  2.1957 -1.9960
 3609TIP3    H232319   5.954   3.061   2.027 -1.9927  2.6214  1.9418
 3610TIP3   OH232320   2.072   6.046  12.118  0.7073 -0.1537 -0.5072
 3610TIP3    H132321   1.995   6.101  12.102  0.1752  0.0783  2.3066
 3610TIP3    H232322   2.146   6.100  12.092  0.0193  0.0819 -2.1067
 3611TIP3   OH232323   2.526   0.477   3.508 -0.0571 -0.7536 -0.1763
 3611TIP3    H132324   2.468   0.552   3.502  0.9432 -0.0293 -1.3349
 3611TIP3    H232325   2.614   0.513   3.495  0.3523 -2.2119 -2.0279
 3612TIP3   OH232326   4.775   5.266  15.015  0.1416 -0.2663  0.1680
 3612TIP3    H132327   4.761   5.289  15.106  0.2034  1.9259 -0.3160
 3612TIP3    H232328   4.753   5.345  14.966  2.7589 -0.4369 -1.5018
 3613TIP3   OH232329   0.388   2.865  16.837  0.4744  0.2110 -0.2595
 3613TIP3    H132330   0.324   2.866  16.908 -0.5796  1.4208 -1.1921
 3613TIP3    H232331   0.467   2.902  16.875  1.2132 -2.6769  1.3524
 3614TIP3   OH232332   1.703   4.340   2.993 -0.1291 -0.8659  0.2608
 3614TIP3    H132333   1.736   4.255   2.965  0.2929 -1.3522  2.1061
 3614TIP3    H232334   1.671   4.381   2.913  2.8663 -1.2778 -1.2607
 3615TIP3   OH232335   4.608   2.831   1.194  0.1503  0.1598  0.8455
 3615TIP3    H132336   4.665   2.756   1.211  0.6970 -0.1246 -1.7976
 3615TIP3    H232337   4.635   2.863   1.108 -0.6345  2.9109  1.5121
 3616TIP3   OH232338   5.216   2.130   4.595 -0.3840  0.2304  0.8236
 3616TIP3    H132339   5.270   2.174   4.661 -1.7786  2.0260  0.8498
 3616TIP3    H232340   5.130   2.121   4.635 -0.1458 -2.8429  0.8844
 3617TIP3   OH232341   4.813   3.387  11.343  0.5022 -0.6248 -0.2553
 3617TIP3    H132342   4.731   3.418  11.381  1.6735  0.5085  1.5603
 3617TIP3    H232343   4.803   3.292  11.338 -1.6552 -0.3749 -2.0510
 3618TIP3   OH232344   1.296   5.601   0.749 -0.1171  0.1579  0.6456
 3618TIP3    H132345   1.215   5.608   0.799 -1.0658  0.7225 -0.8860
 3618TIP3    H232346   1.279   5.651   0.669  1.9438  0.7451  0.5135
 3619TIP3   OH232347   6.268   3.851   6.283  1.0242  0.4597 -0.4677
 3619TIP3    H132348   6.201   3.852   6.215 -0.4630  0.3500  0.9169
 3619TIP3    H232349   6.274   3.760   6.310  1.0524  0.6039  0.0349
 3620TIP3   OH232350   1.075   5.707   6.059  0.0411  0.0391 -0.4795
 3620TIP3    H132351   1.024   5.763   6.001  2.8353  0.6588 -2.5112
 3620TIP3    H232352   1.109   5.766   6.126 -0.0027  0.0349 -0.4526
 3621TIP3   OH232353   3.758   1.423   3.648 -0.2057 -0.5722  0.0785
 3621TIP3    H132354   3.818   1.365   3.696  0.3831  0.6239  0.8360
 3621TIP3    H232355   3.798   1.432   3.562 -1.1064 -2.4875 -0.6029
 3622TIP3   OH232356   0.881   2.470  11.309 -0.6051 -0.0277 -0.0823
 3622TIP3    H132357   0.891   2.564  11.294  2.4430 -0.1272  0.6321
 3622TIP3    H232358   0.936   2.429  11.243 -0.0986 -1.1919  1.0282
 3623TIP3   OH232359   4.642   2.216   0.725 -0.3239 -1.0044  0.2818
 3623TIP3    H132360   4.615   2.281   0.790  2.5443  1.6599 -0.9406
 3623TIP3    H232361   4.595   2.240   0.645  0.5137 -0.5780 -0.0941
 3624TIP3   OH232362   6.434   2.222  17.231 -0.1602 -0.5039  0.3369
 3624TIP3    H132363   6.501   2.154  17.246  0.0203 -0.4182 -0.0612
 3624TIP3    H232364   6.415   2.215  17.137 -0.2246 -0.0815  0.3190
 3625TIP3   OH232365   4.591   6.773   5.167 -0.0568  0.8638 -0.6586
 3625TIP3    H132366   4.513   6.811   5.207  0.0435 -1.3359  1.9334
 3625TIP3    H232367   4.656   6.844   5.170 -0.9914  1.7268  0.2778
 3626TIP3   OH232368   2.324   3.103   0.469 -0.3208 -0.2965  0.4263
 3626TIP3    H132369   2.414   3.126   0.491 -0.2816  0.1045 -0.1415
 3626TIP3    H232370   2.327   3.009   0.449  0.1602 -0.0795 -0.5501
 3627TIP3   OH232371   5.905   5.331   5.822 -0.1815  0.3216 -0.4626
 3627TIP3    H132372   5.852   5.268   5.773  0.3550 -0.9417  0.4995
 3627TIP3    H232373   5.952   5.277   5.886 -1.2043  1.9386  1.7597
 3628TIP3   OH232374   0.202   1.523  14.252 -0.5012  0.4337  0.3276
 3628TIP3    H132375   0.201   1.578  14.173  0.0525  0.9417  0.6657
 3628TIP3    H232376   0.138   1.565  14.310  0.0764  0.8504  0.6685
 3629TIP3   OH232377   1.102   3.196  16.530  0.0655  0.4672 -0.2679
 3629TIP3    H132378   1.065   3.151  16.454 -0.8463 -0.7518  0.8546
 3629TIP3    H232379   1.176   3.142  16.556 -0.7093 -0.1223  0.7665
 3630TIP3   OH232380   1.226   5.456   6.024 -0.9607 -0.4956  0.4663
 3630TIP3    H132381   1.271   5.449   6.107 -1.7024  0.6382  0.9912
 3630TIP3    H232382   1.161   5.525   6.037  0.3843  1.3514 -1.6969
 3631TIP3   OH232383   3.816   5.586   3.043  0.2296  0.0810 -0.1766
 3631TIP3    H132384   3.814   5.637   2.962  0.3949 -1.0183 -0.8827
 3631TIP3    H232385   3.726   5.558   3.057  0.2851 -0.1301 -0.2383
 3632TIP3   OH232386   2.653   1.922  13.914 -0.1482 -0.0270 -0.1481
 3632TIP3    H132387   2.731   1.936  13.861 -0.5811  2.1822 -0.3417
 3632TIP3    H232388   2.614   1.842  13.879  1.6512 -0.8061 -0.4750
 3633TIP3   OH232389   2.354   5.769  15.750  0.0080 -0.1719 -0.1463
 3633TIP3    H132390   2.446   5.743  15.737  0.0730 -1.4306  2.2132
 3633TIP3    H232391   2.356   5.864  15.749  1.2356 -0.1794 -0.7240
 3634TIP3   OH232392   2.229   2.541  11.061 -0.0796 -0.4047 -0.2650
 3634TIP3    H132393   2.291   2.468  11.066  1.0463  0.3369 -2.1370
 3634TIP3    H232394   2.253   2.587  10.980 -0.1479  2.5960  1.2877
 3635TIP3   OH232395   6.565   4.305  15.544 -0.0866  0.0676  0.0077
 3635TIP3    H132396   6.472   4.320  15.530  0.0416  0.5706 -0.3196
 3635TIP3    H232397   6.609   4.359  15.479  0.4263 -0.6891 -0.2924
 3636TIP3   OH232398   5.156   5.757   2.971  0.1662  0.0963 -0.4403
 3636TIP3    H132399   5.232   5.755   3.029 -0.0735  1.3655 -0.0375
 3636TIP3    H232400   5.090   5.805   3.021 -0.4577  0.1455 -1.2949
 3637TIP3   OH232401   2.482   4.636  17.437 -0.5653  0.3763  0.3511
 3637TIP3    H132402   2.549   4.697  17.409  0.6999 -0.9808  0.2997
 3637TIP3    H232403   2.485   4.566  17.372 -1.0060 -0.4253  1.1654
 3638TIP3   OH232404   4.241   1.620  13.900  0.1638 -0.5791 -0.2811
 3638TIP3    H132405   4.284   1.535  13.915 -0.8866 -1.5545 -2.3436
 3638TIP3    H232406   4.199   1.640  13.983 -1.5048 -3.2917 -0.3229
 3639TIP3   OH232407   4.951   4.458  16.042 -0.3094 -0.6544 -0.2019
 3639TIP3    H132408   4.875   4.515  16.031 -0.6889 -1.0387  0.3941
 3639TIP3    H232409   4.962   4.417  15.956  1.0440  1.5902 -1.1929
 3640TIP3   OH232410   4.368   3.734  16.562 -0.4111  0.1500  0.2088
 3640TIP3    H132411   4.330   3.761  16.478 -1.2172  1.5233  0.9819
 3640TIP3    H232412   4.424   3.808  16.587  0.6692 -0.7029  0.3889
 3641TIP3   OH232413   3.459   3.332   5.730  0.2342 -0.3447  0.9777
 3641TIP3    H132414   3.529   3.391   5.699  0.4183 -0.8117  0.4844
 3641TIP3    H232415   3.464   3.337   5.825 -0.8253  1.7029  0.9759
 3642TIP3   OH232416   2.294   2.354   3.449  0.2342 -0.4617  0.2706
 3642TIP3    H132417   2.202   2.364   3.472  0.0320 -3.0838  0.9617
 3642TIP3    H232418   2.336   2.322   3.529  1.4785 -0.5643 -0.3856
 3643TIP3   OH232419   0.476   2.462  12.692  0.1155  0.3682 -0.1728
 3643TIP3    H132420   0.468   2.367  12.690  0.4161  0.2889  1.2397
 3643TIP3    H232421   0.412   2.490  12.758  2.9189  0.7316  2.6266
 3644TIP3   OH232422   2.953   5.377  13.566 -0.4703 -0.3068 -0.3684
 3644TIP3    H132423   2.887   5.415  13.508 -0.9042  0.4476  0.5885
 3644TIP3    H232424   2.911   5.300  13.603  0.0830 -1.2354 -1.6162
 3645TIP3   OH232425   4.871   4.473   0.142 -0.2770 -0.1101  0.2884
 3645TIP3    H132426   4.885   4.395   0.087  1.3069  0.1099  0.3214
 3645TIP3    H232427   4.908   4.545   0.091  0.3474  0.2473  1.2243
 3646TIP3   OH232428   5.830   4.341  12.928 -0.2438 -0.4527 -0.0018
 3646TIP3    H132429   5.875   4.422  12.906 -1.8233  0.7522  0.9588
 3646TIP3    H232430   5.853   4.325  13.020 -0.3344 -0.8171 -0.0416
 3647TIP3   OH232431   5.838   2.988  15.117 -0.6394  0.0457 -0.2916
 3647TIP3    H132432   5.881   3.064  15.078  1.5499  0.9649  3.5013
 3647TIP3    H232433   5.877   2.913  15.071 -0.1556  1.0601 -1.6159
 3648TIP3   OH232434   4.287   3.123   5.687  0.0838 -0.2875  0.4523
 3648TIP3    H132435   4.256   3.206   5.722 -0.8662 -0.2265 -0.4895
 3648TIP3    H232436   4.379   3.139   5.667  0.0451  0.3751  0.7780
 3649TIP3   OH232437   5.914   1.248   2.730 -0.3103 -0.0214  0.0308
 3649TIP3    H132438   5.832   1.274   2.686  0.2117  0.8600 -0.4570
 3649TIP3    H232439   5.948   1.177   2.676 -1.4428 -1.3643  1.0244
 3650TIP3   OH232440   0.747   2.170   0.143  0.3448  0.6845  0.3156
 3650TIP3    H132441   0.714   2.081   0.134  0.0498  0.5242  2.3943
 3650TIP3    H232442   0.672   2.226   0.124 -0.5461  0.3656  2.5282
 3651TIP3   OH232443   5.516   6.211   4.727 -0.2009  0.0852  0.0145
 3651TIP3    H132444   5.570   6.219   4.649 -0.2650  0.4937  0.0123
 3651TIP3    H232445   5.518   6.117   4.747 -1.7343 -0.3350 -1.5716
 3652TIP3   OH232446   2.002   0.262  14.886 -0.6709 -0.6559 -0.2600
 3652TIP3    H132447   2.088   0.301  14.871 -0.1950 -1.1633  0.9561
 3652TIP3    H232448   2.011   0.171  14.857 -1.0351 -0.5086 -0.8437
 3653TIP3   OH232449   3.115   3.622   2.436  0.3919  0.5846 -0.2389
 3653TIP3    H132450   3.093   3.715   2.428  2.3699  1.1654  0.2951
 3653TIP3    H232451   3.078   3.595   2.520 -0.5803  0.7563 -0.6023
 3654TIP3   OH232452   3.769   6.637   5.549 -0.3477 -0.2660  0.4329
 3654TIP3    H132453   3.840   6.687   5.588 -1.8215  1.2399  1.3146
 3654TIP3    H232454   3.711   6.703   5.510 -0.7625 -1.5111 -1.1629
 3655TIP3   OH232455   1.899   1.085  14.650  0.0466  0.5797 -0.2073
 3655TIP3    H132456   1.921   1.115  14.562  1.3485  2.1006  0.5813
 3655TIP3    H232457   1.823   1.028  14.638 -0.4728  1.5936 -2.1952
 3656TIP3   OH232458   0.955   0.017   3.005  0.5451  0.7194 -0.0889
 3656TIP3    H132459   0.941  -0.075   3.026  0.3095  0.9602  0.8344
 3656TIP3    H232460   0.903   0.065   3.069 -1.4907  1.4862 -2.1455
 3657TIP3   OH232461   4.500   4.239  14.026 -0.0266 -0.6774 -0.0296
 3657TIP3    H132462   4.487   4.313  13.966 -1.9162 -0.3313  0.7584
 3657TIP3    H232463   4.524   4.166  13.968  0.6716  0.2265 -0.9364
 3658TIP3   OH232464   3.351   1.146   2.803 -0.5517 -0.0594  0.0992
 3658TIP3    H132465   3.266   1.185   2.781 -0.8448  0.9563  2.6200
 3658TIP3    H232466   3.340   1.052   2.785 -1.8370  0.2093 -0.6233
 3659TIP3   OH232467   5.849   0.195  16.996  0.3561  0.0406  0.0079
 3659TIP3    H132468   5.808   0.235  17.073 -0.7982  1.5408 -1.3263
 3659TIP3    H232469   5.884   0.112  17.028  0.1091  0.7297  2.1944
 3660TIP3   OH232470   5.685   0.299  13.569  0.0127 -0.2298 -0.9073
 3660TIP3    H132471   5.692   0.389  13.537 -0.5831 -0.1297 -0.7809
 3660TIP3    H232472   5.689   0.245  13.490 -0.1258 -0.0597 -1.0318
 3661TIP3   OH232473   1.050   5.095   1.287 -0.1284 -0.2040 -0.7773
 3661TIP3    H132474   1.117   5.100   1.355  0.6137 -0.3665 -1.4671
 3661TIP3    H232475   1.098   5.065   1.209 -1.3097 -1.8629 -0.9110
 3662TIP3   OH232476   3.702   1.062  13.375 -0.2627 -0.1658 -0.1670
 3662TIP3    H132477   3.745   1.122  13.436 -0.9133 -0.3740  0.5268
 3662TIP3    H232478   3.615   1.048  13.414 -1.3089  0.9500 -1.9860
 3663TIP3   OH232479   4.652   1.293   3.139  0.2507 -0.2157  0.4341
 3663TIP3    H132480   4.642   1.207   3.180  3.1303 -0.3231  1.1438
 3663TIP3    H232481   4.633   1.278   3.047  1.1300 -1.7530  0.4680
 3664TIP3   OH232482   0.838   0.181   1.139 -0.2301  0.4923 -0.0073
 3664TIP3    H132483   0.900   0.155   1.071 -0.7140 -0.4182 -0.1117
 3664TIP3    H232484   0.760   0.128   1.124 -1.1104  1.7068  0.0487
 3665TIP3   OH232485   6.455   1.732   3.028 -0.6535  0.1915 -0.1203
 3665TIP3    H132486   6.373   1.739   3.077 -1.1950 -0.7114 -0.8667
 3665TIP3    H232487   6.431   1.687   2.947  0.7274 -0.8783  0.0265
 3666TIP3   OH232488   1.631   1.701   1.250 -0.1569 -0.4399 -0.3829
 3666TIP3    H132489   1.726   1.705   1.260 -0.2673 -0.6679  0.8432
 3666TIP3    H232490   1.600   1.660   1.330 -1.3829  0.5159 -0.3486
 3667TIP3   OH232491   2.749   5.869   1.645 -0.2796 -0.0461  0.1126
 3667TIP3    H132492   2.739   5.799   1.581 -0.4315 -0.1443  0.2438
 3667TIP3    H232493   2.731   5.828   1.730  2.0784 -0.4387  0.4817
 3668TIP3   OH232494   2.891   5.323   5.202 -0.4976 -0.3324  0.0777
 3668TIP3    H132495   2.976   5.317   5.247 -1.1264  1.2111  1.5734
 3668TIP3    H232496   2.880   5.237   5.161  1.8576 -0.5216 -0.3116
 3669TIP3   OH232497   1.863   3.093   0.573  0.0377  0.4208  0.1670
 3669TIP3    H132498   1.876   3.029   0.643  0.3634 -1.7994 -1.7718
 3669TIP3    H232499   1.782   3.138   0.596 -2.6162 -3.5790 -0.2535
 3670TIP3   OH232500   4.744   2.023  13.768 -0.3194 -0.0044 -0.4285
 3670TIP3    H132501   4.711   1.934  13.754  1.4708 -1.4006  3.0194
 3670TIP3    H232502   4.839   2.013  13.765 -0.0725  1.5709  1.0602
 3671TIP3   OH232503   1.208   0.468  13.128 -0.0599  0.0299 -0.0949
 3671TIP3    H132504   1.155   0.394  13.157 -0.9089 -0.1957 -2.0656
 3671TIP3    H232505   1.297   0.447  13.156 -0.7274 -0.3339  1.8854
 3672TIP3   OH232506   0.987   0.548   1.522  0.8959 -0.1366 -0.3315
 3672TIP3    H132507   0.907   0.580   1.564  2.7256 -0.3570  3.8110
 3672TIP3    H232508   0.977   0.452   1.523  1.1395 -0.1592  0.0760
 3673TIP3   OH232509   1.474   5.938  17.166 -0.2128 -0.4765 -0.3816
 3673TIP3    H132510   1.516   6.009  17.215 -1.1089  0.5096 -0.9961
 3673TIP3    H232511   1.527   5.930  17.086  0.8973 -1.6834  0.4401
 3674TIP3   OH232512   2.359   5.421  13.955 -0.0695  0.0820 -0.3200
 3674TIP3    H132513   2.303   5.474  13.898 -0.1525 -1.6291 -1.8841
 3674TIP3    H232514   2.413   5.485  14.001 -2.4061  1.7451  0.3442
 3675TIP3   OH232515   5.754   2.823   5.188 -0.1653 -0.3317 -0.4552
 3675TIP3    H132516   5.798   2.794   5.268 -0.6963  1.8061  0.6851
 3675TIP3    H232517   5.805   2.899   5.159 -1.3256  0.3314 -0.8166
 3676TIP3   OH232518   2.039   5.952  12.591 -0.0612  0.1446 -0.0491
 3676TIP3    H132519   1.980   5.897  12.643  0.8669  0.8424  1.8509
 3676TIP3    H232520   2.037   5.914  12.504 -0.0002 -2.4818  1.0068
 3677TIP3   OH232521   2.316   6.182   3.021  0.3037  0.2508  0.4063
 3677TIP3    H132522   2.263   6.194   3.099 -1.5538 -0.5276 -0.6874
 3677TIP3    H232523   2.406   6.195   3.052 -0.4373  1.0081  2.4315
 3678TIP3   OH232524   5.031   1.632   3.359  0.8034 -0.0480  0.2201
 3678TIP3    H132525   5.058   1.695   3.292  0.6484  0.0281  0.2300
 3678TIP3    H232526   4.961   1.581   3.318 -0.5260  1.1577  0.9217
 3679TIP3   OH232527   1.569   6.581   2.816  0.5560 -0.2479 -0.1570
 3679TIP3    H132528   1.613   6.514   2.765 -1.4621 -0.1118 -2.2481
 3679TIP3    H232529   1.587   6.663   2.769  0.5615  0.2450  0.6814
 3680TIP3   OH232530   3.941   5.309  14.206  0.1567  0.3765  0.7892
 3680TIP3    H132531   3.862   5.316  14.260  0.1167 -0.4410  0.8507
 3680TIP3    H232532   4.003   5.369  14.248  0.5174 -1.0912  2.4705
 3681TIP3   OH232533   3.226   6.341  12.691  0.2808 -0.1507 -0.3927
 3681TIP3    H132534   3.270   6.375  12.614  1.1143  0.2118  0.2376
 3681TIP3    H232535   3.221   6.415  12.752 -3.8666  0.7457 -1.4940
 3682TIP3   OH232536   4.394   6.680   5.801  0.1700 -0.1299  0.5615
 3682TIP3    H132537   4.346   6.610   5.757 -0.7625  0.3795  0.7448
 3682TIP3    H232538   4.338   6.757   5.792  0.7280  0.3672  1.2166
 3683TIP3   OH232539   1.475   1.817  13.807  0.3250  0.2963  0.3995
 3683TIP3    H132540   1.454   1.892  13.751  0.6108  1.4294  1.7838
 3683TIP3    H232541   1.419   1.746  13.773  0.4925  0.9314 -1.3068
 3684TIP3   OH232542   0.193   6.399   2.298 -0.5813 -0.1870 -0.7545
 3684TIP3    H132543   0.228   6.480   2.334 -0.2073 -0.3051 -0.8569
 3684TIP3    H232544   0.262   6.334   2.311 -1.4478 -0.8742  0.7535
 3685TIP3   OH232545   3.873   1.511   5.589  0.3673 -0.0543 -0.0570
 3685TIP3    H132546   3.897   1.511   5.682  1.7943 -0.2730 -0.4031
 3685TIP3    H232547   3.859   1.603   5.568  0.8775  0.0783  0.1749
 3686TIP3   OH232548   2.005   5.341   1.048 -0.1521 -0.4392 -0.3764
 3686TIP3    H132549   1.910   5.350   1.041 -0.3929 -1.4956  1.1418
 3686TIP3    H232550   2.040   5.422   1.010 -1.7468  1.0370  1.1247
 3687TIP3   OH232551   1.072   4.609   5.086 -0.0744 -0.1000  0.1151
 3687TIP3    H132552   1.070   4.683   5.147  1.9165  1.1139 -1.1454
 3687TIP3    H232553   1.143   4.553   5.118  0.6111  0.2631 -0.7263
 3688TIP3   OH232554   0.887   1.709   5.267 -0.0551  0.2934  0.1220
 3688TIP3    H132555   0.797   1.703   5.236  0.8370 -0.3983 -2.6618
 3688TIP3    H232556   0.923   1.785   5.221  0.5460  1.1581  1.9487
 3689TIP3   OH232557   4.515   2.031   5.185 -0.8979  0.5308 -0.6311
 3689TIP3    H132558   4.490   2.051   5.275 -1.4065 -0.7342 -0.4797
 3689TIP3    H232559   4.600   1.989   5.191 -1.0440  0.2204 -0.7208
 3690TIP3   OH232560   1.668   3.411  10.754 -0.3195 -0.4300 -0.0708
 3690TIP3    H132561   1.685   3.327  10.712 -0.8464 -1.3409  1.4938
 3690TIP3    H232562   1.593   3.395  10.812 -0.6134  1.1886  0.0507
 3691TIP3   OH232563   0.862   3.753   2.417 -0.2728  0.0493  0.0811
 3691TIP3    H132564   0.827   3.758   2.506 -1.7653  0.9337 -0.5198
 3691TIP3    H232565   0.858   3.660   2.395 -1.3223  0.0040  0.4093
 3692TIP3   OH232566   1.534   0.416   4.909 -0.3415 -0.4075  0.0445
 3692TIP3    H132567   1.457   0.471   4.897 -0.3954 -0.8111 -1.7328
 3692TIP3    H232568   1.556   0.425   5.002 -0.7321  2.0558 -0.0515
 3693TIP3   OH232569   0.312   2.993   1.661  0.0442  0.2928 -0.4103
 3693TIP3    H132570   0.400   2.956   1.663 -0.1605 -0.2168  1.2833
 3693TIP3    H232571   0.276   2.966   1.577  1.2054 -0.2099 -0.7623
 3694TIP3   OH232572   2.109   5.607  14.743  0.1730 -0.6988 -0.4213
 3694TIP3    H132573   2.155   5.592  14.826  1.3520 -0.0604 -0.9427
 3694TIP3    H232574   2.124   5.527  14.693 -0.9661 -1.2944  0.1517
 3695TIP3   OH232575   1.370   4.003   0.234 -0.0348 -0.3624  0.0247
 3695TIP3    H132576   1.301   3.937   0.224 -0.7281  0.2700  0.4658
 3695TIP3    H232577   1.359   4.034   0.324  1.6470 -1.1387  0.5217
 3696TIP3   OH232578   3.549   3.961  11.663  0.0045  1.2540  0.1349
 3696TIP3    H132579   3.602   3.892  11.622 -0.9344  0.4538  0.2373
 3696TIP3    H232580   3.614   4.023  11.697  0.8464  1.2790 -1.3826
 3697TIP3   OH232581   2.708   2.896  11.730 -0.0212  0.0242 -0.0830
 3697TIP3    H132582   2.707   2.936  11.643  0.3851 -1.4947 -0.8203
 3697TIP3    H232583   2.649   2.820  11.722 -0.1201 -0.0330  1.0243
 3698TIP3   OH232584   2.760   2.483   3.932 -0.2874  0.5449  0.2333
 3698TIP3    H132585   2.764   2.519   3.843  0.2860 -0.6386 -0.2505
 3698TIP3    H232586   2.764   2.388   3.919  0.1657  0.3648  1.5478
 3699TIP3   OH232587   5.106   1.659   2.504 -0.3649 -0.6702  0.5137
 3699TIP3    H132588   5.164   1.735   2.500 -2.6388  1.1398 -1.1782
 3699TIP3    H232589   5.150   1.597   2.563  3.2986  0.4438 -0.7952
 3700TIP3   OH232590   1.800   5.894   5.157  0.1434 -0.3184 -0.0008
 3700TIP3    H132591   1.788   5.870   5.249  2.3807 -0.2775  0.3469
 3700TIP3    H232592   1.870   5.836   5.126  0.5948  0.8242 -1.1942
 3701TIP3   OH232593   1.317   4.699   4.532  0.3784 -0.8061 -0.0578
 3701TIP3    H132594   1.292   4.715   4.623 -0.1073 -2.5046  0.1493
 3701TIP3    H232595   1.406   4.733   4.524 -0.0853  0.6390  0.6421
 3702TIP3   OH232596   5.817   3.036   3.336 -0.4464 -0.2752 -0.1649
 3702TIP3    H132597   5.767   3.010   3.413 -0.1501 -0.9832 -0.2056
 3702TIP3    H232598   5.800   3.130   3.327  0.2233  0.0127  1.2948
 3703TIP3   OH232599   0.440   1.979   2.302 -0.0588  0.2114 -0.6542
 3703TIP3    H132600   0.534   1.969   2.288 -0.1058 -0.7012 -0.3920
 3703TIP3    H232601   0.432   2.007   2.394 -0.0721 -0.4340 -0.4540
 3704TIP3   OH232602   4.232   0.034   0.932 -0.0640 -0.3441 -0.0852
 3704TIP3    H132603   4.160   0.004   0.989 -1.9510 -0.0712 -2.1841
 3704TIP3    H232604   4.245  -0.037   0.870  3.8525 -1.8243  2.0892
 3705TIP3   OH232605   5.049   4.105   2.752 -0.4829  0.2139  0.2036
 3705TIP3    H132606   4.988   4.059   2.694 -0.6479 -0.1517  0.6619
 3705TIP3    H232607   5.012   4.193   2.759 -0.5889  0.1915 -0.0654
 3706TIP3   OH232608   4.784   0.423  12.663 -0.2396  0.2493  0.2578
 3706TIP3    H132609   4.781   0.327  12.669  1.9297  0.2223  2.5398
 3706TIP3    H232610   4.733   0.443  12.585 -1.3795 -2.7040  0.0958
 3707TIP3   OH232611   0.293   6.515   0.590  0.5141 -0.5165 -0.2201
 3707TIP3    H132612   0.337   6.600   0.593  0.8951 -0.7455  1.7443
 3707TIP3    H232613   0.237   6.520   0.512 -0.4073  2.0148  0.5016
 3708TIP3   OH232614   2.214   5.580  11.922  0.0247 -0.0800  0.8101
 3708TIP3    H132615   2.309   5.577  11.909 -0.0651 -2.4164  0.4009
 3708TIP3    H232616   2.195   5.508  11.982 -1.5356  0.1286  0.6171
 3709TIP3   OH232617   3.092   2.759   4.772  0.1386 -0.0615 -0.1605
 3709TIP3    H132618   3.126   2.711   4.696 -0.9598  0.2856 -0.8972
 3709TIP3    H232619   3.037   2.695   4.818  0.6113 -0.1993  0.2309
 3710TIP3   OH232620   4.801   2.913   2.589  0.5814 -0.0959 -0.1264
 3710TIP3    H132621   4.761   2.939   2.506 -1.2140  0.2042  0.7863
 3710TIP3    H232622   4.870   2.851   2.564  1.1606  1.1740 -1.9325
 3711TIP3   OH232623   4.312   0.847   3.891 -0.2526 -0.7476 -0.6352
 3711TIP3    H132624   4.316   0.914   3.823 -1.3018  0.3361  0.3219
 3711TIP3    H232625   4.234   0.795   3.868  0.1161 -1.1698 -0.9470
 3712TIP3   OH232626   0.846   5.497  12.624  0.2842  0.3956  0.1165
 3712TIP3    H132627   0.934   5.534  12.618 -0.0073  1.5488  1.9580
 3712TIP3    H232628   0.853   5.429  12.690  0.0744 -0.5154 -0.7817
 3713TIP3   OH232629   5.907   5.730  14.995 -0.2093  0.2697 -0.6608
 3713TIP3    H132630   5.958   5.649  14.994 -0.5081 -0.0547  2.0234
 3713TIP3    H232631   5.816   5.702  15.005 -0.8368  0.9050 -3.6071
 3714TIP3   OH232632   4.954   5.160  11.984  0.0515 -0.5789 -0.3144
 3714TIP3    H132633   5.026   5.147  12.046  0.9798  1.0955 -0.9706
 3714TIP3    H232634   4.993   5.145  11.898 -0.1753  1.0433 -0.7242
 3715TIP3   OH232635   5.451   3.076  12.946 -0.0860  0.0908  0.0374
 3715TIP3    H132636   5.532   3.044  12.905 -0.0211  0.5893 -0.2340
 3715TIP3    H232637   5.381   3.036  12.895 -0.0127 -0.2496  0.2009
 3716TIP3   OH232638   1.646   0.051   2.272 -0.1879  0.2115 -0.4665
 3716TIP3    H132639   1.641   0.025   2.180 -0.1903 -1.5706 -0.0056
 3716TIP3    H232640   1.672  -0.029   2.318  0.5129  1.2394  1.0071
 3717TIP3   OH232641   6.554   1.973  12.664  0.3273 -0.1108  0.1156
 3717TIP3    H132642   6.581   2.059  12.629  1.0936 -1.5693 -3.2861
 3717TIP3    H232643   6.459   1.974  12.658  0.2598  0.8622  1.1066
 3718TIP3   OH232644   3.376   3.166  17.356 -0.9306 -0.3758  0.5431
 3718TIP3    H132645   3.392   3.258  17.333 -1.3963 -0.3018  0.5004
 3718TIP3    H232646   3.456   3.121  17.331 -0.6150  0.0534  0.7581
 3719TIP3   OH232647   4.694   6.459  11.976 -0.3433 -0.0951 -0.4963
 3719TIP3    H132648   4.623   6.426  11.920  0.7924  0.9173 -2.6526
 3719TIP3    H232649   4.689   6.554  11.966  1.1302  0.0006 -0.4755
 3720TIP3   OH232650   3.465   2.808   0.340  0.2500 -0.2619  0.2701
 3720TIP3    H132651   3.407   2.869   0.295 -1.6679 -1.7133  0.6238
 3720TIP3    H232652   3.552   2.826   0.304 -0.4566  1.7303 -0.5864
 3721TIP3   OH232653   4.262   4.045   5.800 -0.3252  0.1520  0.2053
 3721TIP3    H132654   4.355   4.022   5.805  0.2783  2.0858 -1.0379
 3721TIP3    H232655   4.224   3.978   5.744  0.6062  0.0282 -0.3063
 3722TIP3   OH232656   1.612   0.567  15.932  0.2457  0.1224 -0.0796
 3722TIP3    H132657   1.535   0.567  15.875 -0.2892  1.7798  0.5967
 3722TIP3    H232658   1.650   0.654  15.921  2.8331 -1.0642 -1.4050
 3723TIP3   OH232659   1.466   3.815   4.568  0.0038  0.1985  0.8829
 3723TIP3    H132660   1.448   3.794   4.476 -1.5175 -0.4194  1.2897
 3723TIP3    H232661   1.501   3.904   4.566  2.8468 -0.8186 -0.5342
 3724TIP3   OH232662   1.463   4.866  12.947 -0.2660 -0.3490  0.5924
 3724TIP3    H132663   1.504   4.940  12.993 -1.9601  1.2067 -0.2703
 3724TIP3    H232664   1.523   4.847  12.875 -0.4135  1.0808  0.0514
 3725TIP3   OH232665   0.454   1.989  13.754 -1.2030 -0.0887  0.2972
 3725TIP3    H132666   0.362   1.973  13.774 -1.6974  0.0180 -1.6920
 3725TIP3    H232667   0.469   1.942  13.672  0.3906  0.2971  0.3394
 3726TIP3   OH232668   1.326   5.768  14.935  0.2872 -0.3535  0.7233
 3726TIP3    H132669   1.244   5.810  14.958 -0.4180 -1.1862 -0.1451
 3726TIP3    H232670   1.377   5.767  15.016 -1.0752 -0.9501  1.6169
 3727TIP3   OH232671   3.812   1.985  14.817 -0.3166 -0.2772  0.0175
 3727TIP3    H132672   3.778   2.005  14.730  0.9073 -0.0478 -0.4350
 3727TIP3    H232673   3.866   1.907  14.804 -0.8647 -0.7913  0.7595
 3728TIP3   OH232674   4.925   2.379   5.990  0.2965 -0.5168 -0.5188
 3728TIP3    H132675   4.878   2.459   6.014  1.3572 -0.3222  1.0840
 3728TIP3    H232676   4.873   2.340   5.920 -0.3978  1.4143 -1.1201
 3729TIP3   OH232677   5.022   1.104  13.336 -0.0228 -0.3258  0.0743
 3729TIP3    H132678   5.084   1.140  13.400 -0.2732 -2.1086  1.3795
 3729TIP3    H232679   4.983   1.181  13.296 -1.2058  0.9733  3.3615
 3730TIP3   OH232680   6.490   6.057  12.300  0.0253 -0.6520 -0.2871
 3730TIP3    H132681   6.530   6.139  12.271 -0.3103 -0.6675 -0.8089
 3730TIP3    H232682   6.508   6.053  12.394 -0.7485  0.4748 -0.0737
 3731TIP3   OH232683   2.844   0.714   3.163  0.7416 -0.0239 -0.3170
 3731TIP3    H132684   2.938   0.712   3.181  0.4868 -2.1371  1.0400
 3731TIP3    H232685   2.835   0.673   3.077  0.9159 -2.4156  0.7175
 3732TIP3   OH232686   2.407   3.501  15.717  0.3820 -0.2829 -0.4985
 3732TIP3    H132687   2.496   3.478  15.691  0.8478  0.0349  0.7411
 3732TIP3    H232688   2.364   3.417  15.733  0.9075 -0.4159  0.2789
 3733TIP3   OH232689   1.135   3.214  14.551 -0.1011 -0.1597  0.1157
 3733TIP3    H132690   1.130   3.241  14.643 -1.7947  0.9681 -0.2565
 3733TIP3    H232691   1.216   3.254  14.519 -1.1232  2.2849  0.3361
 3734TIP3   OH232692   1.736   3.093   1.148  0.2351 -0.3660  0.0165
 3734TIP3    H132693   1.796   3.086   1.222 -0.8969 -1.0010  0.9191
 3734TIP3    H232694   1.708   3.184   1.149  0.7633 -0.1999 -0.0678
 3735TIP3   OH232695   1.370   5.781  13.892  0.8641 -0.1976 -0.1700
 3735TIP3    H132696   1.335   5.854  13.943 -1.4085 -0.7015 -0.8887
 3735TIP3    H232697   1.393   5.819  13.808  0.0414 -0.2107 -0.4108
 3736TIP3   OH232698   3.979   3.429  16.094  0.1547  0.6114 -0.3066
 3736TIP3    H132699   4.021   3.346  16.069 -0.9215 -0.3993  1.1576
 3736TIP3    H232700   3.985   3.432  16.189  1.5990  3.0189 -0.3882
 3737TIP3   OH232701   5.556   0.380   0.212  0.1150  0.3096 -0.0396
 3737TIP3    H132702   5.638   0.330   0.209 -0.0970  0.0205 -1.2275
 3737TIP3    H232703   5.542   0.408   0.122 -1.9473 -1.0110 -0.1740
 3738TIP3   OH232704   4.317   6.740  11.581  0.3765 -0.2299 -0.0958
 3738TIP3    H132705   4.227   6.754  11.551  0.2103  0.6624  0.7595
 3738TIP3    H232706   4.367   6.811  11.540  0.5490 -0.2784  0.0317
 3739TIP3   OH232707   2.839   4.141   2.164  0.0964 -0.4324  0.0901
 3739TIP3    H132708   2.901   4.107   2.228 -1.4159 -2.4578  0.5888
 3739TIP3    H232709   2.839   4.076   2.093 -2.8433 -1.6154  1.0346
 3740TIP3   OH232710   5.442   3.108  14.204  0.1515 -0.2677 -0.5740
 3740TIP3    H132711   5.399   3.116  14.119  0.7618  1.1840 -0.7718
 3740TIP3    H232712   5.409   3.181  14.255  1.2014 -0.0236 -0.2143
 3741TIP3   OH232713   5.815   2.321   2.397 -0.6612 -0.2284 -0.1735
 3741TIP3    H132714   5.902   2.333   2.436 -0.3062 -0.3547 -0.9046
 3741TIP3    H232715   5.795   2.229   2.410 -1.2381  0.0540  1.0886
 3742TIP3   OH232716   0.225   0.404  15.911 -0.1022  0.1229 -0.1960
 3742TIP3    H132717   0.149   0.383  15.857 -0.6541  1.7547 -0.1224
 3742TIP3    H232718   0.287   0.445  15.851  0.5742 -0.8302 -0.1718
 3743TIP3   OH232719   1.576   5.242  16.319  0.1172  0.1236  0.0430
 3743TIP3    H132720   1.581   5.172  16.384  1.4461  0.7834  0.6989
 3743TIP3    H232721   1.491   5.282  16.333  0.0949 -0.1973  0.9095
 3744TIP3   OH232722   1.470   6.318   2.182  0.0729 -0.2668 -0.6139
 3744TIP3    H132723   1.409   6.254   2.220  2.2636 -2.3520 -0.3338
 3744TIP3    H232724   1.489   6.379   2.254  0.5763 -1.3910  0.2438
 3745TIP3   OH232725   4.795   2.637   1.216 -0.0931  0.0603 -0.2334
 3745TIP3    H132726   4.773   2.556   1.263 -1.8153  0.1921 -0.7522
 3745TIP3    H232727   4.854   2.609   1.147  1.8807 -0.2519  1.4831
 3746TIP3   OH232728   2.759   3.327   5.431  0.0538 -0.9444  0.8142
 3746TIP3    H132729   2.849   3.311   5.402  0.4257  0.6599  1.0154
 3746TIP3    H232730   2.768   3.356   5.522 -0.5291  0.5487  0.4243
 3747TIP3   OH232731   5.116   4.439  13.588  0.2932 -0.6129  0.9073
 3747TIP3    H132732   5.029   4.429  13.627 -0.8110  1.1790 -0.8855
 3747TIP3    H232733   5.168   4.483  13.656 -0.6963 -0.2241  1.4322
 3748TIP3   OH232734   3.104   2.699   1.325  0.7930  0.2312  0.6973
 3748TIP3    H132735   3.062   2.775   1.284  0.0688  0.5217  1.9360
 3748TIP3    H232736   3.190   2.694   1.282  0.6374  1.4022  0.1978
 3749TIP3   OH232737   2.797   5.249   3.007  0.4807 -0.0090  0.3807
 3749TIP3    H132738   2.807   5.159   2.975  0.1004 -0.3390  1.1855
 3749TIP3    H232739   2.857   5.300   2.952  0.0403 -0.6046 -0.6919
 3750TIP3   OH232740   4.675   2.035   4.721 -0.5187 -0.3989  0.2648
 3750TIP3    H132741   4.652   1.954   4.765  0.5536 -0.5987  0.4898
 3750TIP3    H232742   4.608   2.046   4.653 -1.5012 -0.7050  1.1613
 3751TIP3   OH232743   3.879   2.232   0.895 -0.1665  0.1759 -0.5852
 3751TIP3    H132744   3.965   2.193   0.878 -0.0649 -0.4027  1.1496
 3751TIP3    H232745   3.825   2.201   0.822  1.1386  0.8279 -1.8993
 3752TIP3   OH232746   3.972   1.159   2.612  0.2251 -0.3639 -0.5627
 3752TIP3    H132747   4.048   1.158   2.554  0.6973  0.6711  0.0036
 3752TIP3    H232748   4.009   1.170   2.700 -0.6094  1.2108 -0.3728
 3753TIP3   OH232749   2.181   2.961   1.275 -0.0340 -0.3662  0.6608
 3753TIP3    H132750   2.264   2.916   1.290  0.3061  0.3380  0.8964
 3753TIP3    H232751   2.134   2.954   1.358  0.8760  1.4862  1.3777
 3754TIP3   OH232752   0.907   5.842   0.934 -0.2837  0.3637  0.0210
 3754TIP3    H132753   0.867   5.838   1.022 -0.6114  0.3682 -0.1267
 3754TIP3    H232754   0.841   5.802   0.877 -0.2733  0.8067 -0.2989
 3755TIP3   OH232755   6.367   2.229   4.059 -0.6036  0.1794 -0.0165
 3755TIP3    H132756   6.440   2.210   4.117 -0.1912  0.7025 -0.3656
 3755TIP3    H232757   6.315   2.294   4.105  0.1771  1.2302 -0.5825
 3756TIP3   OH232758   6.487   2.559   3.991 -0.6212  0.0825 -0.4578
 3756TIP3    H132759   6.528   2.622   3.932 -0.4122  0.9057  0.5336
 3756TIP3    H232760   6.397   2.590   4.000 -0.0027  1.4999  1.6259
 3757TIP3   OH232761   4.902   4.898  15.179 -0.1103  0.6583  0.2410
 3757TIP3    H132762   4.832   4.940  15.129  0.4705  0.3720 -0.8344
 3757TIP3    H232763   4.930   4.825  15.124  0.3412  0.1511  1.1311
 3758TIP3   OH232764   5.529   6.412  14.127 -0.1386 -0.4640 -0.7480
 3758TIP3    H132765   5.486   6.357  14.191  0.9150 -2.0817 -1.3675
 3758TIP3    H232766   5.506   6.375  14.042 -0.2980  0.7254 -1.2535
 3759TIP3   OH232767   0.254   5.589  15.369 -0.4997 -0.0269 -0.3553
 3759TIP3    H132768   0.206   5.647  15.429  0.7518  0.5036  0.1611
 3759TIP3    H232769   0.202   5.508  15.369 -1.3691  0.5053  0.2217
 3760TIP3   OH232770   1.328   6.123  12.980 -0.1703  0.4825  0.4423
 3760TIP3    H132771   1.409   6.075  12.962 -0.3434  0.2275  0.3240
 3760TIP3    H232772   1.336   6.204  12.931 -1.2416 -0.8006 -2.0730
 3761TIP3   OH232773   1.983   5.819  16.291 -0.2043 -0.0650  0.4345
 3761TIP3    H132774   2.062   5.826  16.239 -0.0574  0.3779  0.7166
 3761TIP3    H232775   1.921   5.880  16.250  0.2268  1.0216  1.3350
 3762TIP3   OH232776   5.450   4.735  12.082 -0.2000 -0.5431  0.6599
 3762TIP3    H132777   5.490   4.670  12.023 -0.7296 -1.2302  1.0400
 3762TIP3    H232778   5.511   4.739  12.156 -0.0757 -0.4752  0.5542
 3763TIP3   OH232779   1.223   6.282  14.280 -0.3743  0.6298 -0.3670
 3763TIP3    H132780   1.137   6.240  14.284 -0.0529 -0.0677 -0.6610
 3763TIP3    H232781   1.217   6.343  14.206 -0.1256 -0.5601 -1.3949
 3764TIP3   OH232782   0.678   0.673   4.726 -0.7636  0.1014  0.5833
 3764TIP3    H132783   0.754   0.704   4.677 -2.4503  2.1476 -0.9753
 3764TIP3    H232784   0.643   0.602   4.672 -1.0592  0.5200  0.2069
 3765TIP3   OH232785   5.169   3.503  16.826  0.2459 -0.1862  0.0317
 3765TIP3    H132786   5.223   3.475  16.752 -0.9240 -1.6714 -0.2983
 3765TIP3    H232787   5.230   3.502  16.901  1.1056 -0.0022 -0.6457
 3766TIP3   OH232788   4.705   2.778  14.826  0.2869 -0.0919  0.2367
 3766TIP3    H132789   4.651   2.702  14.845  0.9239 -0.6924 -0.2837
 3766TIP3    H232790   4.773   2.777  14.894  0.9419 -0.6383 -0.4121
 3767TIP3   OH232791   0.053   5.858   2.273 -0.3065 -0.2820  0.1595
 3767TIP3    H132792   0.102   5.923   2.323  0.3723 -0.6002 -0.0799
 3767TIP3    H232793   0.006   5.910   2.207  0.1247 -0.0252  0.0519
 3768TIP3   OH232794   6.567   4.390   1.754 -0.3359  0.1466  0.2949
 3768TIP3    H132795   6.522   4.385   1.837  0.9723 -1.3185  0.9725
 3768TIP3    H232796   6.586   4.484   1.742  0.5363  0.2739  2.2697
 3769TIP3   OH232797   0.890   2.546   4.103 -0.7956 -0.4196 -0.3142
 3769TIP3    H132798   0.810   2.584   4.139 -0.0339  1.1278 -0.1509
 3769TIP3    H232799   0.959   2.609   4.128  0.2137 -0.8854 -1.8292
 3770TIP3   OH232800   6.735   3.524   5.432 -0.1327 -0.0052  0.1111
 3770TIP3    H132801   6.742   3.430   5.414  0.7853 -0.2026  1.3742
 3770TIP3    H232802   6.750   3.531   5.526  0.4929  1.4818 -0.0787
 3771TIP3   OH232803   4.727   0.378   6.880  0.7140 -0.6067  0.8401
 3771TIP3    H132804   4.762   0.458   6.919  1.9555 -0.7969  0.1442
 3771TIP3    H232805   4.666   0.344   6.946  0.5460  0.6322  1.3532
 3772TIP3   OH232806   3.205   4.201   2.904 -0.0230  0.1898 -0.2287
 3772TIP3    H132807   3.217   4.271   2.969 -1.6616  0.1121  0.2100
 3772TIP3    H232808   3.239   4.238   2.823  1.1544  0.6599  0.4473
 3773TIP3   OH232809   6.139   2.213  17.275 -0.1602 -0.2112 -0.5972
 3773TIP3    H132810   6.121   2.269  17.199 -0.0626 -0.7263 -1.0063
 3773TIP3    H232811   6.234   2.197  17.270  0.2200  1.3367  0.7443
 3774TIP3   OH232812   6.233   4.558  11.662 -0.7659  0.1072 -0.3644
 3774TIP3    H132813   6.254   4.631  11.604 -1.8155 -0.2690 -1.2385
 3774TIP3    H232814   6.188   4.599  11.737  0.8771  0.6281  0.3805
 3775TIP3   OH232815   3.805   2.407  15.533  0.1477 -0.0155  0.1622
 3775TIP3    H132816   3.826   2.428  15.624 -0.1244  0.4835  0.1072
 3775TIP3    H232817   3.886   2.425  15.485 -0.3341  1.7894 -0.0284
 3776TIP3   OH232818   0.859   4.212   6.150  0.4007 -0.3901 -0.1950
 3776TIP3    H132819   0.888   4.303   6.144  1.0971 -0.5441  0.5600
 3776TIP3    H232820   0.912   4.166   6.085 -0.0872 -0.2233 -0.7098
 3777TIP3   OH232821   2.841   4.890   0.243  0.0179  0.2946 -0.1417
 3777TIP3    H132822   2.920   4.860   0.286  1.5694  5.0778  0.9923
 3777TIP3    H232823   2.769   4.847   0.290  1.8422 -0.3963  2.1643
 3778TIP3   OH232824   3.571   0.485  16.911 -0.0706 -0.2040  0.4006
 3778TIP3    H132825   3.576   0.498  16.817  0.0080 -0.7177  0.3314
 3778TIP3    H232826   3.478   0.474  16.929  0.0846 -2.5292  0.0349
 3779TIP3   OH232827   0.138   3.044   3.220 -0.3333  0.4389 -0.7186
 3779TIP3    H132828   0.047   3.031   3.248 -0.7215  1.2181 -1.5721
 3779TIP3    H232829   0.179   2.958   3.231 -0.9868  0.2519  0.3330
 3780TIP3   OH232830   4.224   3.750  12.454 -0.3109 -0.8872 -0.1693
 3780TIP3    H132831   4.191   3.661  12.465 -1.5827 -0.4211 -0.1132
 3780TIP3    H232832   4.265   3.750  12.368  0.1782 -1.6599  0.0491
 3781TIP3   OH232833   1.143   2.897  17.055  0.0937  0.1827  0.3552
 3781TIP3    H132834   1.177   2.984  17.035  1.2745 -0.7596 -2.1885
 3781TIP3    H232835   1.052   2.911  17.081  0.6800  2.2535  1.4953
 3782TIP3   OH232836   1.513   5.688  14.407 -0.3423  0.8001 -0.4207
 3782TIP3    H132837   1.466   5.609  14.433 -0.4015  0.9249 -0.1449
 3782TIP3    H232838   1.576   5.657  14.341  0.9880  0.1456  1.0618
 3783TIP3   OH232839   3.714   4.570  14.019  0.2913 -0.3038  0.7589
 3783TIP3    H132840   3.759   4.492  13.988 -1.3328 -2.2938  3.0367
 3783TIP3    H232841   3.755   4.590  14.103 -1.9905 -1.2820  2.1756
 3784TIP3   OH232842   6.542   5.317  12.743  0.4696 -0.0049 -0.4502
 3784TIP3    H132843   6.632   5.331  12.714  0.8944 -1.8820 -0.1145
 3784TIP3    H232844   6.489   5.338  12.666  1.2693 -0.1023 -1.0397
 3785TIP3   OH232845   0.796   3.489   2.359 -0.1009 -0.3463 -0.5163
 3785TIP3    H132846   0.812   3.411   2.413  0.6319 -1.5435 -2.3454
 3785TIP3    H232847   0.702   3.505   2.367 -0.1868 -1.1586  0.2314
 3786TIP3   OH232848   0.768   0.737  16.101 -0.1915  0.2550  0.3400
 3786TIP3    H132849   0.684   0.696  16.121 -1.8130  2.0590 -2.1574
 3786TIP3    H232850   0.827   0.663  16.083 -1.4462 -1.0355  1.3433
 3787TIP3   OH232851   1.575   3.342  11.562  0.5480 -0.4032  0.5110
 3787TIP3    H132852   1.555   3.375  11.649  0.9010  0.0726  0.4164
 3787TIP3    H232853   1.591   3.249  11.574 -0.7014 -0.6084  0.7499
 3788TIP3   OH232854   3.580   2.978  13.136  0.4853  0.2599 -0.1441
 3788TIP3    H132855   3.637   2.962  13.061  0.0906 -3.4772  0.1318
 3788TIP3    H232856   3.620   3.052  13.182  2.5726  0.5615 -2.2677
 3789TIP3   OH232857   3.184   3.437   5.564  0.5811 -0.6973  0.4780
 3789TIP3    H132858   3.235   3.390   5.629 -0.0968  1.0138  2.3526
 3789TIP3    H232859   3.238   3.513   5.541 -0.0304 -0.2163  0.5863
 3790TIP3   OH232860   4.268   4.021  12.946 -0.4420 -0.0826  0.3799
 3790TIP3    H132861   4.197   4.079  12.975 -0.5210 -0.3968  0.8122
 3790TIP3    H232862   4.244   4.000  12.855 -0.0959  1.0405  0.0116
 3791TIP3   OH232863   2.933   4.496   1.979 -0.4772 -0.3054  0.3000
 3791TIP3    H132864   2.973   4.497   2.066 -0.3674 -1.7135  0.2910
 3791TIP3    H232865   3.007   4.506   1.919 -0.4914  0.1485  0.3599
 3792TIP3   OH232866   2.352   0.429   6.228  0.6287  0.3550  0.0265
 3792TIP3    H132867   2.294   0.505   6.229  0.1099 -0.0302 -0.3979
 3792TIP3    H232868   2.371   0.413   6.321 -2.2155 -1.1938  0.4916
 3793TIP3   OH232869   2.373   3.232   1.347  0.4922  0.4192  0.5235
 3793TIP3    H132870   2.440   3.164   1.349  0.9977  0.5121 -3.6520
 3793TIP3    H232871   2.417   3.308   1.307 -0.8596  2.1888  2.2000
 3794TIP3   OH232872   1.585   0.554   1.910  0.1359  0.0024  0.0699
 3794TIP3    H132873   1.497   0.562   1.871 -1.0024 -2.8147  1.7667
 3794TIP3    H232874   1.576   0.592   1.997  0.2862 -1.1828  0.6181
 3795TIP3   OH232875   0.396   0.239  13.465 -0.0056 -0.2503  0.1477
 3795TIP3    H132876   0.389   0.238  13.370  0.0390 -2.5854  0.1129
 3795TIP3    H232877   0.489   0.231  13.483 -0.0162  0.1547  0.4139
 3796TIP3   OH232878   5.243   2.175  12.469 -0.2149  0.7497 -0.2249
 3796TIP3    H132879   5.256   2.158  12.375 -0.4695  0.4485 -0.2071
 3796TIP3    H232880   5.299   2.111  12.512 -1.5693 -0.4256 -0.1495
 3797TIP3   OH232881   0.587   0.502  12.816 -0.0252 -0.1391  0.1897
 3797TIP3    H132882   0.522   0.572  12.810 -1.4734 -1.3163  1.2965
 3797TIP3    H232883   0.615   0.488  12.725 -0.9977  0.6884 -0.2621
 3798TIP3   OH232884   1.867   4.665  17.466  0.0161 -0.1649  0.0243
 3798TIP3    H132885   1.834   4.753  17.446 -0.0925 -0.5155 -1.4533
 3798TIP3    H232886   1.888   4.627  17.380  0.3737 -1.4614  0.6606
 3799TIP3   OH232887   2.348   5.271   4.156 -0.5676  0.2406  0.3159
 3799TIP3    H132888   2.318   5.196   4.209 -1.5457  1.2538  1.2431
 3799TIP3    H232889   2.378   5.232   4.074 -2.4541 -1.0377  0.1865
 3800TIP3   OH232890   1.360   2.722  11.422 -0.2621 -0.4629 -0.0394
 3800TIP3    H132891   1.381   2.642  11.373 -1.6634 -0.6833 -0.3281
 3800TIP3    H232892   1.288   2.696  11.479 -0.9668  0.6759 -0.3808
 3801TIP3   OH232893   0.430   3.086  15.689 -0.3451 -0.2698 -0.2544
 3801TIP3    H132894   0.398   3.053  15.773  0.2858  3.0647  1.4514
 3801TIP3    H232895   0.374   3.160  15.670  0.0817 -0.4493 -2.3917
 3802TIP3   OH232896   6.361   2.008   3.698  0.1073 -0.3519  0.0599
 3802TIP3    H132897   6.373   1.915   3.715 -1.4819 -0.8674 -1.4164
 3802TIP3    H232898   6.429   2.029   3.634  0.6901 -0.3868  0.6499
 3803TIP3   OH232899   6.696   1.063  15.633 -0.2495  0.0642  0.4535
 3803TIP3    H132900   6.665   1.140  15.586  1.3151  0.8989  0.7306
 3803TIP3    H232901   6.660   0.989  15.585 -1.3895  0.9467 -0.0958
 3804TIP3   OH232902   4.229   5.114   3.641 -0.6644 -0.0996  0.0291
 3804TIP3    H132903   4.252   5.023   3.659  1.8058  0.7722  1.9134
 3804TIP3    H232904   4.304   5.148   3.592 -1.4627  0.9812 -0.4779
 3805TIP3   OH232905   0.619   5.176   2.022  0.1187  0.0149  0.3984
 3805TIP3    H132906   0.685   5.153   1.956  1.6070 -0.1049  1.8844
 3805TIP3    H232907   0.581   5.092   2.048  0.2854 -0.0370  0.4732
 3806TIP3   OH232908   2.975   4.222  14.054  0.0186 -0.0792  0.1275
 3806TIP3    H132909   3.066   4.194  14.046 -0.5044 -2.1516  0.8346
 3806TIP3    H232910   2.980   4.312  14.085  1.8245 -0.0781 -0.0689
 3807TIP3   OH232911   6.649   2.841  14.295  0.3056  0.4467 -0.1444
 3807TIP3    H132912   6.658   2.752  14.327  1.3353  0.4857 -0.2760
 3807TIP3    H232913   6.556   2.851  14.274  0.4426 -1.1314 -1.6952
 3808TIP3   OH232914   0.246   0.386  16.700  0.2360 -0.0572  0.0933
 3808TIP3    H132915   0.329   0.413  16.738  0.2045  0.9298 -0.5020
 3808TIP3    H232916   0.184   0.390  16.772  0.8826 -1.8107  0.7892
 3809TIP3   OH232917   5.181   3.320  17.131  0.2975  0.1010  0.0983
 3809TIP3    H132918   5.248   3.320  17.200  0.9596  0.4071 -0.5239
 3809TIP3    H232919   5.201   3.398  17.079  0.5925 -0.7929 -1.1618
 3810TIP3   OH232920   0.974   0.232  12.325  0.3056  0.1842 -0.2683
 3810TIP3    H132921   1.020   0.176  12.388 -0.6103 -0.9144 -0.5500
 3810TIP3    H232922   0.963   0.177  12.248  0.2147  1.0794 -0.9055
 3811TIP3   OH232923   1.701   4.457   3.884 -0.3925  0.3200 -0.3009
 3811TIP3    H132924   1.636   4.391   3.907  0.1234  0.1518  0.7412
 3811TIP3    H232925   1.670   4.537   3.926 -0.0882  0.3066 -0.0443
 3812TIP3   OH232926   4.148   6.453  15.573  0.0147 -0.4089  0.2627
 3812TIP3    H132927   4.237   6.426  15.595  0.6760  2.6153  1.8362
 3812TIP3    H232928   4.092   6.387  15.616  1.4367 -1.8829 -0.0316
 3813TIP3   OH232929   4.310   1.062  17.034  0.3708 -0.2551  0.0393
 3813TIP3    H132930   4.391   1.044  17.080  0.1277 -1.6768 -0.0547
 3813TIP3    H232931   4.334   1.063  16.942  0.2934 -0.5933  0.0162
 3814TIP3   OH232932   1.261   2.498  13.252 -0.3642  0.0865  0.3123
 3814TIP3    H132933   1.240   2.409  13.223  3.0463 -0.4125 -1.1046
 3814TIP3    H232934   1.230   2.555  13.181 -2.4501  0.1212  1.1716
 3815TIP3   OH232935   1.681   4.603  11.924  0.0796  0.0800 -0.1920
 3815TIP3    H132936   1.734   4.542  11.975 -1.3332 -0.7495  0.3298
 3815TIP3    H232937   1.708   4.589  11.833  0.6239 -0.4395  0.0445
 3816TIP3   OH232938   2.896   4.594   4.827  0.0074  0.2213  0.2062
 3816TIP3    H132939   2.808   4.575   4.859 -0.3073  0.2580 -0.6177
 3816TIP3    H232940   2.943   4.625   4.905 -1.5824  3.2613  0.1221
 3817TIP3   OH232941   0.969   0.305  14.551 -0.6844 -0.0615  0.2129
 3817TIP3    H132942   0.953   0.262  14.635 -1.1707 -0.4328 -0.0645
 3817TIP3    H232943   1.044   0.363  14.567 -0.5336 -0.4158  0.7997
 3818TIP3   OH232944   5.759   0.909   5.026  0.2569 -0.1961  0.3179
 3818TIP3    H132945   5.673   0.880   4.996 -0.2383  0.5880  0.9255
 3818TIP3    H232946   5.798   0.951   4.949 -0.9401  1.6639  0.6701
 3819TIP3   OH232947   0.782   1.242  14.153 -0.3434  0.4788 -0.1522
 3819TIP3    H132948   0.770   1.333  14.129  1.1476  0.7393  0.0168
 3819TIP3    H232949   0.720   1.194  14.098 -0.9850  1.5683 -0.3960
 3820TIP3   OH232950   4.302   0.578  16.052 -0.4837 -0.1237 -0.2469
 3820TIP3    H132951   4.230   0.516  16.068 -1.1351  0.4602 -0.8412
 3820TIP3    H232952   4.331   0.557  15.963 -0.4129  0.1396 -0.2845
 3821TIP3   OH232953   1.265   5.913  15.199 -0.3156  0.2301 -0.1745
 3821TIP3    H132954   1.212   5.882  15.272 -1.4615  1.7431 -0.3075
 3821TIP3    H232955   1.342   5.855  15.198 -1.1388 -0.9338  1.0893
 3822TIP3   OH232956   2.622   6.323   5.285 -0.0008  0.8541 -0.4097
 3822TIP3    H132957   2.641   6.232   5.262  0.3984  1.3568 -2.2042
 3822TIP3    H232958   2.530   6.321   5.313 -0.2901  0.0318 -1.3431
 3823TIP3   OH232959   3.785   6.381   5.665  0.4132  0.1463 -0.5107
 3823TIP3    H132960   3.797   6.474   5.643 -0.3940  0.1346 -1.0578
 3823TIP3    H232961   3.690   6.371   5.675  0.5856 -0.3377  0.8761
 3824TIP3   OH232962   6.146   0.221   1.983  0.2460  0.3054  0.0970
 3824TIP3    H132963   6.062   0.188   2.015  1.0694 -0.7248  1.3329
 3824TIP3    H232964   6.198   0.234   2.062  1.8743 -0.9134 -0.6995
 3825TIP3   OH232965   0.817   5.615  16.417  0.1299  0.0888 -0.8347
 3825TIP3    H132966   0.898   5.652  16.382  0.1562  1.7782  0.8146
 3825TIP3    H232967   0.764   5.692  16.439 -0.4613 -0.8648  1.3625
 3826TIP3   OH232968   3.343   1.711   1.515 -0.4701 -0.0284 -0.4085
 3826TIP3    H132969   3.295   1.760   1.582  0.1312  0.5292 -0.3754
 3826TIP3    H232970   3.434   1.713   1.545 -0.4730 -1.4085 -0.2705
 3827TIP3   OH232971   5.121   1.383   0.543 -0.3447 -0.1417 -0.1095
 3827TIP3    H132972   5.081   1.420   0.622  0.9044  1.1720 -0.0445
 3827TIP3    H232973   5.214   1.375   0.565 -0.4437 -2.7982 -0.3582
 3828TIP3   OH232974   0.234   1.188   3.967 -0.4456 -0.1743  0.0992
 3828TIP3    H132975   0.271   1.112   3.922  2.5795  0.1118  1.8147
 3828TIP3    H232976   0.150   1.203   3.924  1.1202 -1.2935 -3.7983
 3829TIP3   OH232977   1.773   6.541  12.668 -0.3473 -0.1578 -0.2169
 3829TIP3    H132978   1.736   6.613  12.617  1.8782  0.0802 -1.6101
 3829TIP3    H232979   1.861   6.571  12.692  0.7825 -2.4852 -1.1457
 3830TIP3   OH232980   4.313   0.463   4.067 -0.1808  0.3993  0.3736
 3830TIP3    H132981   4.360   0.477   3.985 -0.7261  2.5652  0.3574
 3830TIP3    H232982   4.381   0.449   4.133  0.3535  0.8049 -0.0903
 3831TIP3   OH232983   1.644   4.705   0.694  0.5738  0.3462 -0.0409
 3831TIP3    H132984   1.712   4.640   0.678 -0.1982 -0.8949  1.4693
 3831TIP3    H232985   1.680   4.761   0.762 -0.1347 -0.7551  1.2925
 3832TIP3   OH232986   4.315   6.551   0.261 -0.3735  0.2698  0.2184
 3832TIP3    H132987   4.247   6.557   0.328 -0.3579  1.2033  0.1679
 3832TIP3    H232988   4.371   6.479   0.290 -2.6536 -2.1671 -0.9367
 3833TIP3   OH232989   1.876   0.776   3.007 -0.1124 -0.2215 -0.3922
 3833TIP3    H132990   1.951   0.833   3.025 -0.4773 -0.1009  0.8052
 3833TIP3    H232991   1.916   0.693   2.979  0.4571  0.0189 -0.3182
 3834TIP3   OH232992   6.245   6.108   2.798  0.5384 -0.0466  0.0139
 3834TIP3    H132993   6.251   6.164   2.876 -0.1880  0.3867 -0.2267
 3834TIP3    H232994   6.265   6.020   2.830 -0.6096 -0.0227  0.8991
 3835TIP3   OH232995   4.826   0.436  13.138 -0.4334 -0.7978 -1.1333
 3835TIP3    H132996   4.777   0.486  13.072 -1.0500 -0.0292 -0.1171
 3835TIP3    H232997   4.762   0.415  13.205  0.4802 -0.2616 -0.0535
 3836TIP3   OH232998   2.123   1.835  11.792 -0.1606 -0.5380  0.3708
 3836TIP3    H132999   2.170   1.837  11.708 -0.1018 -0.9375  0.3961
 3836TIP3    H233000   2.162   1.762  11.839 -0.6363 -0.7103  0.4943
 3837TIP3   OH233001   0.696   1.120   3.847  0.0632 -0.0713 -0.1308
 3837TIP3    H133002   0.682   1.038   3.800 -1.2522 -0.2755  0.5653
 3837TIP3    H233003   0.642   1.112   3.926  2.2108  0.2349  1.4569
 3838TIP3   OH233004   0.195   1.912  16.770 -0.0772  0.1850 -0.1651
 3838TIP3    H133005   0.280   1.950  16.794 -0.2301 -0.2063  1.0386
 3838TIP3    H233006   0.166   1.965  16.695  0.3512  1.5463  0.5937
 3839TIP3   OH233007   2.694   4.650   0.797 -0.3305  0.7376 -0.3372
 3839TIP3    H133008   2.711   4.557   0.787  0.9826  1.0992 -1.9994
 3839TIP3    H233009   2.731   4.673   0.882  0.1392 -0.0872 -0.3169
 3840TIP3   OH233010   3.379   1.023   3.528 -0.3894 -0.3755  0.5008
 3840TIP3    H133011   3.356   0.995   3.617 -0.6312 -0.4765  0.4082
 3840TIP3    H233012   3.302   1.000   3.475 -0.8392  0.9819  0.5196
 3841TIP3   OH233013   3.489   4.656   4.133 -0.7209 -0.1660  0.5212
 3841TIP3    H133014   3.513   4.691   4.047  1.2206 -0.2837  0.9670
 3841TIP3    H233015   3.412   4.707   4.159 -0.9908  0.2664 -1.0232
 3842TIP3   OH233016   0.310   6.517   4.324 -0.1054 -0.0595 -0.3003
 3842TIP3    H133017   0.247   6.555   4.385 -1.3432  0.1865 -1.6844
 3842TIP3    H233018   0.267   6.521   4.239  1.7381  0.0188 -1.2862
 3843TIP3   OH233019   3.862   5.477  15.784 -0.3155  0.2582 -0.0025
 3843TIP3    H133020   3.810   5.490  15.705  0.3072 -0.2434 -0.5147
 3843TIP3    H233021   3.947   5.447  15.751  0.4976  1.6377  0.7703
 3844TIP3   OH233022   6.499   4.356   2.037  0.2254 -0.2694  0.0460
 3844TIP3    H133023   6.453   4.361   2.121 -1.8502 -1.0459 -0.9709
 3844TIP3    H233024   6.590   4.341   2.061 -0.4148 -1.2128  2.1618
 3845TIP3   OH233025   6.024   5.140  15.344  0.5491  0.1773 -0.3905
 3845TIP3    H133026   6.108   5.116  15.383  0.4972 -0.9163 -0.9168
 3845TIP3    H233027   6.043   5.148  15.251  0.0330 -0.2632 -0.5364
 3846TIP3   OH233028   3.816   4.024  14.788 -0.1428 -0.0980 -0.0003
 3846TIP3    H133029   3.738   3.969  14.795 -0.8978  1.1378  1.9200
 3846TIP3    H233030   3.882   3.967  14.750 -1.3924 -1.7971  0.2838
 3847TIP3   OH233031   0.714   1.478   1.337  0.3111  0.8050 -0.7352
 3847TIP3    H133032   0.626   1.453   1.363  1.0419  0.1898  1.4011
 3847TIP3    H233033   0.709   1.493   1.243 -2.0234  0.6741 -0.6732
 3848TIP3   OH233034   2.117   1.063  16.345  0.3028  0.0355 -0.0267
 3848TIP3    H133035   2.081   1.122  16.411  1.6106  1.2753 -0.3719
 3848TIP3    H233036   2.051   0.994  16.337 -0.4598  0.4960  1.6670
 3849TIP3   OH233037   6.007   2.827   2.092  0.0772  0.5998  0.8155
 3849TIP3    H133038   6.029   2.846   2.000  0.5050 -0.7224  0.6105
 3849TIP3    H233039   5.913   2.841   2.098  0.0948  0.9914  0.2509
 3850TIP3   OH233040   2.945   4.384  15.945  0.4889  0.3109 -0.0827
 3850TIP3    H133041   2.879   4.314  15.943  0.6403 -0.1450  3.6616
 3850TIP3    H233042   2.894   4.464  15.954  0.3711  0.1950  0.3329
 3851TIP3   OH233043   0.060   6.746  16.700  0.2149 -0.4127 -0.1318
 3851TIP3    H133044   0.023   6.787  16.778  0.5315  0.6578 -0.5385
 3851TIP3    H233045  -0.015   6.720  16.648  0.0025  1.1598 -0.6501
 3852TIP3   OH233046   0.599   0.370  14.834 -0.5578  0.1897  0.3570
 3852TIP3    H133047   0.551   0.379  14.752 -1.3470  0.8528  0.8788
 3852TIP3    H233048   0.646   0.452  14.844  3.3114 -1.4990 -1.6981
 3853TIP3   OH233049   1.977   0.215   3.956  0.5243 -0.1235  0.0500
 3853TIP3    H133050   1.905   0.210   4.019  0.3149 -0.7894 -0.2322
 3853TIP3    H233051   2.033   0.285   3.989 -1.0280  1.4541 -0.5453
 3854TIP3   OH233052   3.032   0.547  16.870  0.2191  0.0678  0.4842
 3854TIP3    H133053   3.044   0.636  16.903  0.6778  0.6360 -1.1064
 3854TIP3    H233054   3.028   0.557  16.775  1.0431 -1.6947  0.2121
 3855TIP3   OH233055   0.362   6.568   2.442 -0.7281 -0.3205 -0.2152
 3855TIP3    H133056   0.346   6.661   2.462 -0.0713  0.3188 -2.3675
 3855TIP3    H233057   0.457   6.562   2.433 -0.8552 -0.9474 -1.2331
 3856TIP3   OH233058   2.359   6.260   2.387  0.4285  0.3261 -0.4017
 3856TIP3    H133059   2.438   6.223   2.349 -0.4667  0.5197 -2.6353
 3856TIP3    H233060   2.350   6.218   2.472  2.1622 -0.7225 -0.7001
 3857TIP3   OH233061   5.488   6.625  17.402 -0.6347  0.1891 -0.5050
 3857TIP3    H133062   5.501   6.720  17.397 -0.7025  0.2325  0.0923
 3857TIP3    H233063   5.426   6.606  17.332 -2.5630  0.9450  0.8813
 3858TIP3   OH233064   0.818   1.294  17.224  0.5974  0.3730  0.4023
 3858TIP3    H133065   0.898   1.347  17.215  1.0743 -0.1424  1.4366
 3858TIP3    H233066   0.748   1.353  17.198  1.4847 -0.0090 -3.4782
 3859TIP3   OH233067   0.342   2.406  13.789  0.0542 -0.0885  0.4017
 3859TIP3    H133068   0.326   2.465  13.863  2.0316  3.7502 -1.9262
 3859TIP3    H233069   0.432   2.376  13.801  0.1647  0.0348 -0.0983
 3860TIP3   OH233070   4.352   5.197   4.750  0.6882 -0.3096 -0.2433
 3860TIP3    H133071   4.264   5.206   4.787  0.1289  1.4589 -1.8641
 3860TIP3    H233072   4.339   5.147   4.670  1.0373  0.4993 -0.8166
 3861TIP3   OH233073   3.658   2.134   5.368  0.6182 -0.3639 -0.0259
 3861TIP3    H133074   3.730   2.076   5.394  0.7210  0.1396  0.8818
 3861TIP3    H233075   3.579   2.086   5.393  0.7131  0.0550  1.1510
 3862TIP3   OH233076   2.756   6.293  11.208 -0.3632 -0.2012 -0.1167
 3862TIP3    H133077   2.674   6.329  11.173  0.3541  0.7733 -0.8701
 3862TIP3    H233078   2.742   6.199  11.211 -1.7737 -0.0000  0.4773
 3863TIP3   OH233079   5.690   2.206   1.768  1.1870 -0.1118  0.1362
 3863TIP3    H133080   5.774   2.177   1.734  1.0090  0.6912 -1.0524
 3863TIP3    H233081   5.633   2.129   1.760  2.1211 -1.1058  2.2688
 3864TIP3   OH233082   5.152   2.257   6.500  0.4264  0.4050  0.2533
 3864TIP3    H133083   5.121   2.180   6.548  1.4917  0.5827  1.2889
 3864TIP3    H233084   5.238   2.231   6.468 -0.4210  0.1565 -1.9675
 3865TIP3   OH233085   4.383   5.827  15.501 -0.1864  0.2653  0.1531
 3865TIP3    H133086   4.347   5.910  15.533 -0.8669 -0.4291  1.2995
 3865TIP3    H233087   4.453   5.852  15.441  0.1034  1.6703  1.0275
 3866TIP3   OH233088   4.922   6.420   4.285  0.6388 -0.3701 -0.3375
 3866TIP3    H133089   4.891   6.330   4.280  1.5208 -0.8168  1.5224
 3866TIP3    H233090   5.017   6.413   4.287  0.7367  0.6407 -0.6070
 3867TIP3   OH233091   0.272   6.252   3.826 -0.0712  0.4980  0.7524
 3867TIP3    H133092   0.185   6.292   3.822 -0.8656 -1.2248 -1.1037
 3867TIP3    H233093   0.268   6.180   3.763  2.7187  0.3562  0.6079
 3868TIP3   OH233094   0.239   2.530   1.035  0.0241  0.6222  0.7717
 3868TIP3    H133095   0.291   2.493   0.963  0.6602 -1.0988  2.0558
 3868TIP3    H233096   0.184   2.596   0.992 -0.2024 -0.8772 -1.4261
 3869TIP3   OH233097   0.189   1.375  14.571  0.3051  0.1336 -0.0695
 3869TIP3    H133098   0.237   1.358  14.489  0.1191 -0.0594 -0.1369
 3869TIP3    H233099   0.255   1.363  14.640  0.7224  1.2752 -0.2390
 3870TIP3   OH233100   0.174   1.767  11.593  0.0262  0.0828  0.2926
 3870TIP3    H133101   0.249   1.805  11.638 -0.1148  0.2958  0.3509
 3870TIP3    H233102   0.135   1.708  11.658  1.0089 -1.1674 -0.2407
 3871TIP3   OH233103   2.226   5.197   3.579  0.0423  0.2816 -0.0544
 3871TIP3    H133104   2.219   5.280   3.532 -0.3183 -0.5506 -1.5337
 3871TIP3    H233105   2.141   5.156   3.568  0.0188 -0.0356  1.1915
 3872TIP3   OH233106   1.867   5.573   2.947  0.5916  0.1984  0.1325
 3872TIP3    H133107   1.897   5.652   2.992 -0.2403  0.8959 -0.4986
 3872TIP3    H233108   1.777   5.561   2.976  1.0780 -1.2141  1.1242
 3873TIP3   OH233109   5.055   1.349   2.173  0.0927  0.2613  0.9829
 3873TIP3    H133110   5.000   1.301   2.236 -0.6692 -1.5842 -0.9468
 3873TIP3    H233111   5.139   1.358   2.217 -0.6391 -0.2463  2.5739
 3874TIP3   OH233112   0.846   3.752   1.372  0.6133  0.0508  0.6420
 3874TIP3    H133113   0.789   3.819   1.410  1.2817  1.2773 -0.4344
 3874TIP3    H233114   0.846   3.682   1.437  0.3323  1.3187  2.0859
 3875TIP3   OH233115   6.258   4.894  13.402 -0.7261  0.0153  0.1290
 3875TIP3    H133116   6.201   4.820  13.384 -0.4996 -0.2135  0.3428
 3875TIP3    H233117   6.212   4.970  13.367 -1.5289 -0.0506  1.0217
 3876TIP3   OH233118   0.913   4.047  14.077 -0.2463 -0.0900  0.1461
 3876TIP3    H133119   0.998   4.002  14.083 -0.5083 -0.6278 -0.1153
 3876TIP3    H233120   0.893   4.047  13.984  0.3305  1.6905 -0.0188
 3877TIP3   OH233121   3.553   6.052   4.519 -0.1376 -0.5955 -0.7307
 3877TIP3    H133122   3.559   5.972   4.571  1.7298 -1.8057 -2.6156
 3877TIP3    H233123   3.480   6.036   4.459 -1.0093 -0.0289  0.1469
 3878TIP3   OH233124   1.820   3.719   4.608 -0.7678 -0.2518  0.1435
 3878TIP3    H133125   1.813   3.691   4.516  0.3862  1.8114 -0.6311
 3878TIP3    H233126   1.763   3.795   4.615 -2.2259 -1.4026  1.6634
 3879TIP3   OH233127   6.666   1.082  11.252  0.4616 -0.0818  0.1562
 3879TIP3    H133128   6.726   1.021  11.294 -0.3736  0.3064  2.0123
 3879TIP3    H233129   6.609   1.027  11.198  0.2233 -0.8776  1.1798
 3880TIP3   OH233130   5.556   3.832  12.801 -0.0959 -0.1303  0.2409
 3880TIP3    H133131   5.625   3.773  12.770 -0.7683 -0.7097 -0.1839
 3880TIP3    H233132   5.603   3.900  12.850  0.9143  0.2416 -1.1704
 3881TIP3   OH233133   0.232   2.949  16.597  0.2804  0.7874  0.0714
 3881TIP3    H133134   0.169   3.019  16.613 -1.5351 -0.8658  0.5727
 3881TIP3    H233135   0.272   2.932  16.682 -0.7989 -0.1276  0.4214
 3882TIP3   OH233136   2.091   1.100  15.001  0.2425 -0.0434 -0.3063
 3882TIP3    H133137   2.031   1.133  14.935 -1.9032 -2.1662  0.4418
 3882TIP3    H233138   2.137   1.028  14.959  0.5772  0.0671 -0.1423
 3883TIP3   OH233139   5.100   5.723   3.379  0.2921 -0.4209  0.2166
 3883TIP3    H133140   5.005   5.711   3.383  0.4521 -1.6528  1.3521
 3883TIP3    H233141   5.128   5.675   3.301 -0.0758  0.5458 -0.5252
 3884TIP3   OH233142   2.864   4.316   5.192 -0.0906 -0.3945 -0.1460
 3884TIP3    H133143   2.831   4.320   5.103  1.4522 -1.3527 -0.8101
 3884TIP3    H233144   2.815   4.245   5.233 -0.5649 -0.1753 -0.3263
 3885TIP3   OH233145   3.869   2.939  15.743  0.0189 -0.1729  0.2837
 3885TIP3    H133146   3.898   2.874  15.807  0.5533  1.0018  1.2829
 3885TIP3    H233147   3.779   2.959  15.768 -0.0427 -0.3020  0.1660
 3886TIP3   OH233148   1.379   1.675   3.364  0.1801  0.2891  0.4939
 3886TIP3    H133149   1.309   1.643   3.306  0.6354  0.7075 -0.2966
 3886TIP3    H233150   1.335   1.687   3.448 -1.0356  1.7694 -0.2954
 3887TIP3   OH233151   6.484   6.089  15.963 -0.5864  1.0266  0.7624
 3887TIP3    H133152   6.454   5.999  15.949  0.2102  0.9502 -0.6647
 3887TIP3    H233153   6.431   6.121  16.036 -0.0974 -0.9780  2.0925
 3888TIP3   OH233154   3.313   1.730  14.164  0.3386  0.0949 -0.4217
 3888TIP3    H133155   3.397   1.776  14.156 -1.0246  2.5077 -2.5957
 3888TIP3    H233156   3.312   1.696  14.253  4.6792 -2.3711 -1.0257
 3889TIP3   OH233157   3.355   4.677   0.196  0.4294  0.1677 -0.5732
 3889TIP3    H133158   3.446   4.703   0.183  0.9104 -1.1512 -0.0334
 3889TIP3    H233159   3.340   4.610   0.130  0.2202 -0.4534  0.0984
 3890TIP3   OH233160   2.202   2.158  14.896  0.0433  0.0480 -0.2618
 3890TIP3    H133161   2.189   2.218  14.969  0.1552 -1.1922  0.8186
 3890TIP3    H233162   2.291   2.176  14.865 -0.0108  0.5926 -0.1044
 3891TIP3   OH233163   3.056   0.727   4.238  0.4478  0.2204 -0.2116
 3891TIP3    H133164   3.021   0.796   4.181  0.5743 -1.4476 -2.4225
 3891TIP3    H233165   3.051   0.647   4.185  1.1785 -1.3151  1.9249
 3892TIP3   OH233166   0.842   5.014  14.069 -0.0888 -0.3448 -0.0328
 3892TIP3    H133167   0.817   4.924  14.051  0.7667 -0.4230 -0.9122
 3892TIP3    H233168   0.759   5.061  14.078 -0.5428 -1.0152 -0.6291
 3893TIP3   OH233169   1.522   0.560   0.438  0.5395 -0.4803  0.3263
 3893TIP3    H133170   1.575   0.629   0.478  1.1338 -0.8565  0.1980
 3893TIP3    H233171   1.550   0.558   0.347 -0.3210 -0.0975  0.0406
 3894TIP3   OH233172   6.620   5.014  15.201  0.3086  0.3066 -0.3136
 3894TIP3    H133173   6.584   5.100  15.218 -0.3174  0.0010 -0.0583
 3894TIP3    H233174   6.653   4.985  15.287 -0.2457 -0.0503 -0.2159
 3895TIP3   OH233175   2.859   0.543  12.665  0.0000 -0.3804  0.4940
 3895TIP3    H133176   2.893   0.598  12.594  0.9007  0.5227  1.5720
 3895TIP3    H233177   2.785   0.592  12.700 -0.0874 -0.5496  0.5488
 3896TIP3   OH233178   3.987   4.344   4.678  0.0012 -0.3093 -0.0168
 3896TIP3    H133179   4.078   4.340   4.708  0.2023  0.9424 -0.3997
 3896TIP3    H233180   3.993   4.361   4.584 -0.6055  1.5474  0.2477
 3897TIP3   OH233181   5.129   4.790   1.821  0.1088  0.6029 -1.0534
 3897TIP3    H133182   5.054   4.748   1.864  0.6037 -3.3466 -3.5048
 3897TIP3    H233183   5.205   4.744   1.857  0.8061  0.1315 -3.0182
 3898TIP3   OH233184   0.235   0.345   0.049 -0.2501 -0.4070 -0.4022
 3898TIP3    H133185   0.172   0.285   0.008 -0.3305 -0.1378 -0.6709
 3898TIP3    H233186   0.185   0.425   0.066 -0.1715 -0.4516  0.0620
 3899TIP3   OH233187   3.824   5.165   0.344  0.3035 -0.1218  0.6539
 3899TIP3    H133188   3.912   5.134   0.364  1.0626  1.4880 -0.0011
 3899TIP3    H233189   3.769   5.088   0.353  1.7821 -1.1873  1.0079
 3900TIP3   OH233190   3.140   6.523  12.880 -0.3034  0.1314  0.1429
 3900TIP3    H133191   3.128   6.614  12.908  1.3638  1.7993 -3.9173
 3900TIP3    H233192   3.054   6.497  12.846 -0.2756  0.9560 -0.5774
 3901TIP3   OH233193   1.899   2.940   3.864 -0.1484 -0.1818 -0.0308
 3901TIP3    H133194   1.929   2.849   3.856 -0.8357 -0.5542  1.2872
 3901TIP3    H233195   1.842   2.939   3.941 -1.5988  1.0038 -1.0335
 3902TIP3   OH233196   3.890   4.903   4.816 -0.2382 -0.4670  0.9709
 3902TIP3    H133197   3.910   4.979   4.871 -0.1130  0.0064  0.2817
 3902TIP3    H233198   3.894   4.937   4.727 -1.9989 -0.8603  0.7226
 3903TIP3   OH233199   2.904   4.462  16.930 -0.6215 -0.3241  0.1789
 3903TIP3    H133200   2.918   4.469  16.836 -1.4097  0.6920  0.1152
 3903TIP3    H233201   2.816   4.426  16.939 -0.9161  0.4602  0.5156
 3904TIP3   OH233202   1.357   3.530   6.113  0.3961  0.0411  0.2239
 3904TIP3    H133203   1.285   3.487   6.160  1.5129 -2.5841 -0.2701
 3904TIP3    H233204   1.409   3.571   6.182 -0.0077 -0.5582  0.9060
 3905TIP3   OH233205   3.555   3.759   2.986 -0.3443 -0.0095  0.1163
 3905TIP3    H133206   3.465   3.788   2.998 -0.7749 -1.3199  0.2661
 3905TIP3    H233207   3.553   3.707   2.905  0.9002  2.2852 -1.4872
 3906TIP3   OH233208   2.501   2.393  11.259  0.3310  0.2429 -0.2826
 3906TIP3    H133209   2.476   2.301  11.250  0.5801  0.1921 -0.4753
 3906TIP3    H233210   2.587   2.399  11.218  0.6930  0.3880  0.4981
 3907TIP3   OH233211   2.439   5.551   5.688  0.1525  0.4140  0.1558
 3907TIP3    H133212   2.413   5.642   5.707  0.5280  0.4129  0.6605
 3907TIP3    H233213   2.526   5.542   5.726  0.9588  0.4294 -1.5725
 3908TIP3   OH233214   6.527   3.777   6.234 -0.2851 -0.2856  0.1588
 3908TIP3    H133215   6.438   3.806   6.252 -0.4080 -0.4669 -0.1557
 3908TIP3    H233216   6.517   3.690   6.195  0.0653 -0.6045  0.7661
 3909TIP3   OH233217   0.833   4.147   4.135 -0.5100 -0.6190 -0.2531
 3909TIP3    H133218   0.766   4.213   4.152 -0.4400 -0.6542  0.1693
 3909TIP3    H233219   0.909   4.197   4.104 -1.0130 -0.6563 -1.5865
 3910TIP3   OH233220   6.760   4.361  16.799 -0.4296 -0.3983  0.1980
 3910TIP3    H133221   6.755   4.397  16.888 -0.7846 -1.8408  0.7906
 3910TIP3    H233222   6.853   4.364  16.777  0.0862 -2.4573  1.7150
 3911TIP3   OH233223   4.883   5.730  13.120 -0.2294 -0.2767  0.5871
 3911TIP3    H133224   4.830   5.780  13.181 -1.2885 -0.2760 -0.3049
 3911TIP3    H233225   4.910   5.793  13.053 -0.2936 -0.5784  0.2748
 3912TIP3   OH233226   5.433   3.541   3.109  0.4212  0.1929  0.0127
 3912TIP3    H133227   5.509   3.557   3.053 -0.5086 -0.3585 -1.4646
 3912TIP3    H233228   5.399   3.628   3.129 -0.1385  0.3866 -1.6170
 3913TIP3   OH233229   5.387   1.435  14.454 -0.3372 -0.0837 -0.0421
 3913TIP3    H133230   5.411   1.376  14.383 -0.1579  0.5392 -0.5060
 3913TIP3    H233231   5.442   1.513  14.441 -0.3196  0.0504  0.7572
 3914TIP3   OH233232   3.871   1.747   0.431 -0.2955  0.3882  0.0895
 3914TIP3    H133233   3.854   1.723   0.522 -0.7870  0.3090 -0.0228
 3914TIP3    H233234   3.841   1.837   0.424 -1.4764 -0.0179 -0.3214
 3915TIP3   OH233235   6.664   2.427  16.389 -0.1646 -0.4765 -0.3251
 3915TIP3    H133236   6.616   2.478  16.455  0.7052 -1.0845  0.8386
 3915TIP3    H233237   6.634   2.337  16.401  0.4485 -0.6882 -0.3153
 3916TIP3   OH233238   5.135   3.728  12.005  0.2046  0.3097 -0.4185
 3916TIP3    H133239   5.050   3.736  11.961  0.2268  1.2102 -0.3266
 3916TIP3    H233240   5.180   3.810  11.984  1.5724 -0.6731 -1.5279
 3917TIP3   OH233241   1.718   5.176   3.984 -1.0127  0.2862  0.5556
 3917TIP3    H133242   1.799   5.131   3.959 -0.5335  0.1570  2.2388
 3917TIP3    H233243   1.686   5.215   3.902  0.8855  0.5574 -0.1044
 3918TIP3   OH233244   5.029   5.875   3.616 -0.0301 -0.5317  0.2108
 3918TIP3    H133245   4.948   5.841   3.655 -0.7864  0.3664 -0.5268
 3918TIP3    H233246   5.053   5.809   3.551 -1.0775 -0.0575 -0.6932
 3919TIP3   OH233247   3.057   5.023  11.131 -0.3452 -0.6022 -0.2273
 3919TIP3    H133248   3.105   5.034  11.049  0.1714  1.7932  0.3072
 3919TIP3    H233249   2.971   4.991  11.104 -0.1203 -0.0741 -1.6889
 3920TIP3   OH233250   5.408   6.638   2.636  0.0187  0.3468  0.4478
 3920TIP3    H133251   5.433   6.571   2.700 -0.0872 -0.7686 -0.6251
 3920TIP3    H233252   5.407   6.591   2.552  1.6355  2.0897 -0.6291
 3921TIP3   OH233253   2.695   6.669  11.854  0.0212  0.5470  0.2377
 3921TIP3    H133254   2.639   6.652  11.930 -0.0699 -0.4480 -0.0423
 3921TIP3    H233255   2.693   6.764  11.845 -0.2661  0.6577  1.2518
 3922TIP3   OH233256   2.092   4.778  16.055  0.8917  0.4811 -0.3838
 3922TIP3    H133257   2.097   4.861  16.007  0.4031  1.3210  0.9516
 3922TIP3    H233258   2.011   4.784  16.106  1.5420 -0.2156  0.7930
 3923TIP3   OH233259   2.462   6.380   4.006  0.4214 -0.1035 -0.3099
 3923TIP3    H133260   2.536   6.330   3.970  0.2826  0.1788 -1.0159
 3923TIP3    H233261   2.503   6.449   4.058  0.6084 -1.1329  0.9461
 3924TIP3   OH233262   5.099   0.256  15.017  0.2043 -0.0808  0.4851
 3924TIP3    H133263   5.046   0.238  15.094  0.9090  0.7170  1.1737
 3924TIP3    H233264   5.035   0.275  14.948 -0.4231  0.6613  1.2429
 3925TIP3   OH233265   3.845   6.207  16.750  0.1469 -0.7884 -0.6819
 3925TIP3    H133266   3.846   6.233  16.658 -3.0942  0.9813 -0.3816
 3925TIP3    H233267   3.752   6.209  16.774  0.7626 -2.4798  2.3098
 3926TIP3   OH233268   5.210   5.525  11.453 -0.1347 -0.7874 -0.3604
 3926TIP3    H133269   5.181   5.599  11.508  0.4412  1.1000 -2.4696
 3926TIP3    H233270   5.259   5.469  11.513 -1.0090  0.2695  1.4314
 3927TIP3   OH233271   4.648   3.843  16.337 -0.0576  0.4086 -0.3814
 3927TIP3    H133272   4.743   3.832  16.349 -0.4039 -1.7147  1.0662
 3927TIP3    H233273   4.615   3.859  16.425 -1.1006  0.7320 -0.8157
 3928TIP3   OH233274   0.443   2.030   2.570 -0.0958  0.0121  0.8385
 3928TIP3    H133275   0.428   2.015   2.664  0.1978  0.0111  0.8851
 3928TIP3    H233276   0.386   2.104   2.549  1.4864  1.4951  1.5351
 3929TIP3   OH233277   4.047   1.948   0.932 -0.1927  0.1968  0.0125
 3929TIP3    H133278   4.055   1.942   0.837  0.2956 -0.5940  0.0984
 3929TIP3    H233279   4.122   2.002   0.959 -0.7331  1.0339 -0.1048
 3930TIP3   OH233280   4.716   6.512  15.652  0.1805 -0.1410 -0.2226
 3930TIP3    H133281   4.660   6.478  15.721 -0.7113 -1.5749 -1.5748
 3930TIP3    H233282   4.655   6.540  15.583  1.0629  0.0390 -0.9560
 3931TIP3   OH233283   6.246   0.031  11.231  0.0280 -0.2196  0.4752
 3931TIP3    H133284   6.309   0.096  11.198 -1.7126  0.7636 -1.1950
 3931TIP3    H233285   6.258  -0.045  11.174  0.1728 -0.2899  0.6004
 3932TIP3   OH233286   0.101   1.299  11.694  0.2217  0.4733 -0.0385
 3932TIP3    H133287   0.062   1.211  11.693  0.3615  0.3906  0.8384
 3932TIP3    H233288   0.026   1.358  11.684  0.1217  0.2597 -0.5814
 3933TIP3   OH233289   3.139   3.363   6.452  0.0111  0.1624  0.2196
 3933TIP3    H133290   3.049   3.393   6.443 -2.0494 -4.9028  0.5083
 3933TIP3    H233291   3.146   3.332   6.542  1.5450 -0.8266 -0.1859
 3934TIP3   OH233292   2.625   1.781   3.401  1.2107 -0.1355  0.3216
 3934TIP3    H133293   2.574   1.700   3.412 -1.0552  1.3579  1.6569
 3934TIP3    H233294   2.617   1.802   3.309  1.2118 -1.0248  0.1056
 3935TIP3   OH233295   0.087   2.298   2.093  0.3270 -0.2610 -0.1564
 3935TIP3    H133296   0.137   2.217   2.108  0.1007 -0.5375 -0.8518
 3935TIP3    H233297   0.022   2.274   2.026  0.0765  0.4218 -0.1630
 3936TIP3   OH233298   4.001   0.712   2.200  0.3832 -0.0722  0.2206
 3936TIP3    H133299   3.950   0.651   2.253 -0.2177 -0.3351 -0.6324
 3936TIP3    H233300   4.052   0.657   2.142  0.3622  0.2227 -0.0798
 3937TIP3   OH233301   2.160   1.619   3.663 -0.2466 -0.1353 -0.6362
 3937TIP3    H133302   2.132   1.658   3.580  0.6838 -1.8828 -1.8351
 3937TIP3    H233303   2.243   1.663   3.683 -0.5928  0.4620 -0.4941
 3938TIP3   OH233304   3.608   6.254   1.344  0.1111 -0.5107 -0.1208
 3938TIP3    H133305   3.521   6.218   1.358 -0.5163  0.7905 -0.5095
 3938TIP3    H233306   3.622   6.246   1.249 -1.1050  2.4548 -0.6535
 3939TIP3   OH233307   3.939   1.197  14.300 -0.3085 -0.2287  0.3060
 3939TIP3    H133308   3.903   1.110  14.319  1.9716 -0.8056  2.7828
 3939TIP3    H233309   3.869   1.258  14.324 -1.0306 -1.3340  1.1143
 3940TIP3   OH233310   2.852   6.183  14.622  0.5227  0.0165 -0.3667
 3940TIP3    H133311   2.820   6.213  14.707  2.6971 -0.2784  0.6151
 3940TIP3    H233312   2.823   6.251  14.561  2.2134  2.3425  1.2436
 3941TIP3   OH233313   6.082   4.858  12.822  0.0623  0.0955 -0.3773
 3941TIP3    H133314   6.092   4.870  12.727  1.0794 -0.7589 -0.4029
 3941TIP3    H233315   5.988   4.871  12.838  0.0859  1.5904 -1.2809
 3942TIP3   OH233316   1.143   2.678   0.828 -0.1664 -0.4940 -0.2575
 3942TIP3    H133317   1.189   2.760   0.841  1.3694 -1.3426 -0.1269
 3942TIP3    H233318   1.050   2.702   0.827  0.2819  1.3493 -1.1475
 3943TIP3   OH233319   4.504   1.141   1.763 -0.0076  0.5375 -0.1401
 3943TIP3    H133320   4.454   1.218   1.735 -1.3928  0.7951  2.7276
 3943TIP3    H233321   4.581   1.178   1.806 -0.9363  0.4344  1.7183
 3944TIP3   OH233322   1.902   0.571   5.355 -0.2773 -0.0043 -0.6786
 3944TIP3    H133323   1.901   0.559   5.260  2.9804  1.0916 -0.9548
 3944TIP3    H233324   1.976   0.518   5.385 -0.2744  0.9208  1.0400
 3945TIP3   OH233325   4.296   1.661  12.030  0.3805 -0.0447  0.3842
 3945TIP3    H133326   4.345   1.617  11.961 -0.5538 -0.0426 -0.2909
 3945TIP3    H233327   4.248   1.592  12.075 -0.1555  0.1253  0.0850
 3946TIP3   OH233328   4.003   6.517   3.624 -0.0433 -0.2676 -0.5708
 3946TIP3    H133329   3.939   6.588   3.624  2.9185  2.6596  0.1614
 3946TIP3    H233330   4.025   6.504   3.716 -0.2503 -1.9780 -0.7158
 3947TIP3   OH233331   1.787   3.556  15.005 -0.0885 -0.1220  0.3470
 3947TIP3    H133332   1.749   3.495  14.942  0.8958 -0.1201 -0.2696
 3947TIP3    H233333   1.877   3.526  15.015 -0.4133 -0.5770  2.3463
 3948TIP3   OH233334   1.972   3.666   4.246  0.3939 -0.0748  0.1771
 3948TIP3    H133335   1.977   3.761   4.234  2.0723  0.0692  1.5663
 3948TIP3    H233336   2.001   3.630   4.163 -0.0286  0.6408 -0.2868
 3949TIP3   OH233337   4.251   6.202  11.332 -0.4543 -0.2318 -0.2905
 3949TIP3    H133338   4.160   6.176  11.320 -1.1865  2.7338 -2.4171
 3949TIP3    H233339   4.294   6.176  11.250  0.2804 -0.4635  0.1643
 3950TIP3   OH233340   5.214   6.025   3.742  0.0270 -0.0210 -0.2034
 3950TIP3    H133341   5.153   6.096   3.763  0.8176  0.1216  1.8441
 3950TIP3    H233342   5.164   5.967   3.684 -1.5153  0.8797  0.1697
 3951TIP3   OH233343   4.736   3.154  11.603 -0.0542  0.3165 -0.6479
 3951TIP3    H133344   4.698   3.141  11.516 -0.2279  0.4521 -0.5930
 3951TIP3    H233345   4.662   3.177  11.659 -0.0905 -0.7404 -0.2457
 3952TIP3   OH233346   5.676   1.647  16.695 -0.7870  0.1039 -0.5124
 3952TIP3    H133347   5.688   1.742  16.693  0.7765 -0.0679 -0.8022
 3952TIP3    H233348   5.680   1.625  16.788 -1.7800  0.3756 -0.3958
 3953TIP3   OH233349   5.413   4.264   3.473  0.1868  0.2571 -0.2366
 3953TIP3    H133350   5.333   4.214   3.489 -1.0343  2.2961  0.3828
 3953TIP3    H233351   5.405   4.295   3.383 -0.6705  2.0124  0.4091
 3954TIP3   OH233352   5.995   6.430  17.155  0.1179 -0.0475 -0.7609
 3954TIP3    H133353   5.987   6.387  17.069  0.7716 -0.3162 -0.6970
 3954TIP3    H233354   6.088   6.422  17.177  0.1957  1.1639 -0.6111
 3955TIP3   OH233355   4.821   5.395   4.912 -0.4233 -0.2697  0.1127
 3955TIP3    H133356   4.914   5.372   4.903  0.0636  1.3273  0.7572
 3955TIP3    H233357   4.788   5.335   4.979  0.1757 -0.7275  0.0103
 3956TIP3   OH233358   0.258   5.580   3.987 -0.2221  0.0809 -0.4006
 3956TIP3    H133359   0.246   5.669   4.021  2.8050  0.2006  0.6572
 3956TIP3    H233360   0.203   5.525   4.043 -0.4348  1.0498  0.3586
 3957TIP3   OH233361   0.247   4.308   4.602  0.0048 -0.2326 -0.0438
 3957TIP3    H133362   0.184   4.237   4.589  0.3653 -0.4632 -0.5738
 3957TIP3    H233363   0.313   4.270   4.660 -0.9655  0.4045  1.5443
 3958TIP3   OH233364   4.208   4.114   3.182  0.0671 -0.3100  0.3935
 3958TIP3    H133365   4.272   4.058   3.139  0.1671  0.2342 -0.1895
 3958TIP3    H233366   4.205   4.083   3.272 -1.9454 -3.1317 -0.5097
 3959TIP3   OH233367   3.585   5.325  16.352  0.3691 -0.6083  0.0821
 3959TIP3    H133368   3.530   5.294  16.280  1.5844  0.1298 -1.2315
 3959TIP3    H233369   3.536   5.399  16.388  1.2831  1.3929 -2.4158
 3960TIP3   OH233370   5.025   1.904   2.290  0.3144 -0.2725  0.0998
 3960TIP3    H133371   5.043   1.998   2.295 -0.8537 -0.0827  1.2949
 3960TIP3    H233372   5.111   1.863   2.293  0.8020  0.7280  0.4143
 3961TIP3   OH233373   0.703   3.502   4.730  0.5634 -0.0785  0.0064
 3961TIP3    H133374   0.699   3.579   4.786  3.2270  0.1616 -0.0063
 3961TIP3    H233375   0.675   3.533   4.644  0.9998  0.7591  0.1519
 3962TIP3   OH233376   1.469   5.633   1.225  0.0190  0.1481  0.2885
 3962TIP3    H133377   1.534   5.660   1.161  0.7406 -1.4101  0.3285
 3962TIP3    H233378   1.414   5.570   1.179 -1.2474  1.1413  0.3775
 3963TIP3   OH233379   2.295   1.912  12.097 -0.3808  0.2852  0.0269
 3963TIP3    H133380   2.232   1.840  12.091 -1.7182  1.4772 -0.8095
 3963TIP3    H233381   2.269   1.961  12.175  0.9855 -0.5217  1.0240
 3964TIP3   OH233382   5.667   3.718  11.502 -0.3370 -0.0349  0.3792
 3964TIP3    H133383   5.638   3.803  11.469  0.1902  0.1653  0.4191
 3964TIP3    H233384   5.589   3.680  11.543 -1.1387 -0.4858 -1.4472
 3965TIP3   OH233385   3.252   2.301   1.251 -0.1744 -0.4622  0.6786
 3965TIP3    H133386   3.272   2.274   1.161 -0.7075  1.8400 -0.2217
 3965TIP3    H233387   3.161   2.331   1.247  0.2448  1.0544  1.6008
 3966TIP3   OH233388   1.810   3.496   5.203 -0.0871 -0.1292  0.1823
 3966TIP3    H133389   1.756   3.420   5.223  1.1569 -1.5961 -1.6626
 3966TIP3    H233390   1.879   3.463   5.145  1.4587  2.1039  0.5858
 3967TIP3   OH233391   1.496   6.056  16.411 -0.5517  0.4009 -0.1385
 3967TIP3    H133392   1.488   6.007  16.329 -0.6872  1.4091 -0.7455
 3967TIP3    H233393   1.471   5.993  16.479  0.9226 -0.8957 -0.7218
 3968TIP3   OH233394   1.136   0.325  10.900 -0.0741  0.5545  0.4322
 3968TIP3    H133395   1.151   0.398  10.960 -0.1002  0.5108  0.4926
 3968TIP3    H233396   1.042   0.330  10.879 -0.1084  0.4451  0.5595
 3969TIP3   OH233397   1.113   1.949  16.199  0.6244 -0.0521 -0.0369
 3969TIP3    H133398   1.119   1.866  16.248  0.0585 -0.2156 -0.2327
 3969TIP3    H233399   1.059   1.927  16.123 -0.4539  0.7517  0.4664
 3970TIP3   OH233400   0.192   6.729   0.793  0.2489 -0.2255  0.0556
 3970TIP3    H133401   0.194   6.825   0.789  2.1998 -0.1137  2.1060
 3970TIP3    H233402   0.104   6.706   0.762 -0.8590  2.3187  1.0172
 3971TIP3   OH233403   1.595   1.283   0.846 -0.1761  0.1005  0.2964
 3971TIP3    H133404   1.602   1.203   0.899 -2.4126 -0.5527 -0.2646
 3971TIP3    H233405   1.680   1.291   0.804 -0.3020 -2.8594 -0.7602
 3972TIP3   OH233406   6.097   4.495  12.839 -0.2172 -0.7118 -0.5182
 3972TIP3    H133407   6.121   4.555  12.768 -0.4648  0.5125  0.3890
 3972TIP3    H233408   6.180   4.472  12.880 -0.2895  1.1248  0.7488
 3973TIP3   OH233409   0.287   5.001  14.354  0.1315  0.7172 -0.3381
 3973TIP3    H133410   0.256   5.018  14.442  0.4149 -0.0047 -0.0887
 3973TIP3    H233411   0.231   4.930  14.321  0.5901  0.3718 -0.3989
 3974TIP3   OH233412   0.898   4.436   2.240 -0.5054 -0.5551 -0.8808
 3974TIP3    H133413   0.807   4.448   2.268 -0.1389 -1.0316  0.5953
 3974TIP3    H233414   0.934   4.524   2.238 -0.1027 -0.5665  1.8536
 3975TIP3   OH233415   2.906   1.801  15.432 -0.2522  0.3578 -0.5605
 3975TIP3    H133416   2.908   1.743  15.509 -1.3089  0.6150 -0.3265
 3975TIP3    H233417   2.815   1.797  15.402 -0.4321  2.1582 -0.3317
 3976TIP3   OH233418   5.098   6.336  13.984 -0.7052  0.2804 -0.0848
 3976TIP3    H133419   5.005   6.315  13.982 -0.5075 -0.6423 -1.9796
 3976TIP3    H233420   5.142   6.254  13.961  0.6869  0.3486  2.0764
 3977TIP3   OH233421   0.252   1.275   5.721  0.6616  0.4698 -0.7724
 3977TIP3    H133422   0.279   1.352   5.671 -2.7680  0.5882 -2.7742
 3977TIP3    H233423   0.188   1.231   5.664 -1.1317 -1.1855  2.2709
 3978TIP3   OH233424   0.298   4.111   4.007  0.3491 -0.4626 -0.8150
 3978TIP3    H133425   0.274   4.131   3.916 -0.5265  0.1295 -0.4722
 3978TIP3    H233426   0.354   4.034   4.001  0.8915 -0.0164 -1.9149
 3979TIP3   OH233427   1.524   5.943  13.353 -0.3943  0.4687 -0.1040
 3979TIP3    H133428   1.588   5.939  13.282 -0.2783 -1.9331  0.0452
 3979TIP3    H233429   1.577   5.947  13.433 -0.4482 -0.1616 -0.0338
 3980TIP3   OH233430   3.158   5.691  15.730  0.8525 -0.3442 -0.3709
 3980TIP3    H133431   3.174   5.624  15.664 -0.5474 -0.5639 -0.5088
 3980TIP3    H233432   3.165   5.645  15.814  0.6697 -0.4849 -0.4351
 3981TIP3   OH233433   5.228   6.612   4.034  0.0306  0.5175 -0.6733
 3981TIP3    H133434   5.270   6.597   3.949  1.0388 -1.2889  0.0927
 3981TIP3    H233435   5.139   6.640   4.011  0.5091  0.8325 -2.3126
 3982TIP3   OH233436   4.188   4.681   5.506  0.0826 -0.0964  0.2748
 3982TIP3    H133437   4.201   4.616   5.575  0.4881  1.8329  2.1233
 3982TIP3    H233438   4.097   4.669   5.478 -0.5939  0.0504  2.2649
 3983TIP3   OH233439   3.400   5.532   6.142 -0.3888 -0.1238  0.1451
 3983TIP3    H133440   3.476   5.564   6.190  0.5599 -1.4826 -0.3887
 3983TIP3    H233441   3.332   5.520   6.208 -0.5162  2.0959  0.4820
 3984TIP3   OH233442   3.304   5.012   0.636  0.2444  0.2131 -0.1982
 3984TIP3    H133443   3.302   5.097   0.680 -1.2811 -0.6505  1.5730
 3984TIP3    H233444   3.370   4.961   0.683 -1.2158 -0.6310  1.0682
 3985TIP3   OH233445   4.870   2.598   2.763  0.0171  0.0574 -0.2436
 3985TIP3    H133446   4.780   2.617   2.787  0.5835  1.0192  1.2687
 3985TIP3    H233447   4.870   2.595   2.668 -1.0660  2.8814 -0.4039
 3986TIP3   OH233448   2.743   0.229   5.290 -0.4889  0.4757 -0.7397
 3986TIP3    H133449   2.767   0.161   5.226 -2.8339  0.8718 -2.2102
 3986TIP3    H233450   2.770   0.193   5.374 -0.8958 -1.9513 -1.5447
 3987TIP3   OH233451   5.349   5.246   5.906  0.3143  0.0428  0.3787
 3987TIP3    H133452   5.445   5.246   5.912  0.5355 -1.3192 -1.9664
 3987TIP3    H233453   5.323   5.162   5.942  0.1495 -0.2201 -0.3319
 3988TIP3   OH233454   1.209   0.784   4.826  0.8631 -0.9363  0.4544
 3988TIP3    H133455   1.291   0.774   4.874  0.1775 -2.0869  1.4413
 3988TIP3    H233456   1.183   0.694   4.805  0.5016 -0.5144 -0.9942
 3989TIP3   OH233457   6.023   3.844   0.807 -1.3073 -0.2993 -0.0620
 3989TIP3    H133458   6.050   3.854   0.716 -1.9274 -2.4211 -0.5294
 3989TIP3    H233459   6.027   3.750   0.824  2.0862  0.1731  3.1789
 3990TIP3   OH233460   6.412   5.227   0.842 -1.0189 -0.4028  0.3104
 3990TIP3    H133461   6.374   5.305   0.884  2.0723 -0.1210  3.0445
 3990TIP3    H233462   6.394   5.156   0.904 -1.5248 -1.3365 -0.8781
 3991TIP3   OH233463   3.102   1.131   2.288 -0.1673  0.1679 -0.2659
 3991TIP3    H133464   3.153   1.119   2.208 -1.9438 -1.6451 -1.2252
 3991TIP3    H233465   3.016   1.095   2.267 -0.5987 -0.7154  2.5827
 3992TIP3   OH233466   4.566   3.739   4.893  0.3757  0.0765  0.2261
 3992TIP3    H133467   4.479   3.754   4.930 -1.1796 -2.0763 -2.2577
 3992TIP3    H233468   4.605   3.672   4.951 -0.4957 -0.4934  0.1787
 3993TIP3   OH233469   5.286   1.471  16.818  0.0118 -0.5249  0.5810
 3993TIP3    H133470   5.222   1.541  16.808 -0.0057 -0.5231  0.7042
 3993TIP3    H233471   5.345   1.482  16.744 -1.1371 -1.6007 -0.5380
 3994TIP3   OH233472   3.973   1.466   4.510  0.1435 -0.1430 -0.0013
 3994TIP3    H133473   3.938   1.384   4.473  0.6319 -0.2748 -0.1738
 3994TIP3    H233474   3.960   1.456   4.604 -1.1338  0.2075 -0.1244
 3995TIP3   OH233475   0.274   0.897   5.760 -0.5080 -0.0341 -0.3045
 3995TIP3    H133476   0.199   0.954   5.779 -1.6672 -0.6965 -2.5673
 3995TIP3    H233477   0.276   0.835   5.833 -1.8594  0.3148  0.0507
 3996TIP3   OH233478   1.725   1.169   2.371 -0.2691  0.2636 -0.3518
 3996TIP3    H133479   1.736   1.240   2.435 -2.0536  0.5976 -0.3685
 3996TIP3    H233480   1.739   1.212   2.286  0.0526  0.2817 -0.2898
 3997TIP3   OH233481   3.192   0.077  11.295  0.2008  0.9270 -0.2439
 3997TIP3    H133482   3.249   0.001  11.277  2.3595  2.3815  0.0549
 3997TIP3    H233483   3.132   0.079  11.220  0.0155 -1.1006 -0.2183
 3998TIP3   OH233484   5.992   4.944   4.741 -0.1430  0.0005 -0.3050
 3998TIP3    H133485   6.031   4.876   4.795 -0.7841 -1.2139 -1.3082
 3998TIP3    H233486   6.065   4.983   4.693  0.6885  2.2309  2.5265
 3999TIP3   OH233487   2.281   6.486  14.494  0.4701 -0.7371 -0.2778
 3999TIP3    H133488   2.230   6.561  14.464 -1.8756 -1.5878  1.3259
 3999TIP3    H233489   2.285   6.427  14.418  3.2624  1.2885 -1.9210
 4000TIP3   OH233490   3.422   1.739  15.536 -0.1743 -0.1500 -0.2057
 4000TIP3    H133491   3.470   1.686  15.473  2.4137 -0.1335  1.6058
 4000TIP3    H233492   3.425   1.828  15.499  1.0779 -0.1831 -0.2208
 4001TIP3   OH233493   6.498   5.879  17.332 -0.3488  0.2649  0.1234
 4001TIP3    H133494   6.405   5.862  17.348 -0.4121 -0.1600 -0.6525
 4001TIP3    H233495   6.517   5.836  17.248  0.9730 -1.1910  1.0950
 4002TIP3   OH233496   2.458   5.877  13.818  0.3494  0.1634 -0.5824
 4002TIP3    H133497   2.540   5.845  13.781 -0.0388 -0.2272 -1.1164
 4002TIP3    H233498   2.417   5.800  13.856 -0.7240 -0.0666 -2.1275
 4003TIP3   OH233499   4.099   2.657   0.313 -0.0470 -0.4241 -0.1956
 4003TIP3    H133500   4.117   2.690   0.225 -0.6223  0.4408 -0.0028
 4003TIP3    H233501   4.112   2.563   0.307  0.2357 -0.3323 -1.1274
 4004TIP3   OH233502   3.322   4.606  15.574 -0.0027 -0.4693  0.8139
 4004TIP3    H133503   3.352   4.535  15.517  0.9174 -0.5089  1.3306
 4004TIP3    H233504   3.328   4.570  15.663 -0.4530 -0.0634  1.0163
 4005TIP3   OH233505   1.557   6.578  12.090 -0.3591 -0.4264  0.8277
 4005TIP3    H133506   1.576   6.640  12.020  0.1684 -0.2627  1.1099
 4005TIP3    H233507   1.529   6.633  12.164 -0.6225 -0.5781  0.8421
 4006TIP3   OH233508   2.043   1.542   1.390 -0.4744  0.4522 -0.4956
 4006TIP3    H133509   2.074   1.506   1.473  0.0320  1.2603 -0.3264
 4006TIP3    H233510   2.118   1.538   1.332 -0.8854 -0.3001 -0.9892
 4007TIP3   OH233511   5.194   1.399   0.923  0.3477  0.2588 -0.6081
 4007TIP3    H133512   5.165   1.407   1.014  1.0906 -0.6314 -0.2743
 4007TIP3    H233513   5.114   1.386   0.873  0.1188 -2.3256  0.3155
 4008TIP3   OH233514   1.879   1.234  15.661  0.4261 -0.1493 -0.7871
 4008TIP3    H133515   1.920   1.158  15.618 -0.5434 -0.6544 -0.8321
 4008TIP3    H233516   1.826   1.274  15.593  0.3202  0.1135 -0.5492
 4009TIP3   OH233517   6.465   2.473   3.038 -0.4466 -0.0457 -0.3032
 4009TIP3    H133518   6.409   2.548   3.058 -2.6728 -1.7624  0.3155
 4009TIP3    H233519   6.489   2.437   3.123  1.5872  0.5441 -0.5536
 4010TIP3   OH233520   3.707   2.612  14.210  0.3299  0.0605  0.0985
 4010TIP3    H133521   3.688   2.702  14.186  0.7474 -0.0657 -0.7365
 4010TIP3    H233522   3.642   2.560  14.163  1.2574 -0.2003 -0.9378
 4011TIP3   OH233523   6.513   6.110   2.696 -0.1330 -0.3702  0.3373
 4011TIP3    H133524   6.418   6.108   2.703 -0.1937  1.3441  0.5815
 4011TIP3    H233525   6.530   6.139   2.606  0.0086  2.7280  1.2401
 4012TIP3   OH233526   4.610   2.095   0.092 -0.4019  0.2358  0.2948
 4012TIP3    H133527   4.647   2.182   0.085 -0.3762  0.1358 -1.0500
 4012TIP3    H233528   4.683   2.036   0.077 -0.7063  0.0166 -0.3932
 4013TIP3   OH233529   1.986   6.398   4.737  0.1657 -0.5249  0.4918
 4013TIP3    H133530   1.970   6.422   4.646 -0.1136  1.2717  0.9642
 4013TIP3    H233531   1.961   6.306   4.743 -1.1653 -0.2947 -0.9272
 4014TIP3   OH233532   2.983   4.167  13.021 -0.1715 -0.2168 -0.9808
 4014TIP3    H133533   2.958   4.246  12.974  0.1762  1.0199  0.8014
 4014TIP3    H233534   3.078   4.161  13.009 -0.4762 -1.9034 -3.2771
 4015TIP3   OH233535   4.251   4.140  17.394 -0.1215  0.0424  0.3026
 4015TIP3    H133536   4.209   4.055  17.378  1.4283 -0.6762 -0.0817
 4015TIP3    H233537   4.272   4.140  17.487 -0.8053  0.3455  0.4673
 4016TIP3   OH233538   2.530   5.494   6.146  0.4127  0.3942 -0.0061
 4016TIP3    H133539   2.562   5.571   6.193 -1.8167 -0.4172  3.1829
 4016TIP3    H233540   2.438   5.513   6.129  0.2693 -0.8757 -0.7369
 4017TIP3   OH233541   3.310   5.299  16.536 -0.3159 -0.3037 -0.7358
 4017TIP3    H133542   3.335   5.300  16.628 -0.2147 -2.0376 -0.7171
 4017TIP3    H233543   3.338   5.384  16.503  3.4032 -1.1221 -0.1062
 4018TIP3   OH233544   4.743   4.135   4.424 -0.9263  0.3941 -0.4018
 4018TIP3    H133545   4.668   4.094   4.468 -0.3278 -0.2350  0.0619
 4018TIP3    H233546   4.728   4.119   4.331 -1.6636  0.7893 -0.3502
 4019TIP3   OH233547   1.150   6.257  15.808  0.1347 -0.1038 -0.2332
 4019TIP3    H133548   1.113   6.313  15.876  0.1011  0.3357 -0.6012
 4019TIP3    H233549   1.134   6.168  15.838 -0.9737  0.0786 -0.2458
 4020TIP3   OH233550   2.106   5.869   3.569 -0.0460  0.1641  0.2429
 4020TIP3    H133551   2.123   5.828   3.484  0.6647  0.9450 -0.0004
 4020TIP3    H233552   2.060   5.950   3.548 -0.3746  0.0859  0.6447
 4021TIP3   OH233553   0.260   0.279  12.021  0.2732 -0.6224  0.4947
 4021TIP3    H133554   0.196   0.349  12.008  0.7226  0.6720  4.0101
 4021TIP3    H233555   0.338   0.308  11.973 -0.4711 -0.2017 -0.4937
 4022TIP3   OH233556   4.173   0.537  12.026 -0.0273 -0.2725  0.1620
 4022TIP3    H133557   4.147   0.628  12.036  2.1147  0.4011  0.1226
 4022TIP3    H233558   4.226   0.518  12.103  2.1781 -0.4493 -1.3047
 4023TIP3   OH233559   6.470   2.307   5.374  0.2864  0.2596  0.0543
 4023TIP3    H133560   6.544   2.290   5.432  0.6362 -0.8059 -0.6686
 4023TIP3    H233561   6.424   2.223   5.370  0.0498  0.4261 -0.8948
 4024TIP3   OH233562   1.358   4.433   1.722 -0.9168 -0.1772  0.2181
 4024TIP3    H133563   1.449   4.404   1.735  0.0475  2.7704  1.0032
 4024TIP3    H233564   1.308   4.388   1.790  0.4420 -0.0470  1.3506
 4025TIP3   OH233565   5.217   6.366  10.921 -0.3074  0.4261 -0.3790
 4025TIP3    H133566   5.282   6.320  10.868 -1.3276 -0.8038 -0.6024
 4025TIP3    H233567   5.183   6.434  10.862 -0.4332 -0.0244 -0.8315
 4026TIP3   OH233568   3.833   2.493  14.983 -0.0571  0.4704  0.0353
 4026TIP3    H133569   3.915   2.454  15.014 -0.2730 -0.0580 -0.0529
 4026TIP3    H233570   3.852   2.587  14.980  1.4879  0.1796 -2.6381
 4027TIP3   OH233571   2.212   2.587   0.766 -0.0882 -0.1537 -0.0440
 4027TIP3    H133572   2.252   2.587   0.679  1.0668 -1.6258  0.4528
 4027TIP3    H233573   2.284   2.607   0.825 -0.7794  0.4058  0.6253
 4028TIP3   OH233574   2.015   1.895   5.213  0.3271  0.2567 -0.5359
 4028TIP3    H133575   1.992   1.810   5.251 -0.5644 -0.0992 -1.8253
 4028TIP3    H233576   1.961   1.903   5.135  2.2203  0.8863 -1.8634
 4029TIP3   OH233577   4.022   4.088  17.192  0.3062 -0.5125  0.3217
 4029TIP3    H133578   4.002   4.182  17.192 -0.4697 -0.6410  1.9456
 4029TIP3    H233579   3.937   4.045  17.187  0.7340 -1.2079 -2.5278
 4030TIP3   OH233580   1.295   2.472  11.864 -0.5168 -0.3406 -0.0969
 4030TIP3    H133581   1.203   2.489  11.843 -0.5677 -0.3566  0.1097
 4030TIP3    H233582   1.293   2.402  11.929 -0.2602 -1.9725 -1.7708
 4031TIP3   OH233583   5.943   1.610   2.463  0.2867  0.1171 -0.0082
 4031TIP3    H133584   5.959   1.550   2.390 -0.5747 -3.2122  2.3063
 4031TIP3    H233585   5.983   1.567   2.538 -1.3041  1.9680  2.0086
 4032TIP3   OH233586   4.272   3.501   6.506  0.3764 -0.6730 -0.0217
 4032TIP3    H133587   4.203   3.530   6.565  1.1619  0.4293  0.4130
 4032TIP3    H233588   4.286   3.576   6.447  0.8394 -1.0699 -0.4308
 4033TIP3   OH233589   3.439   2.177  11.804  0.3668 -0.6555 -0.0455
 4033TIP3    H133590   3.472   2.106  11.859  0.5262 -0.8794 -0.4185
 4033TIP3    H233591   3.348   2.189  11.831  0.4286 -0.7965  0.2302
 4034TIP3   OH233592   1.975   3.814  16.338  0.6979  0.0334 -0.4960
 4034TIP3    H133593   2.026   3.733  16.332 -1.6595 -1.7344  1.4968
 4034TIP3    H233594   1.933   3.822  16.253 -1.4027 -2.6188  0.1587
 4035TIP3   OH233595   0.491   4.359  14.079  0.2497  1.1504  0.0283
 4035TIP3    H133596   0.476   4.305  14.002 -0.8876  1.3039  0.1214
 4035TIP3    H233597   0.528   4.299  14.144 -1.5782  0.2837  0.3414
 4036TIP3   OH233598   3.985   1.824   2.378  0.1601  0.0569  0.2810
 4036TIP3    H133599   3.903   1.791   2.341  0.2957  2.0466 -2.0920
 4036TIP3    H233600   4.034   1.857   2.302  3.5251 -1.6879  1.5007
 4037TIP3   OH233601   2.956   6.350   0.360 -0.6926 -0.1914  0.7622
 4037TIP3    H133602   3.020   6.421   0.354 -1.3532  0.2786 -1.9797
 4037TIP3    H233603   2.980   6.302   0.439  1.9189  1.0426  0.7996
 4038TIP3   OH233604   3.216   5.682  11.676  0.3026 -0.3617 -0.4907
 4038TIP3    H133605   3.291   5.727  11.636  1.1535 -1.7175 -0.4611
 4038TIP3    H233606   3.169   5.645  11.602 -0.8089  1.1230 -0.5768
 4039TIP3   OH233607   5.568   4.876  14.414 -0.4810  0.5488  0.0037
 4039TIP3    H133608   5.611   4.957  14.388 -0.4592  0.6989  0.5093
 4039TIP3    H233609   5.612   4.808  14.363  0.4487  0.6818  0.6099
 4040TIP3   OH233610   1.559   6.698  13.996 -0.1165 -0.0109 -0.0364
 4040TIP3    H133611   1.530   6.610  13.973 -1.6433  0.3648  0.3173
 4040TIP3    H233612   1.509   6.757  13.939 -0.4610  0.6858  0.9279
 4041TIP3   OH233613   4.337   3.721  15.557 -0.2162  0.1857 -0.0677
 4041TIP3    H133614   4.247   3.722  15.525  0.8987  0.8418 -3.6113
 4041TIP3    H233615   4.364   3.813  15.558  0.7581 -0.0810 -0.2116
 4042TIP3   OH233616   6.765   0.014   5.847 -0.0533  0.0764 -0.1284
 4042TIP3    H133617   6.714   0.094   5.855  0.6066  0.6505 -1.4109
 4042TIP3    H233618   6.853   0.043   5.824 -0.3364 -1.0425 -3.0959
 4043TIP3   OH233619   1.814   1.528  14.074  0.1057  0.3977 -0.6736
 4043TIP3    H133620   1.721   1.540  14.093  0.1748  0.8537 -0.6135
 4043TIP3    H233621   1.819   1.528  13.979 -0.2320 -1.8208 -0.7444
 4044TIP3   OH233622   4.585   6.679   6.007  0.6641 -0.4391  0.0705
 4044TIP3    H133623   4.512   6.692   5.948 -0.6224 -1.3833  1.3887
 4044TIP3    H233624   4.558   6.720   6.089  0.3208 -3.2600  1.4820
 4045TIP3   OH233625   3.806   1.455  12.696 -0.7295 -0.0807  0.3283
 4045TIP3    H133626   3.733   1.423  12.750 -0.7403  0.3607  0.5848
 4045TIP3    H233627   3.778   1.542  12.667  0.3064  0.7495  1.6852
 4046TIP3   OH233628   3.739   3.944   3.519  0.4897  0.3460 -0.1442
 4046TIP3    H133629   3.732   4.033   3.552 -0.8098  0.0629  0.4135
 4046TIP3    H233630   3.722   3.951   3.425  0.4037  0.6876 -0.1025
 4047TIP3   OH233631   3.212   0.649   3.013  0.2239  0.2029 -0.1463
 4047TIP3    H133632   3.128   0.611   2.986  0.6167  1.2939 -3.2013
 4047TIP3    H233633   3.276   0.581   2.994  0.2056 -0.2876  1.3577
 4048TIP3   OH233634   6.345   4.607   2.017  0.2509  0.3628  0.0369
 4048TIP3    H133635   6.425   4.554   2.022 -0.0949 -0.3383 -1.3362
 4048TIP3    H233636   6.360   4.680   2.077  1.5088 -0.2952  0.5539
 4049TIP3   OH233637   0.151   1.088  16.448 -0.0403 -0.2576  1.0641
 4049TIP3    H133638   0.152   1.166  16.504  1.0772 -0.7011  1.6951
 4049TIP3    H233639   0.163   1.015  16.509  1.7070 -0.7219  0.2207
 4050TIP3   OH233640   4.517   1.441  15.035 -0.0883  0.2104  0.4473
 4050TIP3    H133641   4.518   1.412  15.126 -0.8152  0.8074  0.6442
 4050TIP3    H233642   4.539   1.534  15.039  0.6268  0.0710 -0.0546
 4051TIP3   OH233643   3.515   0.979  15.933 -0.5317  0.1765  0.2514
 4051TIP3    H133644   3.485   0.900  15.887 -1.6617 -0.5474  2.0900
 4051TIP3    H233645   3.578   1.019  15.874 -1.6086 -0.8849 -1.7264
 4052TIP3   OH233646   0.577   1.021  16.955  0.5949 -0.2746 -0.1176
 4052TIP3    H133647   0.659   1.013  17.003  0.2042  1.3880  0.8963
 4052TIP3    H233648   0.547   1.110  16.972 -0.8246 -0.4469 -1.4514
 4053TIP3   OH233649   3.000   0.840   6.237 -0.3887  0.6962 -0.0161
 4053TIP3    H133650   3.092   0.849   6.214 -0.1948 -0.3646  0.2994
 4053TIP3    H233651   2.998   0.842   6.332 -0.4126 -1.4325  0.0758
 4054TIP3   OH233652   6.445   3.309   1.011  0.2376  0.1510  0.6907
 4054TIP3    H133653   6.376   3.250   0.979  0.5618  0.8752 -1.5074
 4054TIP3    H233654   6.400   3.392   1.026  0.2689  0.0734  1.2270
 4055TIP3   OH233655   5.167   0.313  17.003 -0.2230  0.6372  0.1012
 4055TIP3    H133656   5.202   0.401  17.006  1.9939 -0.1560 -0.6679
 4055TIP3    H233657   5.211   0.266  17.073 -0.8415 -0.0449  0.0529
 4056TIP3   OH233658   0.484   6.302   2.690 -0.6072 -0.1477 -0.3936
 4056TIP3    H133659   0.577   6.325   2.692 -0.6556  0.7794  4.5226
 4056TIP3    H233660   0.439   6.386   2.698 -1.7848 -0.7304 -0.7451
 4057TIP3   OH233661   1.467   0.374  13.124  0.0555 -0.0617  0.1486
 4057TIP3    H133662   1.553   0.406  13.151  0.6114 -1.6741  0.3509
 4057TIP3    H233663   1.485   0.315  13.052 -1.0492  0.7904 -0.8623
 4058TIP3   OH233664   3.409   0.862  15.312  0.6768  0.2387  0.1135
 4058TIP3    H133665   3.393   0.774  15.346 -0.3746  0.7241  0.9496
 4058TIP3    H233666   3.438   0.848  15.221  0.2077 -0.9463  0.1294
 4059TIP3   OH233667   0.603   0.531  12.540  0.1263  0.0713  0.0536
 4059TIP3    H133668   0.690   0.495  12.520  0.1035 -0.4221  0.7880
 4059TIP3    H233669   0.604   0.619  12.502  1.2681  0.4099  0.8188
 4060TIP3   OH233670   0.844   0.218  14.806  0.6722  0.1808  0.1232
 4060TIP3    H133671   0.861   0.245  14.896 -1.5674  0.2460  0.5811
 4060TIP3    H233672   0.754   0.247  14.789  0.9637 -0.0203 -2.0736
 4061TIP3   OH233673   0.878   5.661  15.457  0.3335  0.1892 -0.4014
 4061TIP3    H133674   0.937   5.681  15.531 -2.0662 -1.3086  2.1015
 4061TIP3    H233675   0.899   5.571  15.433  0.2356  0.2428 -0.6889
 4062TIP3   OH233676   4.813   1.704   4.821  0.0066  0.7374  0.5971
 4062TIP3    H133677   4.722   1.717   4.850 -1.0294 -3.2481 -0.1947
 4062TIP3    H233678   4.855   1.657   4.894  0.6843  0.4040  0.0007
 4063TIP3   OH233679   0.219   0.893  12.766  0.1173 -0.4471  0.1628
 4063TIP3    H133680   0.302   0.846  12.757  0.2712 -0.6574  2.3514
 4063TIP3    H233681   0.164   0.835  12.817  0.4148  1.7536  3.2483
 4064TIP3   OH233682   1.388   0.641  14.974 -0.1552 -1.0062  1.1673
 4064TIP3    H133683   1.440   0.582  15.029  0.9373 -1.8048 -0.6426
 4064TIP3    H233684   1.347   0.701  15.036  1.4086 -1.5425  2.8135
 4065TIP3   OH233685   3.249   2.829   0.963  0.8403 -0.4069  0.0841
 4065TIP3    H133686   3.168   2.829   1.013  1.1844 -0.9149  0.6674
 4065TIP3    H233687   3.230   2.881   0.885 -0.6299 -2.1437 -0.7767
 4066TIP3   OH233688   1.868   5.967   4.590  0.6203 -0.0331  0.2823
 4066TIP3    H133689   1.808   5.898   4.618  0.0681  0.2942 -0.0502
 4066TIP3    H233690   1.936   5.922   4.541  1.0752 -0.4967  1.3298
 4067TIP3   OH233691   6.270   0.555  14.568 -0.7461 -0.6696  0.1710
 4067TIP3    H133692   6.232   0.487  14.514  0.0808 -0.5063 -0.6372
 4067TIP3    H233693   6.257   0.636  14.519 -0.4139 -0.4499  0.4336
 4068TIP3   OH233694   0.730   2.457   6.120 -0.3706 -0.1348 -0.0701
 4068TIP3    H133695   0.824   2.445   6.104 -0.4406 -2.3976  0.8391
 4068TIP3    H233696   0.726   2.528   6.185  0.6409  0.4626 -0.6251
 4069TIP3   OH233697   5.981   4.043  13.007  0.3184  0.3398  0.3952
 4069TIP3    H133698   5.996   3.976  13.074  0.8301  1.3749  1.3462
 4069TIP3    H233699   6.057   4.101  13.013 -1.3415  2.5720  1.5230
 4070TIP3   OH233700   2.926   2.278   2.066 -0.0197 -0.5921  0.3825
 4070TIP3    H133701   2.889   2.362   2.040 -0.2973 -0.5282  0.9637
 4070TIP3    H233702   2.902   2.269   2.158  2.0325 -0.2084  1.0063
 4071TIP3   OH233703   3.688   3.227  13.856 -0.0690 -0.0917 -0.1618
 4071TIP3    H133704   3.601   3.195  13.831 -0.5626  0.3705  0.8895
 4071TIP3    H233705   3.745   3.151  13.845 -0.9500 -0.9561  0.8758
 4072TIP3   OH233706   0.846   5.801   5.573 -0.0489 -0.0833 -0.9324
 4072TIP3    H133707   0.779   5.855   5.615  2.3330  2.0505  0.3868
 4072TIP3    H233708   0.820   5.711   5.592 -1.6223  0.7238  0.9984
 4073TIP3   OH233709   6.187   3.927   0.418  0.5558  0.2046 -0.1229
 4073TIP3    H133710   6.277   3.894   0.423  0.5184 -0.3446 -2.0783
 4073TIP3    H233711   6.132   3.848   0.425  0.3679  0.1358 -1.8543
 4074TIP3   OH233712   0.511   0.403  15.793 -0.0927 -0.4995 -0.3917
 4074TIP3    H133713   0.530   0.495  15.777 -1.6300  0.0851  0.9116
 4074TIP3    H233714   0.465   0.374  15.715  2.1625 -0.7878 -1.7133
 4075TIP3   OH233715   0.512   0.741   2.547 -0.0817  0.0460 -0.4509
 4075TIP3    H133716   0.502   0.741   2.642  0.5800  1.1044 -0.3635
 4075TIP3    H233717   0.516   0.648   2.523  1.6051 -0.2576  0.7789
 4076TIP3   OH233718   0.490   3.908   3.972  0.1203  0.2621  0.2414
 4076TIP3    H133719   0.508   3.835   4.031  0.9279  1.3807  1.4465
 4076TIP3    H233720   0.530   3.882   3.889  2.4021  0.2154  1.2669
 4077TIP3   OH233721   3.181   3.617  17.114  1.0921 -0.2044  0.3515
 4077TIP3    H133722   3.166   3.539  17.061  0.5999 -0.4175  0.8063
 4077TIP3    H233723   3.276   3.629  17.113  1.2495 -1.3093  0.9985
 4078TIP3   OH233724   4.233   2.362   2.401 -0.0934 -0.2338  0.0283
 4078TIP3    H133725   4.256   2.402   2.317  0.7932 -1.1329 -0.1714
 4078TIP3    H233726   4.247   2.268   2.388  0.5414 -0.3360  1.3223
 4079TIP3   OH233727   2.057   3.101  17.433 -0.5392  0.9336  0.1552
 4079TIP3    H133728   2.007   3.182  17.419  0.5971  1.7477  0.6738
 4079TIP3    H233729   2.012   3.057  17.505 -0.3553  1.8185  0.8346
 4080TIP3   OH233730   1.463   4.786  15.471 -0.3312 -0.2378 -0.4612
 4080TIP3    H133731   1.481   4.852  15.404 -0.3936  0.3861  0.1186
 4080TIP3    H233732   1.368   4.772  15.464 -0.4637  0.3764 -0.0235
 4081TIP3   OH233733   0.272   6.455  16.702  0.9255 -0.1493 -0.7854
 4081TIP3    H133734   0.201   6.507  16.741  0.9999 -1.3258  1.0162
 4081TIP3    H233735   0.271   6.480  16.609 -0.3959  1.4863 -0.3931
 4082TIP3   OH233736   2.685   6.271   6.206 -0.9785 -0.0253 -0.6213
 4082TIP3    H133737   2.778   6.286   6.190 -0.2532 -2.9820  0.2033
 4082TIP3    H233738   2.681   6.238   6.296 -2.6538 -0.9701 -0.9940
 4083TIP3   OH233739   2.855   4.744   3.692  0.2508  0.5442  0.3532
 4083TIP3    H133740   2.854   4.804   3.618 -2.0151  1.1179  0.7890
 4083TIP3    H233741   2.947   4.740   3.718  0.8589  1.5745 -1.4633
 4084TIP3   OH233742   0.722   4.934  12.081 -0.4017 -0.3346  0.1620
 4084TIP3    H133743   0.643   4.907  12.128 -0.1798 -0.8931  0.2286
 4084TIP3    H233744   0.778   4.975  12.147 -0.8231  0.4770  0.0221
 4085TIP3   OH233745   3.495   3.474  12.217 -0.1310  0.1806  0.3827
 4085TIP3    H133746   3.477   3.385  12.190  0.0386 -0.0064  0.8665
 4085TIP3    H233747   3.476   3.528  12.140  0.6817 -0.3608 -0.2020
 4086TIP3   OH233748   0.862   3.058   4.098 -0.3318  0.2560 -0.0147
 4086TIP3    H133749   0.927   3.119   4.133 -1.3951  0.8527  0.9939
 4086TIP3    H233750   0.870   3.066   4.003  0.1424  1.3172  0.1026
 4087TIP3   OH233751   3.483   2.641  12.548  0.1738 -0.9882 -0.3103
 4087TIP3    H133752   3.516   2.565  12.501 -0.8294 -0.7206 -1.5046
 4087TIP3    H233753   3.440   2.694  12.481  1.6403  1.1271  0.2910
 4088TIP3   OH233754   5.111   2.453   1.134 -0.4745 -0.6581 -0.0641
 4088TIP3    H133755   5.069   2.538   1.150 -0.0736 -0.0421 -2.0481
 4088TIP3    H233756   5.192   2.457   1.185 -0.2634  0.3306 -0.4434
 4089TIP3   OH233757   0.054   5.992  13.985  0.3376  0.5912 -0.2122
 4089TIP3    H133758  -0.002   5.998  13.908  1.3734  0.1016 -1.0353
 4089TIP3    H233759   0.110   5.916  13.968 -1.3340 -1.3801  2.3366
 4090TIP3   OH233760   0.935   5.947   2.183 -0.2323 -0.5776 -0.1174
 4090TIP3    H133761   0.964   5.877   2.124  1.3981  1.3477 -1.7557
 4090TIP3    H233762   0.842   5.957   2.163  0.1529 -0.3600 -2.0726
 4091TIP3   OH233763   4.119   5.842   3.212  0.0282 -0.1915  0.9935
 4091TIP3    H133764   4.110   5.747   3.203 -1.1805  0.0143 -0.3451
 4091TIP3    H233765   4.112   5.858   3.306  1.2031 -1.4966  1.3402
 4092TIP3   OH233766   4.010   6.520   1.784  0.4863  0.0267 -0.5728
 4092TIP3    H133767   4.020   6.612   1.809 -2.2441  0.3687 -0.3506
 4092TIP3    H233768   4.006   6.521   1.689  0.2420  0.1725 -0.5616
 4093TIP3   OH233769   0.205   6.070  11.386 -0.2126 -0.1581  0.1807
 4093TIP3    H133770   0.201   6.137  11.318 -1.1559 -2.3051 -2.0297
 4093TIP3    H233771   0.284   6.020  11.366 -0.2361 -0.5272  0.9813
 4094TIP3   OH233772   2.164   1.296   2.283 -0.5550  0.0582 -0.5157
 4094TIP3    H133773   2.234   1.249   2.237 -0.8347  0.1818 -1.0790
 4094TIP3    H233774   2.086   1.280   2.229 -0.6855  1.0271 -0.6233
 4095TIP3   OH233775   6.355   3.998  17.362  0.0446 -0.0808  0.7306
 4095TIP3    H133776   6.379   4.026  17.274 -0.1853 -0.0901  0.6655
 4095TIP3    H233777   6.264   3.970  17.355  0.3234 -1.0336  0.7544
 4096TIP3   OH233778   6.339   2.086  12.340 -0.2984  0.4898 -0.7140
 4096TIP3    H133779   6.294   2.060  12.420 -0.1382 -0.9723 -1.0725
 4096TIP3    H233780   6.335   2.182  12.340 -1.2200  0.4701  0.4972
 4097TIP3   OH233781   3.712   1.279   5.868 -0.5936 -0.3383  0.0617
 4097TIP3    H133782   3.652   1.351   5.851  2.1706  2.3066  0.5187
 4097TIP3    H233783   3.705   1.264   5.962 -0.3524  0.1981  0.1717
 4098TIP3   OH233784   4.972   0.910   5.385 -0.4074  0.3136 -0.1446
 4098TIP3    H133785   5.057   0.954   5.379 -0.7656  0.9063 -1.0973
 4098TIP3    H233786   4.966   0.860   5.304  0.1892 -1.9157  1.1230
 4099TIP3   OH233787   2.511   5.257  15.424 -0.4317  0.0610 -0.7392
 4099TIP3    H133788   2.487   5.331  15.368 -1.3397 -0.1726 -0.6735
 4099TIP3    H233789   2.440   5.251  15.488  0.6707  0.4405  0.5760
 4100TIP3   OH233790   4.456   0.274  16.644 -0.1806  0.1484  0.0932
 4100TIP3    H133791   4.511   0.208  16.687 -1.0287  0.1491  1.2342
 4100TIP3    H233792   4.421   0.326  16.716 -1.7999  0.0440 -0.5853
 4101TIP3   OH233793   1.082   3.347  13.019  0.3242  0.3263 -0.3876
 4101TIP3    H133794   1.110   3.413  12.955  2.8795  0.3395  0.6486
 4101TIP3    H233795   1.073   3.395  13.101  1.4884 -0.4509  0.2159
 4102TIP3   OH233796   2.314   2.459   3.914 -0.3033 -0.6620 -0.5417
 4102TIP3    H133797   2.238   2.445   3.969 -0.6926  1.3236 -0.5069
 4102TIP3    H233798   2.280   2.502   3.836  0.6951 -0.2287 -0.7570
 4103TIP3   OH233799   4.814   1.990  16.922  0.1865 -0.3669 -0.1790
 4103TIP3    H133800   4.762   1.968  17.000 -0.5533 -0.1149 -0.5947
 4103TIP3    H233801   4.797   1.919  16.861 -1.7247  0.9544 -1.2909
 4104TIP3   OH233802   1.527   4.574   5.705  0.3072 -0.6283 -0.1224
 4104TIP3    H133803   1.530   4.484   5.737 -0.9199 -0.6727 -0.0532
 4104TIP3    H233804   1.571   4.572   5.620  1.6872 -0.9556  0.5705
 4105TIP3   OH233805   5.832   6.367   2.802 -0.2267  1.0148 -0.0146
 4105TIP3    H133806   5.770   6.296   2.815 -0.9791  1.4687 -0.9894
 4105TIP3    H233807   5.826   6.419   2.883  2.7870 -1.7425  2.2261
 4106TIP3   OH233808   4.777   4.033  14.820 -0.0994  0.1984 -0.5519
 4106TIP3    H133809   4.851   4.071  14.772 -0.3339  1.4605  0.0682
 4106TIP3    H233810   4.745   3.964  14.763 -0.1222  1.4002 -2.0398
 4107TIP3   OH233811   5.491   0.357  17.079  0.1290  0.1271 -0.1238
 4107TIP3    H133812   5.433   0.411  17.025 -0.2024 -0.7128 -0.6357
 4107TIP3    H233813   5.489   0.271  17.037 -2.0877 -1.3046  2.5688
 4108TIP3   OH233814   6.211   0.439  13.024 -0.4954  0.2771  0.0407
 4108TIP3    H133815   6.244   0.518  12.983  3.3294 -2.0988 -2.0216
 4108TIP3    H233816   6.254   0.437  13.110  2.4398 -1.0777 -1.2910
 4109TIP3   OH233817   0.086   2.517  11.179 -0.1596 -0.0620 -0.2411
 4109TIP3    H133818   0.108   2.596  11.130  0.5789 -0.3002 -0.3123
 4109TIP3    H233819   0.016   2.543  11.238  0.6999  0.8871  0.3948
 4110TIP3   OH233820   4.948   0.606  16.750 -0.0425  0.3861  0.2905
 4110TIP3    H133821   5.039   0.622  16.725 -0.6528  5.5033  0.1848
 4110TIP3    H233822   4.948   0.613  16.846 -0.3016  0.6924  0.2727
 4111TIP3   OH233823   2.093   0.067   3.549 -0.3006 -0.4197  0.0058
 4111TIP3    H133824   2.043   0.033   3.475 -2.3692  0.8627  0.7091
 4111TIP3    H233825   2.165   0.116   3.509 -0.9892 -0.2920 -1.1220
 4112TIP3   OH233826   0.080   0.955  16.086 -0.2374  0.3723  0.4394
 4112TIP3    H133827   0.002   0.963  16.032  0.3525 -1.0553 -0.6866
 4112TIP3    H233828   0.061   0.884  16.147  0.4211 -0.5162 -0.3495
 4113TIP3   OH233829   5.417   1.906   0.393 -0.5497 -0.0959  0.2420
 4113TIP3    H133830   5.385   1.819   0.419 -1.4851 -0.6387 -2.3970
 4113TIP3    H233831   5.509   1.906   0.418 -0.4485 -1.9792  0.0385
 4114TIP3   OH233832   0.903   3.040   3.521 -0.6191 -0.3928 -0.6484
 4114TIP3    H133833   0.964   2.982   3.476 -0.7261 -0.3530 -0.8454
 4114TIP3    H233834   0.924   3.030   3.614  0.1730  0.1636 -0.7552
 4115TIP3   OH233835   0.153   0.954  15.661 -0.7021 -0.7314  0.1355
 4115TIP3    H133836   0.075   0.987  15.617  0.7244  1.8570 -0.6621
 4115TIP3    H233837   0.119   0.903  15.735 -3.1266  0.0716 -0.3430
 4116TIP3   OH233838   5.418   5.979   5.186 -0.2382  0.3106 -0.3453
 4116TIP3    H133839   5.499   5.954   5.230  0.7611  1.6847 -1.3282
 4116TIP3    H233840   5.431   5.955   5.095 -1.7604 -1.2598 -0.2071
 4117TIP3   OH233841   0.716   6.512   3.285  0.9107  0.4999  0.3781
 4117TIP3    H133842   0.729   6.564   3.364  0.8139  1.1446 -0.0211
 4117TIP3    H233843   0.800   6.516   3.239  0.4542  1.5780 -0.3927
 4118TIP3   OH233844   4.150   1.230   4.613  0.2923  0.7230  0.5635
 4118TIP3    H133845   4.203   1.281   4.553 -0.1436 -0.6715 -1.0907
 4118TIP3    H233846   4.109   1.295   4.670 -1.2961  2.4351 -2.2625
 4119TIP3   OH233847   4.600   5.461  16.860 -0.6803 -0.6736 -0.3687
 4119TIP3    H133848   4.683   5.444  16.905  0.1058 -1.1333 -1.9250
 4119TIP3    H233849   4.603   5.554  16.838 -0.3112 -0.8208 -0.9421
 4120TIP3   OH233850   3.754   4.232  16.713 -0.0839 -0.2772  0.7037
 4120TIP3    H133851   3.800   4.289  16.652 -0.7083 -0.9377 -0.4152
 4120TIP3    H233852   3.712   4.292  16.775 -1.1197  0.5146 -0.7200
 4121TIP3   OH233853   1.461   3.322  12.044 -0.4952 -0.5882  0.2372
 4121TIP3    H133854   1.448   3.371  12.126 -2.1278 -1.5248  0.5858
 4121TIP3    H233855   1.490   3.388  11.982 -1.9828  0.7498  0.8637
 4122TIP3   OH233856   6.333   1.843  13.913 -0.0012 -0.2801 -0.2125
 4122TIP3    H133857   6.316   1.812  14.002 -0.0190  0.1455 -0.0662
 4122TIP3    H233858   6.323   1.765  13.858 -0.6103 -0.4174  0.0842
 4123TIP3   OH233859   3.304   4.314   2.666 -0.0280 -0.1758  0.0887
 4123TIP3    H133860   3.287   4.263   2.586  1.1427  0.5659 -0.6763
 4123TIP3    H233861   3.399   4.325   2.667 -0.2013  1.6294  0.4433
 4124TIP3   OH233862   3.515   6.410   4.920 -0.1974  0.4895 -0.0845
 4124TIP3    H133863   3.587   6.446   4.868 -0.2856  0.6047 -0.1283
 4124TIP3    H233864   3.521   6.315   4.906 -0.6179  0.5690 -0.8340
 4125TIP3   OH233865   3.956   1.849  11.770  0.3384 -0.2348  0.0794
 4125TIP3    H133866   3.868   1.873  11.797  0.3999 -2.0147  2.1408
 4125TIP3    H233867   3.944   1.786  11.700 -0.1179 -1.3342  1.1123
 4126TIP3   OH233868   5.005   0.439   5.490 -0.6116  0.5673 -0.8002
 4126TIP3    H133869   5.085   0.480   5.457 -0.9873  1.7804 -0.2442
 4126TIP3    H233870   4.937   0.464   5.427 -0.7367  0.3010 -0.7754
 4127TIP3   OH233871   3.114   0.769   1.015 -0.0037  0.4777  0.1112
 4127TIP3    H133872   3.094   0.803   0.928  1.4126  0.9816 -0.0529
 4127TIP3    H233873   3.121   0.675   1.003  0.9346  0.6101 -0.5061
 4128TIP3   OH233874   1.744   4.873  13.766 -0.6328 -0.5704 -0.8430
 4128TIP3    H133875   1.760   4.949  13.709 -0.9284 -0.4763 -0.7998
 4128TIP3    H233876   1.701   4.809  13.709 -1.3347 -0.3089 -0.6205
 4129TIP3   OH233877   0.444   4.432  13.323 -0.0440 -0.2623  0.2934
 4129TIP3    H133878   0.534   4.443  13.354  0.3333 -3.1356  0.5459
 4129TIP3    H233879   0.453   4.412  13.230 -0.5622  0.8818 -0.0113
 4130TIP3   OH233880   4.479   6.336  11.808  0.1738 -0.2066 -0.2556
 4130TIP3    H133881   4.400   6.377  11.773 -0.3662 -1.4930 -0.5998
 4130TIP3    H233882   4.511   6.280  11.737  0.9549 -0.2914  0.1511
 4131TIP3   OH233883   6.086   5.963   1.078  0.3876 -0.2265  0.7225
 4131TIP3    H133884   6.006   5.961   1.130 -1.1602  0.4936 -1.4612
 4131TIP3    H233885   6.058   6.000   0.994  3.0549  0.1445 -0.0772
 4132TIP3   OH233886   4.962   1.258  12.384  0.1794  0.4439  0.4269
 4132TIP3    H133887   4.982   1.209  12.304 -1.4441 -0.5835  0.6054
 4132TIP3    H233888   4.957   1.349  12.356 -1.0363  0.0349 -0.8056
 4133TIP3   OH233889   1.241   1.356  11.503 -0.1979 -0.3478  0.3507
 4133TIP3    H133890   1.242   1.425  11.569  1.0675  0.0856 -0.1014
 4133TIP3    H233891   1.155   1.316  11.512 -1.0815  1.4483  0.4682
 4134TIP3   OH233892   1.105   6.113  16.726 -0.5268 -0.0988  1.0844
 4134TIP3    H133893   1.162   6.143  16.656 -0.7339 -1.2550  0.3829
 4134TIP3    H233894   1.052   6.044  16.686 -1.1086 -0.3411  2.2066
 4135TIP3   OH233895   6.722   2.494  17.077 -0.9191  0.0501  0.1971
 4135TIP3    H133896   6.627   2.494  17.087 -1.0582 -2.1474 -0.7288
 4135TIP3    H233897   6.744   2.405  17.052  1.1321  1.0575 -1.9860
 4136TIP3   OH233898   6.429   3.795   0.427  0.0403  0.0257  0.7659
 4136TIP3    H133899   6.513   3.789   0.472  1.0049 -3.6391 -1.1239
 4136TIP3    H233900   6.376   3.727   0.466 -0.4899 -0.5451 -0.8718
 4137TIP3   OH233901   2.448   6.548  15.875  0.2431 -0.2776 -0.2057
 4137TIP3    H133902   2.521   6.506  15.920 -0.8554  0.2261  2.2261
 4137TIP3    H233903   2.415   6.612  15.937 -0.0546  2.0853 -2.6209
 4138TIP3   OH233904   5.146   4.061  10.731 -0.1795 -0.1044 -0.2014
 4138TIP3    H133905   5.215   4.118  10.697  1.8106 -2.3093 -0.1085
 4138TIP3    H233906   5.113   4.014  10.655 -1.8193  1.0842 -0.2810
 4139TIP3   OH233907   2.786   5.634   2.264  0.0499 -0.4275 -0.2860
 4139TIP3    H133908   2.704   5.605   2.225  0.2951  0.7234 -1.7646
 4139TIP3    H233909   2.853   5.607   2.201  0.6223  0.1860  0.0442
 4140TIP3   OH233910   0.310   3.088   3.955  0.2942  0.1380 -0.1740
 4140TIP3    H133911   0.321   3.151   3.884  1.1185  2.4054  1.8562
 4140TIP3    H233912   0.399   3.064   3.979  0.0187 -0.5580  0.1688
 4141TIP3   OH233913   3.637   5.634  16.662  0.1424 -0.0822 -0.3033
 4141TIP3    H133914   3.608   5.702  16.723  1.3242  1.1640 -1.0675
 4141TIP3    H233915   3.733   5.641  16.663  0.3393 -2.1843  0.0714
 4142TIP3   OH233916   6.674   5.366   5.405 -0.5256 -0.6041  0.0628
 4142TIP3    H133917   6.604   5.424   5.376  0.2039 -0.0071 -0.5292
 4142TIP3    H233918   6.710   5.408   5.483  0.2599 -0.0528 -0.5920
 4143TIP3   OH233919   3.063   0.791   1.756  0.6530  0.2315  0.0453
 4143TIP3    H133920   2.989   0.739   1.725  2.0204 -0.9556 -1.3310
 4143TIP3    H233921   3.089   0.749   1.838 -0.6669  1.1658  0.9949
 4144TIP3   OH233922   3.023   0.296   4.903  0.4509  0.0080  0.1238
 4144TIP3    H133923   3.041   0.203   4.890 -0.7902  0.0049 -1.8931
 4144TIP3    H233924   3.109   0.338   4.900  0.9890 -1.0340  0.7502
 4145TIP3   OH233925   4.482   2.603  16.199  0.4376  0.2656 -0.3206
 4145TIP3    H133926   4.405   2.574  16.149  0.7302 -1.7853  0.3441
 4145TIP3    H233927   4.447   2.665  16.263 -0.8140 -1.2436  0.5032
 4146TIP3   OH233928   1.217   2.879   5.868 -0.9043  0.2994 -0.0548
 4146TIP3    H133929   1.174   2.940   5.928  0.5860  0.4056  0.9617
 4146TIP3    H233930   1.211   2.794   5.911  0.8921  0.5123  0.6959
 4147TIP3   OH233931   1.566   6.618   5.698  0.3284 -0.3067  0.0538
 4147TIP3    H133932   1.638   6.600   5.758  0.7593  3.3202  0.8693
 4147TIP3    H233933   1.605   6.609   5.611  1.7951  1.2968  0.4757
 4148TIP3   OH233934   4.984   2.548  15.694 -0.5503  0.1275  0.2595
 4148TIP3    H133935   4.983   2.466  15.644  1.7348  1.6705 -2.7097
 4148TIP3    H233936   5.069   2.587  15.673 -0.1469  1.8066  4.1986
 4149TIP3   OH233937   0.075   1.272  14.029  0.0251  0.3011  0.5048
 4149TIP3    H133938   0.111   1.274  13.940  0.2418  0.5952  0.5976
 4149TIP3    H233939   0.149   1.298  14.085  0.0790 -0.5302  0.8344
 4150TIP3   OH233940   0.912   5.882  16.078  0.1388 -0.2372  0.2592
 4150TIP3    H133941   0.818   5.879  16.095  0.4702 -1.7424  2.1072
 4150TIP3    H233942   0.953   5.861  16.162  2.1149 -0.3738 -0.6773
 4151TIP3   OH233943   4.250   5.679  13.134 -1.0668 -0.2540 -0.9811
 4151TIP3    H133944   4.185   5.656  13.200 -1.2334  1.4263 -0.5344
 4151TIP3    H233945   4.334   5.673  13.180 -0.7988 -2.7148 -1.6335
 4152TIP3   OH233946   0.749   3.106  16.424  0.0507  0.4417  0.0854
 4152TIP3    H133947   0.828   3.065  16.389 -0.8533 -1.8366  0.5225
 4152TIP3    H233948   0.683   3.092  16.356 -0.3821  0.8377  0.4190
 4153TIP3   OH233949   4.254   6.116   5.524 -0.1307  0.3919 -0.1480
 4153TIP3    H133950   4.180   6.139   5.581 -0.4831  2.3224 -1.2974
 4153TIP3    H233951   4.265   6.022   5.537 -1.5304  0.3943  1.5179
 4154TIP3   OH233952   4.899   5.151   1.928  0.2218 -0.1499 -0.2177
 4154TIP3    H133953   4.926   5.170   1.838 -1.9348  2.0011 -0.4915
 4154TIP3    H233954   4.900   5.236   1.972 -0.2242 -0.9461  1.3895
 4155TIP3   OH233955   5.227   3.781   5.150 -0.0523 -0.3264  0.3102
 4155TIP3    H133956   5.242   3.875   5.141  1.4109 -0.5055  0.6266
 4155TIP3    H233957   5.314   3.745   5.170 -0.3317 -1.9182 -1.1804
 4156TIP3   OH233958   0.168   5.762  15.579  0.3863  0.3899  0.0559
 4156TIP3    H133959   0.194   5.854  15.569  2.1391 -0.1170 -0.2210
 4156TIP3    H233960   0.165   5.748  15.674 -1.6715  1.1752  0.1671
 4157TIP3   OH233961   3.704   4.733  17.152  0.8628  0.3275 -0.0118
 4157TIP3    H133962   3.643   4.722  17.225 -0.1069 -0.2196 -0.8787
 4157TIP3    H233963   3.781   4.775  17.191  0.4998 -0.2546  1.3761
 4158TIP3   OH233964   4.612   6.370   0.627  0.0028  0.4207  0.2952
 4158TIP3    H133965   4.625   6.413   0.543 -1.9257 -0.8132 -0.7291
 4158TIP3    H233966   4.541   6.420   0.668 -1.4879 -1.0069 -0.4213
 4159TIP3   OH233967   5.033   0.919  11.526 -0.2075 -0.2020  0.0409
 4159TIP3    H133968   5.110   0.914  11.470  0.1111  0.8406  0.3557
 4159TIP3    H233969   5.039   0.844  11.584 -1.0648 -1.9061 -1.9283
 4160TIP3   OH233970   1.709   0.850  14.455  0.0446 -0.2164  0.1788
 4160TIP3    H133971   1.651   0.870  14.381  1.2331  0.5004 -0.5955
 4160TIP3    H233972   1.797   0.863  14.420  0.6316  0.7425  1.8931
 4161TIP3   OH233973   4.720   4.087  14.245 -0.4517 -0.0949  0.6529
 4161TIP3    H133974   4.679   4.101  14.160 -0.4079 -1.3538  0.4139
 4161TIP3    H233975   4.796   4.146  14.245 -0.4291 -0.1198 -0.1995
 4162TIP3   OH233976   2.549   1.404   1.084  0.8018 -0.5402  0.2240
 4162TIP3    H133977   2.603   1.334   1.048 -0.6284 -1.0166 -1.0887
 4162TIP3    H233978   2.604   1.483   1.078  1.4241 -1.0379 -0.8934
 4163TIP3   OH233979   5.623   1.412  14.694  0.0476  0.6274 -0.4248
 4163TIP3    H133980   5.672   1.471  14.750  1.9544 -0.4747 -0.8603
 4163TIP3    H233981   5.683   1.389  14.623 -0.2807 -2.4331  0.1256
 4164TIP3   OH233982   1.491   2.215   0.815 -0.6573  0.2923 -0.1499
 4164TIP3    H133983   1.396   2.203   0.817 -0.5661 -0.8257 -1.3522
 4164TIP3    H233984   1.526   2.131   0.784  0.7705  0.4917  0.8080
 4165TIP3   OH233985   5.735   1.133   5.923 -0.4154  0.3196  0.0791
 4165TIP3    H133986   5.649   1.165   5.897  0.0897  1.8811  0.2402
 4165TIP3    H233987   5.718   1.077   5.999 -1.0797  2.9887  2.0549
 4166TIP3   OH233988   6.567   0.049  13.631 -0.2041  0.1145 -0.2342
 4166TIP3    H133989   6.484   0.009  13.657 -0.8283 -0.6115 -2.9247
 4166TIP3    H233990   6.621  -0.025  13.603  1.0597  0.6607  0.6483
 4167TIP3   OH233991   4.954   3.510  12.297  0.1855  0.5017  0.1714
 4167TIP3    H133992   4.915   3.570  12.233  0.9282  1.2355  0.3901
 4167TIP3    H233993   5.039   3.487  12.259 -1.1965 -2.7808 -1.3576
 4168TIP3   OH233994   1.870   0.063  13.848 -0.5050  1.0853 -0.0991
 4168TIP3    H133995   1.965   0.066  13.836 -0.3876  0.3580  0.5740
 4168TIP3    H233996   1.844   0.154  13.861  0.0099  1.3581 -0.9286
 4169TIP3   OH233997   1.942   2.283  14.920  0.3789 -0.3871 -0.3183
 4169TIP3    H133998   1.855   2.314  14.894  1.3317  1.6076 -1.3270
 4169TIP3    H233999   1.925   2.202  14.968 -1.8963 -1.0191 -2.0383
 4170TIP3   OH234000   4.360   2.659   2.600 -0.3353  0.1042  0.6391
 4170TIP3    H134001   4.381   2.648   2.508 -0.0362 -1.1043  0.8395
 4170TIP3    H234002   4.277   2.707   2.600  0.7058  1.9933 -0.2045
 4171TIP3   OH234003   4.661   0.561  14.729 -0.1517 -0.1078 -0.6543
 4171TIP3    H134004   4.750   0.586  14.752  0.8837 -1.4531 -2.8052
 4171TIP3    H234005   4.628   0.634  14.677 -1.1391  1.3004  1.8120
 4172TIP3   OH234006   2.328   5.853   5.709  0.2702  0.3164 -1.0132
 4172TIP3    H134007   2.364   5.927   5.758 -1.2683  0.4556 -0.0129
 4172TIP3    H234008   2.386   5.843   5.634  2.0125  0.8687  0.2039
 4173TIP3   OH234009   3.317   5.199   4.555  0.4850 -0.4517 -0.3174
 4173TIP3    H134010   3.231   5.157   4.562  0.4352 -0.7015 -2.0242
 4173TIP3    H234011   3.374   5.132   4.518  1.2398 -0.0437  0.0832
 4174TIP3   OH234012   4.428   2.339   3.048  0.2489 -0.4324 -0.3777
 4174TIP3    H134013   4.521   2.333   3.070  0.3151  1.6791  0.1444
 4174TIP3    H234014   4.386   2.369   3.129 -0.3841  1.7108 -1.4143
 4175TIP3   OH234015   0.303   1.441  11.803  0.0070  0.5853  0.2009
 4175TIP3    H134016   0.237   1.376  11.780  1.9070 -1.2530 -0.3800
 4175TIP3    H234017   0.334   1.475  11.718  0.2755  0.9545  0.4421
 4176TIP3   OH234018   5.959   2.449  13.936 -0.8508  1.0087  0.2030
 4176TIP3    H134019   5.960   2.476  13.844  1.8017  1.6611  0.3329
 4176TIP3    H234020   6.004   2.520  13.982  1.5777 -1.1236  1.3585
 4177TIP3   OH234021   0.539   0.010  12.054  0.2027 -0.0892 -0.0483
 4177TIP3    H134022   0.467  -0.001  11.992 -0.3598 -0.2282  0.6096
 4177TIP3    H234023   0.496   0.010  12.140  1.2353 -3.5799  0.6219
 4178TIP3   OH234024   1.050   3.275  15.382 -0.0336 -0.1289  0.4508
 4178TIP3    H134025   1.090   3.190  15.367 -0.5862 -0.3281  0.0919
 4178TIP3    H234026   1.084   3.330  15.311 -0.2807 -0.2582  0.2314
 4179TIP3   OH234027   5.666   2.277   4.363 -0.7342 -0.2631 -0.0713
 4179TIP3    H134028   5.744   2.332   4.350 -0.4398 -0.5946  0.2553
 4179TIP3    H234029   5.698   2.202   4.413 -1.5059  0.2315  1.2359
 4180TIP3   OH234030   0.749   5.902  12.764 -0.4550 -0.1181 -0.0697
 4180TIP3    H134031   0.657   5.887  12.742 -0.8611  1.3574  0.5135
 4180TIP3    H234032   0.752   5.897  12.859 -0.0334  0.3536 -0.0542
 4181TIP3   OH234033   0.307   5.261  16.474  0.1698  0.3062 -0.1354
 4181TIP3    H134034   0.268   5.176  16.454  0.2473 -0.0143  1.0276
 4181TIP3    H234035   0.393   5.258  16.431 -0.2102  0.1921 -0.9101
 4182TIP3   OH234036   5.302   0.055   3.713  0.1209  0.0615  0.2033
 4182TIP3    H134037   5.207   0.070   3.709 -0.1288 -1.5445 -1.1739
 4182TIP3    H234038   5.310  -0.040   3.722  1.6092  0.1029 -0.5130
 4183TIP3   OH234039   1.783   5.229  16.571  0.2761  0.0214  0.2657
 4183TIP3    H134040   1.826   5.177  16.639  0.8596 -0.7738 -0.6891
 4183TIP3    H234041   1.789   5.176  16.492 -0.1655  1.0318 -0.4738
 4184TIP3   OH234042   1.109   4.288   4.578  0.0381 -0.0143  0.2773
 4184TIP3    H134043   1.149   4.214   4.532 -1.3206 -1.2144  0.9509
 4184TIP3    H234044   1.022   4.296   4.539  0.3646  1.6810 -0.2262
 4185TIP3   OH234045   3.212   0.500   0.480  0.3589  0.1561  0.1502
 4185TIP3    H134046   3.146   0.431   0.480  0.2451  0.2401 -0.7902
 4185TIP3    H234047   3.256   0.491   0.395  1.6987 -0.0221  0.8559
 4186TIP3   OH234048   5.321   2.802   2.342  0.0598 -0.5090  0.2420
 4186TIP3    H134049   5.366   2.781   2.424 -1.4788 -0.1950  1.2166
 4186TIP3    H234050   5.325   2.721   2.291  1.8801 -0.4171  0.1779
 4187TIP3   OH234051   1.504   4.624   2.579 -0.3495 -0.1189 -0.0983
 4187TIP3    H134052   1.458   4.705   2.599 -0.4422 -0.2388  0.1868
 4187TIP3    H234053   1.576   4.650   2.522 -0.5825  0.1138 -0.2894
 4188TIP3   OH234054   2.961   2.302   4.470 -0.6555 -0.2618  0.6519
 4188TIP3    H134055   2.964   2.289   4.376  0.3539  0.2507  0.5981
 4188TIP3    H234056   2.995   2.220   4.507  0.5643  0.1638  0.5020
 4189TIP3   OH234057   1.696   6.483   3.725  0.7667 -0.0040 -0.0140
 4189TIP3    H134058   1.687   6.573   3.757 -0.5490 -0.3252  0.5921
 4189TIP3    H234059   1.781   6.454   3.757  0.4861  0.4729  1.1940
 4190TIP3   OH234060   4.731   6.128  16.841 -0.2250  0.2006 -0.2102
 4190TIP3    H134061   4.747   6.203  16.899 -0.6731 -1.6620  2.4861
 4190TIP3    H234062   4.718   6.168  16.755  0.6538  3.1243  0.8619
 4191TIP3   OH234063   4.025   2.881  13.600  0.1884  0.4418  0.0077
 4191TIP3    H134064   4.116   2.891  13.574  0.0868  1.2241 -0.0830
 4191TIP3    H234065   4.023   2.803  13.654  0.7100 -0.2356 -0.9245
 4192TIP3   OH234066   1.054   3.580   5.535  0.5006 -0.1122 -0.3766
 4192TIP3    H134067   0.977   3.581   5.591  0.8791 -1.5253  0.2119
 4192TIP3    H234068   1.043   3.657   5.478  0.3514  1.6471  1.9004
 4193TIP3   OH234069   0.833   1.327  12.041 -0.2963  0.0703  0.1346
 4193TIP3    H134070   0.785   1.399  12.082 -0.0615  2.2432 -3.0335
 4193TIP3    H234071   0.890   1.370  11.978  2.2639 -2.7728  0.3235
 4194TIP3   OH234072   4.847   1.851   4.419  0.3534  0.1750  0.0818
 4194TIP3    H134073   4.819   1.772   4.465  0.3184  0.5542  0.7309
 4194TIP3    H234074   4.774   1.912   4.429  0.7556  0.6173  0.4172
 4195TIP3   OH234075   3.678   3.434   6.747 -0.8220 -0.4328 -0.7210
 4195TIP3    H134076   3.692   3.339   6.752 -1.5139 -0.5764 -1.3377
 4195TIP3    H234077   3.586   3.446   6.769 -0.3307  0.2852  1.1371
 4196TIP3   OH234078   3.157   4.822  15.580  0.0045  0.3498 -0.2017
 4196TIP3    H134079   3.192   4.737  15.553  0.5555  0.5744 -0.2092
 4196TIP3    H234080   3.210   4.846  15.657 -0.9654  0.1176  0.5486
 4197TIP3   OH234081   2.285   6.046   0.335  0.6190  0.0807  0.1961
 4197TIP3    H134082   2.294   6.032   0.430  0.8480  0.0640  0.1721
 4197TIP3    H234083   2.209   6.104   0.327  2.0422  2.0795  0.5513
 4198TIP3   OH234084   6.079   0.023  16.781 -0.1430 -0.2323 -0.4775
 4198TIP3    H134085   6.070  -0.022  16.865 -1.2667  0.3293 -0.2811
 4198TIP3    H234086   6.163  -0.008  16.746  0.1983 -0.6969  0.7067
 4199TIP3   OH234087   3.158   2.764  14.355  1.0300 -0.1166  0.1996
 4199TIP3    H134088   3.068   2.732  14.343  0.2828  2.0281 -0.3275
 4199TIP3    H234089   3.190   2.717  14.432 -0.8045 -0.3840  0.8423
 4200TIP3   OH234090   3.760   3.788  15.849 -0.0336 -0.4205 -0.2674
 4200TIP3    H134091   3.730   3.714  15.796  1.1063 -1.0831 -0.0190
 4200TIP3    H234092   3.841   3.757  15.890  0.7204  1.1133 -0.5113
 4201TIP3   OH234093   2.576   5.589  14.058 -0.2445  0.6449 -0.0628
 4201TIP3    H134094   2.626   5.549  14.129  0.3530  2.0969  0.3764
 4201TIP3    H234095   2.586   5.683  14.072 -0.3899  0.9664 -1.8860
 4202TIP3   OH234096   3.166   2.108  11.196 -0.1770  0.2253  0.2900
 4202TIP3    H134097   3.160   2.044  11.125 -1.4043 -1.0956  1.5196
 4202TIP3    H234098   3.184   2.191  11.151 -0.6977 -0.5901 -1.5497
 4203TIP3   OH234099   3.264   1.155   3.055 -0.3927 -0.3830  0.4353
 4203TIP3    H134100   3.327   1.148   2.982  0.5113  0.6999  1.0861
 4203TIP3    H234101   3.192   1.098   3.029  0.3383 -0.7652 -0.8736
 4204TIP3   OH234102   4.830   1.325   1.035 -0.9335  0.2828  0.2817
 4204TIP3    H134103   4.868   1.237   1.042 -1.0936  0.1885 -0.0118
 4204TIP3    H234104   4.899   1.384   1.064 -0.6249  0.0991 -0.0783
 4205TIP3   OH234105   0.128   2.100   1.381 -0.2975 -0.1260 -0.1305
 4205TIP3    H134106   0.091   2.150   1.308 -2.1102  0.9617  1.4311
 4205TIP3    H234107   0.214   2.138   1.396 -0.7869  1.1210 -0.3507
 4206TIP3   OH234108   6.269   2.977   3.751  0.8222  0.1337  0.2827
 4206TIP3    H134109   6.328   2.994   3.677  1.0259  3.9415  1.1208
 4206TIP3    H234110   6.269   2.881   3.759  3.7451 -0.2681 -2.2275
 4207TIP3   OH234111   3.314   3.649   4.380  0.2178  0.4589 -0.1554
 4207TIP3    H134112   3.241   3.697   4.420 -1.3144 -2.2211  0.5215
 4207TIP3    H234113   3.367   3.619   4.454 -0.3096 -1.0327 -0.3568
 4208TIP3   OH234114   0.673   0.074  16.385 -0.3764 -0.3866 -0.1977
 4208TIP3    H134115   0.724   0.110  16.313  1.6195 -1.6361  0.5158
 4208TIP3    H234116   0.613   0.012  16.344  0.8385 -1.1986 -0.7968
 4209TIP3   OH234117   5.899   0.913  16.795 -0.1194  0.4379  0.0578
 4209TIP3    H134118   5.844   0.963  16.735 -0.5067  1.5192  1.2907
 4209TIP3    H234119   5.913   0.829  16.749 -2.9006  0.0390 -0.2453
 4210TIP3   OH234120   1.929   3.145   5.437 -0.3336 -0.5548 -0.0610
 4210TIP3    H134121   1.970   3.060   5.420 -0.9765 -0.8976  0.0672
 4210TIP3    H234122   1.876   3.161   5.359 -2.0628 -1.3938  0.8920
 4211TIP3   OH234123   3.717   1.312  11.767  0.2553  0.3178  0.5151
 4211TIP3    H134124   3.632   1.355  11.775 -0.0147 -0.4433  2.0289
 4211TIP3    H234125   3.702   1.223  11.798  0.9368 -0.7674 -2.0189
 4212TIP3   OH234126   0.745   3.961  12.031  0.6155  0.1939  0.0221
 4212TIP3    H134127   0.722   3.876  12.069  0.7419  0.3388  0.4302
 4212TIP3    H234128   0.841   3.964  12.034  0.6049  0.4420  0.2217
 4213TIP3   OH234129   5.278   5.246   4.205  0.0088  0.6816 -0.3744
 4213TIP3    H134130   5.214   5.183   4.235  0.3817 -0.0012 -0.9877
 4213TIP3    H234131   5.246   5.331   4.237  0.1329  0.0582  1.5015
 4214TIP3   OH234132   2.733   2.159   6.490 -0.8436  0.3952 -0.2811
 4214TIP3    H134133   2.729   2.094   6.560 -1.7088 -0.6444 -1.2548
 4214TIP3    H234134   2.815   2.141   6.445 -1.4457 -0.5585 -1.0266
 4215TIP3   OH234135   6.762   4.496   2.005 -0.3273  0.0598  0.5036
 4215TIP3    H134136   6.790   4.576   1.962  0.9978  1.1673  3.1837
 4215TIP3    H234137   6.826   4.430   1.980  0.1309  0.5437  0.4038
 4216TIP3   OH234138   4.550   0.935   4.960  0.3359 -0.6769 -0.1208
 4216TIP3    H134139   4.529   0.918   5.052  0.0049 -1.4968 -0.3392
 4216TIP3    H234140   4.572   1.028   4.957 -3.4516  0.3839  0.1373
 4217TIP3   OH234141   2.317   1.307  16.554  0.0080 -0.1399  0.0169
 4217TIP3    H134142   2.393   1.250  16.567  0.8325  1.0369  0.6036
 4217TIP3    H234143   2.248   1.269  16.607  0.5087 -0.6615  0.3040
 4218TIP3   OH234144   5.690   4.765   2.985 -0.0504  0.5660 -0.6571
 4218TIP3    H134145   5.688   4.806   3.071  0.1461 -2.8244  1.1439
 4218TIP3    H234146   5.779   4.729   2.977  0.0419  1.0921 -2.4524
 4219TIP3   OH234147   1.401   5.217  10.616  0.1914  0.1051 -0.1841
 4219TIP3    H134148   1.335   5.284  10.631  0.1579  0.1462 -0.4990
 4219TIP3    H234149   1.351   5.137  10.601  0.2289  0.0256  0.1041
 4220TIP3   OH234150   0.190   4.911  17.326  0.2586  0.3820 -0.2388
 4220TIP3    H134151   0.168   4.997  17.289 -0.8497  1.1315  1.9604
 4220TIP3    H234152   0.109   4.860  17.319 -0.2534  0.8276  1.7704
 4221TIP3   OH234153   5.283   2.258  11.098  0.2766  0.7096  0.2953
 4221TIP3    H134154   5.203   2.211  11.121  0.9198 -0.7390 -0.2788
 4221TIP3    H234155   5.269   2.288  11.009 -0.3629  2.1704  0.8609
 4222TIP3   OH234156   3.300   1.289  11.914  0.1553  0.0488 -0.3523
 4222TIP3    H134157   3.335   1.216  11.863 -2.0481 -1.3008 -0.0553
 4222TIP3    H234158   3.268   1.351  11.847  0.9613  0.2173 -0.5953
 4223TIP3   OH234159   5.259   2.404  12.854  0.5030 -0.3903 -0.2358
 4223TIP3    H134160   5.277   2.317  12.890  2.3122  0.0331  0.0099
 4223TIP3    H234161   5.294   2.465  12.920  1.0370  0.4649 -1.2765
 4224TIP3   OH234162   3.956   3.267   2.067  0.3097  0.0760 -0.6727
 4224TIP3    H134163   4.037   3.280   2.117  0.1336 -1.1855 -0.0236
 4224TIP3    H234164   3.887   3.298   2.126  0.1720 -0.6287 -0.4558
 4225TIP3   OH234165   4.733   2.699   4.666  0.4944 -0.1267 -0.1116
 4225TIP3    H134166   4.697   2.772   4.717 -0.8114 -2.4449  2.5304
 4225TIP3    H234167   4.753   2.632   4.731  1.6896 -2.1385 -2.4143
 4226TIP3   OH234168   0.344   3.756  11.367 -0.8944 -0.5188  0.5271
 4226TIP3    H134169   0.379   3.678  11.409  2.8664  0.5256 -0.2805
 4226TIP3    H234170   0.338   3.733  11.274 -0.9643 -0.2369  0.4593
 4227TIP3   OH234171   3.628   4.618   3.845 -0.1610  0.3719 -0.2022
 4227TIP3    H134172   3.587   4.695   3.806  0.2783  0.0407 -1.3334
 4227TIP3    H234173   3.567   4.547   3.826 -0.0740  0.2549 -0.0439
 4228TIP3   OH234174   6.194   4.539   1.783  0.2399  0.0732 -0.4002
 4228TIP3    H134175   6.262   4.563   1.847  0.1052 -0.6710  0.0276
 4228TIP3    H234176   6.218   4.588   1.705  0.5295  0.8366  0.1490
 4229TIP3   OH234177   5.720   1.639  14.827  0.0174  0.4694 -0.6791
 4229TIP3    H134178   5.731   1.715  14.771  1.3790  1.3753  0.7607
 4229TIP3    H234179   5.715   1.674  14.916 -1.9077 -0.9399 -0.1565
 4230TIP3   OH234180   6.607   5.234  16.930  0.8401 -0.1203  0.5357
 4230TIP3    H134181   6.609   5.152  16.880  0.0410 -0.0711  0.4110
 4230TIP3    H234182   6.656   5.296  16.877 -1.3759  0.3918 -1.0535
 4231TIP3   OH234183   0.552   3.524   0.690  0.1085  0.3133 -0.1933
 4231TIP3    H134184   0.524   3.550   0.777  0.9435 -1.7888  0.7717
 4231TIP3    H234185   0.470   3.506   0.643 -0.3385  1.3107  0.1721
 4232TIP3   OH234186   5.998   2.213   0.454  0.0976  0.7173  0.8181
 4232TIP3    H134187   6.011   2.141   0.392 -1.5628 -0.1375  1.3965
 4232TIP3    H234188   6.052   2.284   0.420  1.1555 -0.5262 -0.2261
 4233TIP3   OH234189   1.631   1.919  16.282  0.0592 -0.5941 -0.4067
 4233TIP3    H134190   1.612   2.009  16.310  0.5545 -0.5572 -0.1798
 4233TIP3    H234191   1.635   1.925  16.186  2.1016  0.0572 -0.3320
 4234TIP3   OH234192   1.977   3.854   4.009  0.2790  0.1040  0.0638
 4234TIP3    H134193   2.038   3.891   3.945  0.5938 -0.4581  0.0330
 4234TIP3    H234194   1.912   3.923   4.022  0.9639  0.7576  0.1638
 4235TIP3   OH234195   2.405   5.127  17.255 -0.3416 -0.0769  0.2451
 4235TIP3    H134196   2.386   5.078  17.335  0.6415 -0.5922  0.1860
 4235TIP3    H234197   2.484   5.177  17.275 -0.8730  0.8750  0.0354
 4236TIP3   OH234198   2.488   4.938  17.082 -0.2373 -0.2287  0.8870
 4236TIP3    H134199   2.577   4.942  17.118  0.5105 -0.1475 -0.8826
 4236TIP3    H234200   2.449   5.021  17.106  0.2509 -0.1575  1.4592
 4237TIP3   OH234201   6.057   4.539   2.455  0.1755  0.0842 -0.0826
 4237TIP3    H134202   6.053   4.606   2.387  0.2683 -2.2643 -2.5682
 4237TIP3    H234203   5.968   4.502   2.457  0.6778 -1.1710 -0.3408
 4238TIP3   OH234204   4.354   5.271  16.675 -0.0900 -0.5032 -0.7566
 4238TIP3    H134205   4.308   5.232  16.750  0.1776 -1.4331 -1.0543
 4238TIP3    H234206   4.420   5.327  16.714 -0.0157 -0.9013 -0.2887
 4239TIP3   OH234207   3.459   3.177  12.177  0.2134  0.3569  0.0095
 4239TIP3    H134208   3.401   3.104  12.197  1.1497  0.0236  1.7460
 4239TIP3    H234209   3.509   3.149  12.101  0.2512 -0.6490  0.3926
 4240TIP3   OH234210   2.021   0.013  16.962  0.0068  0.2746  0.1937
 4240TIP3    H134211   2.035   0.027  16.868 -1.5472 -1.9380 -0.4322
 4240TIP3    H234212   1.940   0.060  16.981  1.0789  1.9731  0.8367
 4241TIP3   OH234213   1.429   6.777  13.124 -0.5671  0.3404  0.1778
 4241TIP3    H134214   1.453   6.722  13.199 -1.1327  0.1129  0.1970
 4241TIP3    H234215   1.380   6.719  13.066 -1.1580  0.8105  0.1871
 4242TIP3   OH234216   0.029   2.743  16.514 -0.0172 -0.1020 -0.2258
 4242TIP3    H134217   0.056   2.657  16.544 -1.4181 -0.6953 -0.5536
 4242TIP3    H234218   0.110   2.790  16.497  0.7704 -1.1547  0.5026
 4243TIP3   OH234219   0.071   6.030   4.607 -0.3990  0.5642  0.4531
 4243TIP3    H134220   0.020   6.106   4.635  1.7557  0.5569  5.5872
 4243TIP3    H234221   0.161   6.062   4.604  0.5185 -1.5707  2.3920
 4244TIP3   OH234222   4.111   1.992  13.588 -0.2623  0.0438  0.6081
 4244TIP3    H134223   4.101   1.904  13.622 -0.8090  0.4579  1.5631
 4244TIP3    H234224   4.177   1.984  13.518  0.8409 -0.8533  1.7094
 4245TIP3   OH234225   1.928   2.205  16.931  0.2019 -0.0429  0.8424
 4245TIP3    H134226   1.869   2.138  16.898  0.7122  0.7670 -2.0366
 4245TIP3    H234227   2.008   2.158  16.955  0.6368 -0.5076 -1.3490
 4246TIP3   OH234228   4.437   4.434  15.155  0.6027  0.3725 -0.0014
 4246TIP3    H134229   4.466   4.394  15.237 -1.7293 -0.2117  0.6013
 4246TIP3    H234230   4.515   4.480  15.122  2.3451 -1.5619  1.1632
 4247TIP3   OH234231   2.393   0.962  15.794  0.0426  0.2173 -0.2212
 4247TIP3    H134232   2.330   0.923  15.854 -0.7329 -1.0631 -1.7882
 4247TIP3    H234233   2.340   1.002  15.726  0.9051  0.3709 -0.8163
 4248TIP3   OH234234   2.231   4.003  14.865  0.2109 -0.1090  0.0329
 4248TIP3    H134235   2.311   4.054  14.883  0.6888 -0.5615 -0.7664
 4248TIP3    H234236   2.164   4.044  14.920  1.0550  0.1012  0.9391
 4249TIP3   OH234237   5.314   1.793  16.471  0.0509  0.1921 -0.1289
 4249TIP3    H134238   5.357   1.714  16.504 -0.0330 -0.2627 -1.0815
 4249TIP3    H234239   5.221   1.777  16.488  0.1528  0.8122  1.1638
 4250TIP3   OH234240   0.583   1.779   6.458 -0.1093  0.3430  0.1365
 4250TIP3    H134241   0.530   1.728   6.396 -0.2693 -0.9553  1.2904
 4250TIP3    H234242   0.670   1.740   6.452 -0.1234  0.2200  0.7111
 4251TIP3   OH234243   0.688   6.188   2.189  0.0420  0.2461 -0.0291
 4251TIP3    H134244   0.689   6.243   2.268 -0.7151 -0.4290  0.4641
 4251TIP3    H234245   0.754   6.227   2.132  1.8126 -0.2204  1.5941
 4252TIP3   OH234246   5.060   3.585   6.372 -0.3201 -0.5081 -0.1751
 4252TIP3    H134247   5.100   3.660   6.328  0.5259  0.0190  1.4306
 4252TIP3    H234248   5.120   3.512   6.355  0.0175 -0.3012  0.1310
 4253TIP3   OH234249   1.482   2.295  13.286  0.2887 -0.2820 -0.4414
 4253TIP3    H134250   1.404   2.245  13.264  0.1554 -0.5383  0.5468
 4253TIP3    H234251   1.471   2.317  13.379  0.8168  0.7197 -0.5994
 4254TIP3   OH234252   6.278   2.056  12.595 -0.5373  0.2648  0.2277
 4254TIP3    H134253   6.284   2.099  12.680 -0.4500  0.7501 -0.0192
 4254TIP3    H234254   6.223   1.979  12.610  0.3883 -0.2671  0.9612
 4255TIP3   OH234255   5.291   1.434   2.304 -0.2745 -0.3885 -0.4462
 4255TIP3    H134256   5.339   1.406   2.226  0.2957  1.4755 -0.7930
 4255TIP3    H234257   5.253   1.518   2.280 -2.3320 -1.0141  0.4065
 4256TIP3   OH234258   5.311   2.904   4.962 -0.0257  0.4706  0.2637
 4256TIP3    H134259   5.236   2.961   4.980 -0.5360 -0.7350  2.2407
 4256TIP3    H234260   5.368   2.915   5.038  0.8924 -0.0762 -0.3267
 4257TIP3   OH234261   2.089   3.261  11.829 -0.2056  0.2937 -0.1337
 4257TIP3    H134262   2.108   3.175  11.792 -0.6596  0.4541 -0.7580
 4257TIP3    H234263   1.998   3.279  11.803  0.2810  1.5053 -1.1173
 4258TIP3   OH234264   4.279   6.398   5.439 -0.6819 -0.3528 -0.4161
 4258TIP3    H134265   4.188   6.404   5.469  0.5489  0.7564  3.8631
 4258TIP3    H234266   4.298   6.304   5.439 -1.6496 -0.5661 -0.9286
 4259TIP3   OH234267   4.428   6.016  11.184 -0.0130 -0.1133 -0.2601
 4259TIP3    H134268   4.433   5.952  11.113 -1.6717 -0.1782 -0.3525
 4259TIP3    H234269   4.363   5.980  11.244  1.2136  0.0488  1.1949
 4260TIP3   OH234270   2.288   1.806  12.467  0.9844 -0.3532 -0.1700
 4260TIP3    H134271   2.271   1.733  12.408 -1.9186  0.0305  0.0157
 4260TIP3    H234272   2.209   1.811  12.521  0.7545  3.2975 -0.6139
 4261TIP3   OH234273   1.564   4.666  13.264  0.7822 -0.4298  0.5072
 4261TIP3    H134274   1.534   4.692  13.351  0.1015  1.9176 -0.3513
 4261TIP3    H234275   1.583   4.749  13.219 -2.3283 -1.2340 -2.7723
 4262TIP3   OH234276   2.576   0.705   1.883  0.3246  0.4994 -0.4995
 4262TIP3    H134277   2.640   0.735   1.818 -0.2652  2.1842 -0.3518
 4262TIP3    H234278   2.530   0.634   1.839  1.0441  0.5066 -1.3039
 4263TIP3   OH234279   0.787   5.284   0.841  0.0818  0.0714 -0.4299
 4263TIP3    H134280   0.742   5.330   0.770  3.1236  0.8636 -2.0420
 4263TIP3    H234281   0.821   5.354   0.897  0.9096 -0.3843 -0.3524
 4264TIP3   OH234282   6.544   6.511   0.919  0.1657 -0.1691 -0.0850
 4264TIP3    H134283   6.526   6.598   0.954  1.6765 -0.1648  0.7753
 4264TIP3    H234284   6.474   6.456   0.955  0.4582  0.2715  1.2167
 4265TIP3   OH234285   4.391   3.198  16.093 -0.5100 -0.0443  0.0609
 4265TIP3    H134286   4.320   3.201  16.156  0.1935  0.6881  0.8385
 4265TIP3    H234287   4.392   3.108  16.062 -1.5361 -0.1475  0.3133
 4266TIP3   OH234288   4.351   2.003  13.761 -0.3780  0.1612  0.1461
 4266TIP3    H134289   4.412   2.055  13.709 -0.6045  0.1555 -0.1278
 4266TIP3    H234290   4.271   2.002  13.709 -0.3152 -0.6228  0.0569
 4267TIP3   OH234291   5.740   6.484  12.022 -0.7371 -0.2976 -0.1089
 4267TIP3    H134292   5.656   6.523  12.045 -0.9730 -1.3533  0.9608
 4267TIP3    H234293   5.720   6.422  11.952 -1.1316 -1.5456  1.0607
 4268TIP3   OH234294   6.744   3.882   6.615  0.7199 -0.3442 -0.3001
 4268TIP3    H134295   6.767   3.805   6.665 -0.4555  0.6727  1.9487
 4268TIP3    H234296   6.715   3.946   6.680 -1.2919  0.9446 -2.2715
 4269TIP3   OH234297   6.368   5.050   3.518  0.4246 -0.6844 -0.1095
 4269TIP3    H134298   6.405   5.114   3.579 -1.3953  0.4570 -0.1337
 4269TIP3    H234299   6.382   5.088   3.432  0.9606 -1.2190 -0.2696
 4270TIP3   OH234300   2.351   0.647   3.204 -0.1192 -0.1004  0.3171
 4270TIP3    H134301   2.364   0.593   3.126  1.4324 -1.1902  1.2693
 4270TIP3    H234302   2.431   0.698   3.211 -0.2349 -0.0344  1.2144
 4271TIP3   OH234303   1.561   3.620  12.115  0.0053  0.3048  0.5957
 4271TIP3    H134304   1.648   3.582  12.099  0.0148 -0.6339  2.5333
 4271TIP3    H234305   1.575   3.680  12.188 -1.3111 -1.5540  2.4893
 4272TIP3   OH234306   3.258   2.167  13.699 -0.4123  0.1644  0.0848
 4272TIP3    H134307   3.332   2.227  13.709 -0.7193  1.0969 -2.4570
 4272TIP3    H234308   3.181   2.221  13.715 -0.6340 -0.1308  0.0276
 4273TIP3   OH234309   1.931   4.992   3.937  0.6970  0.1037 -0.0563
 4273TIP3    H134310   1.890   4.930   3.998 -1.1435 -0.4660 -1.7484
 4273TIP3    H234311   1.937   4.944   3.855  0.8648  1.6104 -0.9572
 4274TIP3   OH234312   0.991   2.483  13.770  0.0599 -0.6082 -0.0983
 4274TIP3    H134313   0.908   2.489  13.722 -0.7970  0.5377  1.4127
 4274TIP3    H234314   1.058   2.475  13.703 -1.2051 -0.7145 -1.3986
 4275TIP3   OH234315   0.925   0.427  11.135  0.4163  0.4045  0.0023
 4275TIP3    H134316   0.975   0.509  11.137  0.0231  0.6618 -0.5601
 4275TIP3    H234317   0.918   0.406  11.042 -1.6741  1.0739 -0.0267
 4276TIP3   OH234318   0.783   5.254  17.429 -0.0923  0.3158  0.1494
 4276TIP3    H134319   0.810   5.249  17.337 -1.7611  1.2981 -0.4349
 4276TIP3    H234320   0.696   5.214  17.430  0.7429 -1.6486  1.7328
 4277TIP3   OH234321   6.455   6.475  13.397  0.1237 -0.5962 -0.4261
 4277TIP3    H134322   6.394   6.541  13.362  1.1656  0.6187 -0.0534
 4277TIP3    H234323   6.512   6.525  13.456  1.0466 -1.8201 -0.2471
 4278TIP3   OH234324   5.937   6.047   0.475  0.5957  0.0660 -0.0743
 4278TIP3    H134325   5.980   6.124   0.439  0.0667  0.1647 -0.5049
 4278TIP3    H234326   5.883   6.080   0.546 -3.1834  0.8488 -3.0283
 4279TIP3   OH234327   0.167   4.681  15.467 -0.1111  0.0199  0.6387
 4279TIP3    H134328   0.168   4.755  15.405 -0.4143 -0.5793 -0.0946
 4279TIP3    H234329   0.259   4.657  15.476 -0.1489 -0.6121 -0.4762
 4280TIP3   OH234330   0.852   3.131   0.420  0.1268 -0.1465  0.3633
 4280TIP3    H134331   0.912   3.130   0.495 -1.5924  0.4084  1.8250
 4280TIP3    H234332   0.874   3.211   0.373 -0.8006  1.1748  2.0827
 4281TIP3   OH234333   4.012   5.634  14.543  0.0990  0.2577  0.1671
 4281TIP3    H134334   3.977   5.634  14.632 -1.5499  0.7175 -0.4596
 4281TIP3    H234335   3.981   5.715  14.504 -0.5016 -0.6430 -1.3141
 4282TIP3   OH234336   5.533   5.748   1.383  0.3524 -0.1286  0.5788
 4282TIP3    H134337   5.491   5.829   1.411 -0.3203 -0.0141 -0.6922
 4282TIP3    H234338   5.581   5.718   1.460  3.0642  3.0014  0.3379
 4283TIP3   OH234339   3.237   2.012   5.900 -0.4018 -0.2492  0.0099
 4283TIP3    H134340   3.319   1.981   5.939  1.2238  3.1347 -0.3795
 4283TIP3    H234341   3.187   2.047   5.974 -0.9170 -1.0210  0.0438
 4284TIP3   OH234342   3.976   2.704  11.792  0.2812 -0.2794  0.5375
 4284TIP3    H134343   4.047   2.710  11.728  0.6276 -1.9936  0.6956
 4284TIP3    H234344   4.008   2.754  11.867  1.0806 -0.5524  0.3921
 4285TIP3   OH234345   1.806   2.094   2.078  0.4664 -0.1368 -1.0796
 4285TIP3    H134346   1.729   2.039   2.092 -0.2512  0.7202 -1.5836
 4285TIP3    H234347   1.804   2.158   2.149  0.5706  0.0407 -1.2342
 4286TIP3   OH234348   4.152   1.540   5.706 -0.3301 -0.4168 -0.1980
 4286TIP3    H134349   4.213   1.591   5.652  0.4911 -0.3129  0.7905
 4286TIP3    H234350   4.165   1.450   5.678 -0.7236 -0.2598 -0.9316
 4287TIP3   OH234351   2.664   5.706  12.759  0.4974  0.2595 -0.1688
 4287TIP3    H134352   2.590   5.764  12.739  0.9837  0.4368 -1.5508
 4287TIP3    H234353   2.627   5.618  12.754  0.1230  0.3850  0.3059
 4288TIP3   OH234354   3.917   5.849   6.047 -0.1470 -0.5011  0.2839
 4288TIP3    H134355   3.894   5.851   6.140 -0.6439 -0.1272  0.1585
 4288TIP3    H234356   3.849   5.901   6.004  1.7082  1.9295  0.0569
 4289TIP3   OH234357   4.588   2.685   3.290  0.5271  0.3539 -0.0274
 4289TIP3    H134358   4.633   2.614   3.243 -1.3401 -0.2132 -1.0616
 4289TIP3    H234359   4.613   2.672   3.381  2.7298  0.3133 -0.5908
 4290TIP3   OH234360   0.123   3.247  16.273  0.3924  0.1733  0.3697
 4290TIP3    H134361   0.061   3.286  16.211  0.7444 -0.0354 -0.1272
 4290TIP3    H234362   0.145   3.162  16.234  0.4712 -0.0458  0.8833
 4291TIP3   OH234363   1.652   0.364  10.575 -0.0323 -0.2158  0.1441
 4291TIP3    H134364   1.671   0.444  10.623 -0.7064  0.5614 -0.8339
 4291TIP3    H234365   1.566   0.380  10.535 -0.4569 -1.6642  0.4146
 4292TIP3   OH234366   0.031   2.370  14.096  0.5356  0.1110  0.7269
 4292TIP3    H134367   0.119   2.335  14.110  1.1183  0.7534 -1.0514
 4292TIP3    H234368  -0.005   2.317  14.024  1.0558  2.3867 -1.3274
 4293TIP3   OH234369   6.329   2.993  13.320  0.0043  0.1290  0.2400
 4293TIP3    H134370   6.291   2.909  13.345  0.5779 -0.1726  0.1132
 4293TIP3    H234371   6.301   3.054  13.389 -2.6974  0.4988 -1.0491
 4294TIP3   OH234372   6.730   4.148   5.594  0.6486 -0.2860 -0.1695
 4294TIP3    H134373   6.810   4.151   5.542  1.5893  1.4006  1.2488
 4294TIP3    H234374   6.758   4.112   5.678 -0.2728 -0.4741  0.0705
 4295TIP3   OH234375   5.270   0.531   3.711 -0.5454  0.0419 -0.3560
 4295TIP3    H134376   5.334   0.602   3.708 -0.0532 -0.4119 -1.4172
 4295TIP3    H234377   5.306   0.465   3.651 -1.0832 -1.0169  0.4600
 4296TIP3   OH234378   6.341   0.052   0.539  0.1750  0.1756  0.2835
 4296TIP3    H134379   6.258   0.096   0.557  0.9933  0.9011  2.8215
 4296TIP3    H234380   6.329   0.009   0.455 -2.0757  1.8860 -0.3451
 4297TIP3   OH234381   6.460   6.423  10.678  0.0283  0.2253 -0.4403
 4297TIP3    H134382   6.389   6.368  10.645  0.7888  0.3505 -2.4081
 4297TIP3    H234383   6.506   6.367  10.741 -0.7600 -0.4642 -0.4572
 4298TIP3   OH234384   0.751   2.653  17.202  0.6670  0.1663  0.1931
 4298TIP3    H134385   0.709   2.632  17.118  0.4655 -1.5128  0.6900
 4298TIP3    H234386   0.697   2.610  17.268  1.7125  0.1427  1.0696
 4299TIP3   OH234387   5.076   4.501   4.104  0.2340 -0.5433  0.4310
 4299TIP3    H134388   4.991   4.477   4.140 -0.1546 -1.8407 -1.2060
 4299TIP3    H234389   5.128   4.421   4.111 -0.2116 -1.2381 -2.7131
 4300TIP3   OH234390   3.768   3.990  17.178  0.1756  0.0893 -0.0438
 4300TIP3    H134391   3.742   3.916  17.124 -0.2295 -0.3971  0.7990
 4300TIP3    H234392   3.761   4.066  17.120 -0.2797 -0.4138 -0.6593
 4301TIP3   OH234393   4.271   1.815  11.465 -0.1838  1.1934 -0.0728
 4301TIP3    H134394   4.239   1.818  11.555  0.9495 -0.5296  0.4514
 4301TIP3    H234395   4.292   1.906  11.444 -1.2943  1.7504  1.0712
 4302TIP3   OH234396   6.084   3.316   4.434 -0.0267 -1.0552  0.3570
 4302TIP3    H134397   6.175   3.306   4.459 -0.1471 -3.3624  0.0854
 4302TIP3    H234398   6.034   3.283   4.509 -0.5607 -1.6977 -0.2636
 4303TIP3   OH234399   2.027   1.972   3.349  0.3578 -0.2070 -0.1560
 4303TIP3    H134400   2.015   2.008   3.261  1.3049  0.6806  0.0640
 4303TIP3    H234401   2.060   1.884   3.335  2.1953  0.5413 -0.7067
 4304TIP3   OH234402   3.923   0.472   3.397  0.1538 -0.0505 -0.2765
 4304TIP3    H134403   3.977   0.503   3.324 -1.1903 -0.4087 -1.4445
 4304TIP3    H234404   3.855   0.538   3.407  1.2948  0.9277  1.8604
 4305TIP3   OH234405   4.568   5.658  12.011  0.7755 -0.3399 -0.6183
 4305TIP3    H134406   4.570   5.682  11.918  0.6127  0.3842 -0.4399
 4305TIP3    H234407   4.475   5.648  12.030  0.7364  0.6368 -0.2571
 4306TIP3   OH234408   1.028   0.037  16.900 -0.1937  0.0045 -0.3077
 4306TIP3    H134409   0.984   0.101  16.844 -1.1953 -0.0743  0.3640
 4306TIP3    H234410   0.960   0.005  16.958  0.9836  0.7602  1.5938
 4307TIP3   OH234411   2.446   3.854  14.433 -0.2838 -0.3984  0.1191
 4307TIP3    H134412   2.532   3.811  14.434  0.2823  0.6967  1.1609
 4307TIP3    H234413   2.466   3.946  14.416 -0.8779  0.4998  3.5314
 4308TIP3   OH234414   1.838   0.282   3.292  0.3523 -0.1000 -0.6525
 4308TIP3    H134415   1.887   0.296   3.373  0.2101 -0.7671 -0.4434
 4308TIP3    H234416   1.845   0.365   3.244  0.7039  0.1895 -0.1015
 4309TIP3   OH234417   2.864   3.765   4.068  0.2512 -0.3255  0.4466
 4309TIP3    H134418   2.918   3.769   4.147 -0.2907  1.2165  0.7804
 4309TIP3    H234419   2.781   3.728   4.098  0.4875 -0.9701  0.3161
 4310TIP3   OH234420   4.415   2.023  17.375  0.3725  0.4066  0.0042
 4310TIP3    H134421   4.459   2.015  17.459 -1.5165  1.7760  1.1765
 4310TIP3    H234422   4.405   2.117  17.361 -0.2498  0.1751 -1.2659
 4311TIP3   OH234423   2.997   2.431   5.167 -0.3705 -0.2344 -0.0146
 4311TIP3    H134424   2.961   2.345   5.144 -1.5929 -0.1070  1.3054
 4311TIP3    H234425   3.039   2.418   5.252  2.1510 -0.1941 -1.1790
 4312TIP3   OH234426   5.245   6.664  11.653  0.0437  0.4327 -0.0835
 4312TIP3    H134427   5.173   6.629  11.601  1.9404 -2.6192 -0.8768
 4312TIP3    H234428   5.312   6.687  11.588  1.7506 -1.7144  0.8270
 4313TIP3   OH234429   4.833   3.735  17.021  0.6736  0.0973  0.2013
 4313TIP3    H134430   4.824   3.814  16.968  0.1492 -0.0260  0.1017
 4313TIP3    H234431   4.771   3.748  17.094  1.4247  0.2914  0.8201
 4314TIP3   OH234432   6.129   5.246   5.983 -0.6510  0.2070 -0.0463
 4314TIP3    H134433   6.174   5.326   5.958  0.0692  0.2205  1.1972
 4314TIP3    H234434   6.183   5.176   5.947  0.7263  0.2060  1.8642
 4315TIP3   OH234435   5.485   3.963  15.430  0.6438 -0.1328 -0.1481
 4315TIP3    H134436   5.495   4.055  15.456 -2.0514 -0.0278  0.8358
 4315TIP3    H234437   5.394   3.942  15.451  1.4342 -3.3509  0.5985
 4316TIP3   OH234438   4.405   6.344  13.108 -0.1420  0.8212 -0.5555
 4316TIP3    H134439   4.364   6.424  13.140 -1.7479  0.0351 -0.5456
 4316TIP3    H234440   4.333   6.281  13.100  0.8368 -0.2065 -1.9184
 4317TIP3   OH234441   4.094   4.045  11.723 -0.1136  0.4689 -0.3379
 4317TIP3    H134442   4.024   4.089  11.676 -0.3237 -0.2200 -0.6723
 4317TIP3    H234443   4.171   4.056  11.667 -0.2680  0.0270 -0.6472
 4318TIP3   OH234444   3.911   2.524   4.408 -0.2436  0.1217 -0.6444
 4318TIP3    H134445   3.862   2.571   4.341 -1.1464 -1.0306 -0.8189
 4318TIP3    H234446   3.976   2.473   4.360  1.2420  1.7112 -0.4087
 4319TIP3   OH234447   2.757   0.045   4.164 -0.0177 -0.2340  0.1925
 4319TIP3    H134448   2.672   0.035   4.207 -0.1440 -0.7427 -0.1638
 4319TIP3    H234449   2.745   0.121   4.107 -0.7498 -1.2185 -1.0239
 4320TIP3   OH234450   6.340   4.826  11.549  0.1497  0.2958 -0.1799
 4320TIP3    H134451   6.379   4.868  11.473  1.0691  0.5721  0.4278
 4320TIP3    H234452   6.296   4.897  11.596  1.2437  0.5058  0.5624
 4321TIP3   OH234453   4.204   3.242  17.273 -0.1177  0.6195  0.1835
 4321TIP3    H134454   4.158   3.322  17.298  0.2802  1.3940 -1.3857
 4321TIP3    H234455   4.167   3.219  17.188 -0.3564 -0.9957  0.6918
 4322TIP3   OH234456   1.466   4.939  16.244  0.4329  0.3379  0.2153
 4322TIP3    H134457   1.494   4.933  16.335 -1.2613 -0.5653  0.7169
 4322TIP3    H234458   1.430   4.853  16.224  1.3784  0.2973 -1.5420
 4323TIP3   OH234459   2.214   1.752  15.630 -0.3596 -0.0874 -0.6664
 4323TIP3    H134460   2.144   1.789  15.576 -2.1392 -2.7498 -0.3567
 4323TIP3    H234461   2.169   1.689  15.687  1.8546  0.4704  1.9146
 4324TIP3   OH234462   5.751   2.701   4.389  0.8011 -0.0911  0.3595
 4324TIP3    H134463   5.660   2.732   4.396  0.3707 -0.7998 -1.5379
 4324TIP3    H234464   5.768   2.658   4.473 -0.0883  1.3240  1.3173
 4325TIP3   OH234465   5.519   5.253   3.626  0.0710  0.0463 -0.0024
 4325TIP3    H134466   5.566   5.335   3.610 -1.2870  1.0476  0.9426
 4325TIP3    H234467   5.473   5.235   3.544  0.9527 -0.2014 -0.4612
 4326TIP3   OH234468   4.334   4.526   1.306  1.1753 -0.6720  0.6807
 4326TIP3    H134469   4.410   4.476   1.276  1.3892 -0.7677  1.3670
 4326TIP3    H234470   4.366   4.616   1.315  0.7800 -0.3712 -0.5934
 4327TIP3   OH234471   6.570   5.781  17.059  0.4092  0.1508 -0.0754
 4327TIP3    H134472   6.575   5.685  17.053  1.3204  0.1340  0.7731
 4327TIP3    H234473   6.659   5.811  17.043  0.8466  0.6546  2.8380
 4328TIP3   OH234474   2.208   4.751  13.480 -0.3459  0.3662  0.0175
 4328TIP3    H134475   2.191   4.702  13.560 -1.7449 -1.3529 -1.2418
 4328TIP3    H234476   2.132   4.808  13.470  0.6928  1.9741  0.8177
 4329TIP3   OH234477   3.066   0.559  16.215  0.2169 -0.0332 -0.8758
 4329TIP3    H134478   2.976   0.552  16.247  0.1940 -0.9782 -1.1036
 4329TIP3    H234479   3.077   0.652  16.195 -1.3113 -0.1272 -2.4960
 4330TIP3   OH234480   2.865   3.284  15.966  0.1401  0.0704  0.1485
 4330TIP3    H134481   2.930   3.301  16.034  0.8917 -1.8148 -0.0309
 4330TIP3    H234482   2.822   3.368  15.952  0.5573  0.7097  2.3384
 4331TIP3   OH234483   0.796   0.524   2.972 -0.1208  0.0682 -0.2263
 4331TIP3    H134484   0.825   0.610   2.941  1.7989 -0.2148  0.6732
 4331TIP3    H234485   0.857   0.462   2.933 -0.7691 -0.7729  0.0768
 4332TIP3   OH234486   4.438   0.653  12.887  0.6950  0.1399  0.0147
 4332TIP3    H134487   4.364   0.595  12.905 -0.3113  1.3352 -0.1688
 4332TIP3    H234488   4.414   0.698  12.806  0.8587  1.7299  0.8143
 4333TIP3   OH234489   3.893   3.403   1.193 -0.1336 -0.0769 -0.8590
 4333TIP3    H134490   3.805   3.386   1.162 -1.1521 -0.4171  1.9055
 4333TIP3    H234491   3.914   3.328   1.249  1.1015  0.9276  0.1017
 4334TIP3   OH234492   5.493   2.843   5.188  0.0208 -0.2078 -0.0770
 4334TIP3    H134493   5.468   2.751   5.185 -1.0039 -0.0013  1.0533
 4334TIP3    H234494   5.589   2.842   5.190  0.0536 -1.1847 -1.1021
 4335TIP3   OH234495   1.905   3.271   2.693  0.1341  0.0316  0.2670
 4335TIP3    H134496   1.922   3.286   2.601  0.9042  1.6125  0.6364
 4335TIP3    H234497   1.942   3.347   2.738 -0.4429 -0.5683  1.8604
 4336TIP3   OH234498   5.878   5.425  15.465  0.3141  0.4844 -0.4944
 4336TIP3    H134499   5.788   5.455  15.473  0.9091  2.1981  0.4059
 4336TIP3    H234500   5.882   5.383  15.380 -1.5304 -0.4271 -0.1863
 4337TIP3   OH234501   0.011   2.183  15.407 -0.3746 -0.5103  0.0216
 4337TIP3    H134502   0.079   2.198  15.341 -1.3688  1.7822 -0.5787
 4337TIP3    H234503  -0.000   2.268  15.450 -1.2639 -1.4267  1.7037
 4338TIP3   OH234504   6.541   3.896  14.619  0.3237  0.1955 -0.0735
 4338TIP3    H134505   6.552   3.890  14.524 -3.0652  0.5678 -0.6371
 4338TIP3    H234506   6.587   3.820  14.654 -1.1222 -1.9001 -2.3877
 4339TIP3   OH234507   4.041   1.327   0.665 -0.6891  0.0677 -0.3748
 4339TIP3    H134508   4.101   1.277   0.611 -1.4703 -1.1786 -0.1205
 4339TIP3    H234509   4.088   1.339   0.748  0.0126  0.9110 -0.8763
 4340TIP3   OH234510   6.524   4.902  14.227 -0.0560  0.5865  0.1477
 4340TIP3    H134511   6.521   4.926  14.134 -1.2495  1.3859  0.3639
 4340TIP3    H234512   6.582   4.968  14.267 -0.4508  0.9385  0.1484
 4341TIP3   OH234513   2.287   6.413  15.654 -0.2043 -0.1815 -0.0115
 4341TIP3    H134514   2.355   6.453  15.709  0.0120 -0.5717  0.0101
 4341TIP3    H234515   2.250   6.344  15.709 -1.9312  1.2286  0.7045
 4342TIP3   OH234516   3.227   2.664   2.814 -0.0110  0.2640 -0.5656
 4342TIP3    H134517   3.292   2.687   2.747  0.3982  0.7094 -0.0293
 4342TIP3    H234518   3.230   2.568   2.818  1.3165  0.3046  0.1058
 4343TIP3   OH234519   3.865   6.671  15.806  0.4001  0.3151  0.2471
 4343TIP3    H134520   3.817   6.753  15.814 -1.2799 -0.6094  0.0529
 4343TIP3    H234521   3.800   6.603  15.825  1.9085 -0.9611  1.0740
 4344TIP3   OH234522   3.216   3.948  15.390  0.3399 -0.5372 -0.4354
 4344TIP3    H134523   3.127   3.984  15.390  0.8758  0.8919 -1.4775
 4344TIP3    H234524   3.217   3.888  15.315  0.4123 -0.0692 -0.8188
 4345TIP3   OH234525   1.578   3.816   6.826 -0.2311 -0.4152 -0.2754
 4345TIP3    H134526   1.670   3.841   6.832 -0.8209  1.8704  0.0861
 4345TIP3    H234527   1.537   3.887   6.777 -2.2723 -0.0294  1.8411
 4346TIP3   OH234528   2.487   4.164   4.315  0.6553 -0.2396  0.2526
 4346TIP3    H134529   2.539   4.110   4.257 -1.2593 -0.0989 -1.7106
 4346TIP3    H234530   2.549   4.228   4.351  2.3768 -1.9218  0.4137
 4347TIP3   OH234531   3.798   0.093   4.987 -0.1686 -0.5762  0.8083
 4347TIP3    H134532   3.851   0.136   5.054  0.8479 -2.5157  1.3353
 4347TIP3    H234533   3.810  -0.000   5.004 -2.3440 -1.0950 -0.2037
 4348TIP3   OH234534   3.892   3.916   5.423 -0.1538  0.4735  0.1250
 4348TIP3    H134535   3.804   3.895   5.392 -1.2962  3.2267  1.2177
 4348TIP3    H234536   3.900   3.869   5.506 -1.0466  1.0063  0.5344
 4349TIP3   OH234537   3.875   2.181   6.056  0.4818 -0.2107 -0.2768
 4349TIP3    H134538   3.912   2.267   6.034 -1.5891  0.5367 -1.0625
 4349TIP3    H234539   3.826   2.155   5.978  1.2043 -2.2316 -0.1225
 4350TIP3   OH234540   3.128   1.186   0.741  0.3300  0.1624 -0.2996
 4350TIP3    H134541   3.210   1.217   0.702  1.3284  2.2220  3.0327
 4350TIP3    H234542   3.086   1.266   0.774 -1.9732 -1.1064  0.0657
 4351TIP3   OH234543   6.106   3.032  14.697  0.1440 -0.7114 -0.0703
 4351TIP3    H134544   6.200   3.025  14.678 -0.0693 -1.3337 -0.9559
 4351TIP3    H234545   6.074   2.942  14.693 -0.6872 -0.3983 -0.8606
 4352TIP3   OH234546   6.027   5.757   6.066  0.2795 -0.0636 -0.2202
 4352TIP3    H134547   6.089   5.827   6.049  2.2518 -1.9782 -1.4687
 4352TIP3    H234548   6.035   5.698   5.990 -1.5915 -1.4429  0.5476
 4353TIP3   OH234549   1.983   3.784   4.837  0.4823  0.5989  0.0330
 4353TIP3    H134550   1.930   3.790   4.917  0.6328 -0.0004  0.1821
 4353TIP3    H234551   1.920   3.769   4.767  0.2971  1.6660 -0.0479
 4354TIP3   OH234552   3.993   0.390  11.540  0.0421  0.0391  0.1904
 4354TIP3    H134553   4.027   0.434  11.463  0.2460  0.3178  0.4385
 4354TIP3    H234554   3.978   0.300  11.512  1.7287 -0.2995  0.2866
 4355TIP3   OH234555   4.450   6.060  12.877  0.4529  0.2655  0.0076
 4355TIP3    H134556   4.507   6.137  12.873 -0.3351  0.8329 -0.4769
 4355TIP3    H234557   4.472   6.018  12.960  1.0187  0.9137  0.1898
 4356TIP3   OH234558   0.735   0.059   3.978 -0.1081  0.1494  0.4005
 4356TIP3    H134559   0.818   0.055   4.027  1.2600 -1.8461 -1.8561
 4356TIP3    H234560   0.689  -0.022   4.001  0.9641 -1.2910 -2.0391
 4357TIP3   OH234561   4.892   2.652   3.711  0.2552 -0.0767 -0.0007
 4357TIP3    H134562   4.970   2.699   3.683  0.1250  0.2966  0.2553
 4357TIP3    H234563   4.922   2.595   3.781  0.4907 -0.6757 -0.5759
 4358TIP3   OH234564   1.437   3.924  16.001 -0.0299 -0.3061  0.6360
 4358TIP3    H134565   1.417   3.835  15.973 -0.1783 -0.0434 -0.1311
 4358TIP3    H234566   1.353   3.961  16.026  0.1927 -0.7484  2.0843
 4359TIP3   OH234567   6.191   5.760   1.623 -0.0386 -0.4308 -0.5489
 4359TIP3    H134568   6.237   5.770   1.707 -0.4604 -0.5954 -0.2937
 4359TIP3    H234569   6.256   5.722   1.565  0.3322 -0.0898 -0.3627
 4360TIP3   OH234570   1.684   2.324  14.826  0.5393 -0.1560  0.1689
 4360TIP3    H134571   1.623   2.395  14.845  0.6226 -0.5539  2.2246
 4360TIP3    H234572   1.629   2.246  14.820  0.7081 -0.3211  0.7118
 4361TIP3   OH234573   3.737   3.795  13.001  0.5571  0.4061  0.6236
 4361TIP3    H134574   3.737   3.814  12.908  3.4000  0.3630  0.5156
 4361TIP3    H234575   3.820   3.751  13.017 -0.1821 -0.3047  3.0666
 4362TIP3   OH234576   2.277   3.328  13.329 -0.1001 -0.7218 -0.2765
 4362TIP3    H134577   2.221   3.382  13.273  0.3618 -1.9498 -2.0015
 4362TIP3    H234578   2.320   3.391  13.387 -1.8840  0.4255 -0.1257
 4363TIP3   OH234579   4.218   4.984   2.145  0.0446  0.2117  0.0305
 4363TIP3    H134580   4.203   4.915   2.209  1.1986 -1.5901 -1.5420
 4363TIP3    H234581   4.165   4.959   2.069 -0.4507  1.7166 -0.1654
 4364TIP3   OH234582   5.427   2.265  17.376 -0.2420 -0.7982 -0.1898
 4364TIP3    H134583   5.455   2.202  17.442 -1.0277 -0.9247  0.0288
 4364TIP3    H234584   5.359   2.220  17.326  0.8496 -0.9592 -1.5695
 4365TIP3   OH234585   1.326   3.022  16.601  0.2279 -0.2818  0.3218
 4365TIP3    H134586   1.399   3.072  16.638  0.7370  0.1904 -1.2474
 4365TIP3    H234587   1.298   2.964  16.672  1.8347 -0.1560  1.0929
 4366TIP3   OH234588   0.806   0.346   1.369 -0.0688 -0.5127 -0.0992
 4366TIP3    H134589   0.793   0.287   1.444  1.0000  0.0686  0.5600
 4366TIP3    H234590   0.816   0.287   1.294 -1.0893 -1.1019  0.2088
 4367TIP3   OH234591   0.332   2.440  17.428  0.0156 -0.7581 -0.3323
 4367TIP3    H134592   0.237   2.441  17.419 -0.4032 -0.7827  3.0498
 4367TIP3    H234593   0.356   2.529  17.452  0.5900 -1.1356  0.5747
 4368TIP3   OH234594   4.112   1.911   0.677  0.2424 -0.3599 -0.2310
 4368TIP3    H134595   4.182   1.944   0.620 -1.6862  1.1239 -1.9050
 4368TIP3    H234596   4.102   1.819   0.653  2.0949 -0.8198  0.6051
 4369TIP3   OH234597   0.697   1.954  14.123  0.1304  0.0702 -0.0366
 4369TIP3    H134598   0.686   1.895  14.198  1.8017 -0.0959  0.1180
 4369TIP3    H234599   0.639   2.028  14.143 -0.6207 -0.6747  0.6541
 4370TIP3   OH234600   0.547   2.437  11.349  0.6140  0.0957 -0.1511
 4370TIP3    H134601   0.585   2.354  11.321  0.9573  0.4935 -0.8982
 4370TIP3    H234602   0.579   2.501  11.285 -2.0317  0.3315 -1.3713
 4371TIP3   OH234603   1.144   1.509   4.401  0.1422 -0.1403 -0.7700
 4371TIP3    H134604   1.233   1.485   4.373 -0.3442  0.7003 -3.2809
 4371TIP3    H234605   1.115   1.435   4.455  2.5914 -0.1198  0.7521
 4372TIP3   OH234606   6.112   4.113  14.105 -0.4407  0.1272 -0.2676
 4372TIP3    H134607   6.123   4.189  14.049 -0.4043  0.9489  0.8121
 4372TIP3    H234608   6.017   4.108  14.121 -0.5573 -0.6477 -1.1040
 4373TIP3   OH234609   4.804   1.475   3.295 -0.3497 -0.3320 -0.1074
 4373TIP3    H134610   4.756   1.449   3.373 -0.1341  1.2750  0.5939
 4373TIP3    H234611   4.787   1.405   3.232 -2.6017 -0.4080  0.5183
 4374TIP3   OH234612   3.272   2.894  11.957  0.1195 -0.3529 -0.0541
 4374TIP3    H134613   3.290   2.906  11.864  0.7864  2.5957  0.3356
 4374TIP3    H234614   3.179   2.872  11.961 -0.0422  0.0114 -1.4164
 4375TIP3   OH234615   0.832   6.683   5.656 -0.0794  0.3701  0.2078
 4375TIP3    H134616   0.875   6.597   5.652  1.1369  0.8753  1.7616
 4375TIP3    H234617   0.782   6.681   5.738 -0.1471  1.1077  0.1859
 4376TIP3   OH234618   4.522   6.685  11.831  0.8240 -0.3028  0.4027
 4376TIP3    H134619   4.551   6.683  11.740  0.9575  0.9432  0.3956
 4376TIP3    H234620   4.433   6.649  11.829  0.4960  0.4945 -0.3763
 4377TIP3   OH234621   2.616   5.055   3.129 -0.2904 -0.0864  0.0696
 4377TIP3    H134622   2.685   5.118   3.109  0.3950  0.2723  3.0581
 4377TIP3    H234623   2.561   5.100   3.193 -1.2717 -1.6393  0.3521
 4378TIP3   OH234624   5.799   0.751  16.222 -0.3000 -0.0763 -0.7606
 4378TIP3    H134625   5.894   0.765  16.222 -0.0217 -1.7104  0.1449
 4378TIP3    H234626   5.763   0.832  16.186  1.3205  1.4215  0.7875
 4379TIP3   OH234627   3.509   0.857  17.329 -0.3161  0.0367 -0.2165
 4379TIP3    H134628   3.603   0.842  17.328 -0.1648  0.8232  0.6664
 4379TIP3    H234629   3.486   0.857  17.422 -0.9021  1.5361 -0.3357
 4380TIP3   OH234630   0.784   0.172   4.660  0.2908  0.4493 -0.4445
 4380TIP3    H134631   0.768   0.129   4.576  0.9274 -0.9049  0.0986
 4380TIP3    H234632   0.815   0.102   4.717 -0.7811  1.2017  1.1293
 4381TIP3   OH234633   0.401   6.043   4.308 -0.2062 -0.2006 -0.2174
 4381TIP3    H134634   0.328   5.980   4.315  0.1587 -0.5203  0.8153
 4381TIP3    H234635   0.379   6.095   4.231 -1.1532 -0.7853 -0.3674
 4382TIP3   OH234636   3.338   2.684   1.617  0.4491  0.8757 -0.6417
 4382TIP3    H134637   3.400   2.668   1.689  1.3482  1.7679 -1.1869
 4382TIP3    H234638   3.352   2.611   1.557  1.0029  1.0763 -0.7676
 4383TIP3   OH234639   0.318   3.857  13.202  0.2482 -0.5563  0.1036
 4383TIP3    H134640   0.228   3.887  13.218  0.2235 -1.2650  1.4357
 4383TIP3    H234641   0.316   3.824  13.113 -0.9401 -0.9300  0.2391
 4384TIP3   OH234642   4.781   1.813   2.266 -0.0502  0.1086  0.0875
 4384TIP3    H134643   4.768   1.820   2.361 -0.0836 -0.0775  0.0965
 4384TIP3    H234644   4.876   1.818   2.255  0.1181 -1.8293  0.3022
 4385TIP3   OH234645   0.066   1.818   1.402 -0.1273  0.0114  0.1919
 4385TIP3    H134646   0.063   1.910   1.377 -1.3495  0.0002  0.2603
 4385TIP3    H234647   0.033   1.816   1.492  1.9863 -0.2448  1.0287
 4386TIP3   OH234648   3.985   3.300  11.428  0.2337  0.1662 -0.0379
 4386TIP3    H134649   3.944   3.214  11.438 -0.6252  0.1498 -2.8825
 4386TIP3    H234650   3.996   3.311  11.334 -1.8818  4.1262 -0.0525
 4387TIP3   OH234651   2.689   2.640   4.673  0.4180 -0.4382 -0.8700
 4387TIP3    H134652   2.650   2.596   4.748 -2.3262 -0.1133 -1.9707
 4387TIP3    H234653   2.702   2.570   4.608  3.2922 -0.8199 -0.0406
 4388TIP3   OH234654   2.355   1.577   5.509  0.1974  0.2979  0.0789
 4388TIP3    H134655   2.353   1.483   5.523 -0.6437  0.4741  1.2751
 4388TIP3    H234656   2.388   1.613   5.592 -0.7237  1.1288  0.0959
 4389TIP3   OH234657   4.670   1.655  12.073  0.8892  0.1393  0.5964
 4389TIP3    H134658   4.623   1.696  12.146 -0.7734  1.3826 -1.1009
 4389TIP3    H234659   4.640   1.564  12.075 -0.1194  0.4640  0.7075
 4390TIP3   OH234660   2.256   3.484   3.394  0.2751  0.4276  0.0676
 4390TIP3    H134661   2.161   3.487   3.403  0.1642  2.1879 -1.3675
 4390TIP3    H234662   2.277   3.545   3.324  2.4037 -0.6661 -0.3615
 4391TIP3   OH234663   4.944   2.633   3.043  0.0416  0.1495  0.0309
 4391TIP3    H134664   4.924   2.570   3.113  0.1694  0.7666  0.6444
 4391TIP3    H234665   4.899   2.599   2.966 -3.7621  1.5965  1.3879
 4392TIP3   OH234666   0.042   4.121   4.558 -0.0296  0.2076 -0.4814
 4392TIP3    H134667  -0.034   4.172   4.584  0.1033 -0.7483  2.0665
 4392TIP3    H234668   0.027   4.100   4.466 -1.4286  2.3970 -0.8271
 4393TIP3   OH234669   6.486   1.649   5.720  0.5184 -0.1058  0.0987
 4393TIP3    H134670   6.502   1.661   5.814  1.3780 -1.5444  0.1648
 4393TIP3    H234671   6.410   1.590   5.717 -1.4460  2.2657 -0.1831
 4394TIP3   OH234672   1.212   2.034   5.143 -0.5232  0.4246  0.1132
 4394TIP3    H134673   1.224   1.954   5.092  1.6404  1.2176 -0.7354
 4394TIP3    H234674   1.146   2.084   5.094 -3.5468 -1.6495  1.7925
 4395TIP3   OH234675   1.125   2.498  14.240 -0.2303 -0.4177  0.3260
 4395TIP3    H134676   1.162   2.550  14.168 -0.5931  0.3174  0.6637
 4395TIP3    H234677   1.038   2.473  14.209 -0.3959 -0.0803  0.5179
 4396TIP3   OH234678   5.335   0.693  12.875  0.0138 -0.1358 -0.2476
 4396TIP3    H134679   5.391   0.760  12.913  1.9089 -1.4641 -0.5795
 4396TIP3    H234680   5.367   0.683  12.785 -1.1349 -0.5554 -0.6335
 4397TIP3   OH234681   5.774   1.598  13.560 -0.3181 -0.9038 -0.5213
 4397TIP3    H134682   5.681   1.583  13.545 -0.2541 -1.0676 -0.7474
 4397TIP3    H234683   5.800   1.527  13.620 -0.9258  0.6297  1.6963
 4398TIP3   OH234684   5.007   2.528   4.328 -0.8530  0.3326 -0.4766
 4398TIP3    H134685   5.017   2.588   4.402 -0.8381  1.0802 -1.0770
 4398TIP3    H234686   4.957   2.454   4.363  1.7158 -0.7980  1.1103
 4399TIP3   OH234687   1.493   3.597   0.867  0.4273  0.2244  0.0015
 4399TIP3    H134688   1.448   3.649   0.934 -0.4526  0.8188 -1.0066
 4399TIP3    H234689   1.585   3.598   0.893  0.0705  0.2738  1.2989
 4400TIP3   OH234690   4.542   2.536   3.810 -0.5158 -0.2128  0.5784
 4400TIP3    H134691   4.631   2.543   3.846  0.6958  2.5775 -2.4799
 4400TIP3    H234692   4.485   2.562   3.882  1.1963 -0.7918  2.2359
 4401TIP3   OH234693   4.238   1.466  13.505  0.1308 -0.3648 -0.8876
 4401TIP3    H134694   4.240   1.536  13.440  2.1644 -1.3324 -1.9411
 4401TIP3    H234695   4.314   1.412  13.486  1.1179 -0.4628  2.5784
 4402TIP3   OH234696   3.499   5.166   2.901 -0.0708  0.6062 -0.3870
 4402TIP3    H134697   3.457   5.093   2.857 -2.0194  2.7179 -2.3332
 4402TIP3    H234698   3.473   5.157   2.993 -0.9107 -0.7345 -0.7289
 4403TIP3   OH234699   0.042   0.879   0.542  0.2273  0.1900 -0.1820
 4403TIP3    H134700   0.072   0.810   0.483 -0.5257  0.1785 -0.5591
 4403TIP3    H234701   0.078   0.855   0.627 -1.9432 -1.9946  0.2318
 4404TIP3   OH234702   1.268   4.195  15.852 -0.0025 -0.7672  0.1776
 4404TIP3    H134703   1.267   4.262  15.784 -1.6226 -1.5290 -0.5912
 4404TIP3    H234704   1.303   4.240  15.929  0.9039  0.3793 -0.8642
 4405TIP3   OH234705   0.911   6.322   1.253 -0.3298 -0.3009 -0.2885
 4405TIP3    H134706   0.905   6.256   1.184  0.7167  0.3848 -1.0555
 4405TIP3    H234707   1.005   6.335   1.265 -0.5123  0.1270  0.7581
 4406TIP3   OH234708   0.576   1.653  14.807 -0.0504  0.1381 -0.2528
 4406TIP3    H134709   0.615   1.729  14.850 -0.3853  1.5443 -2.2915
 4406TIP3    H234710   0.516   1.690  14.742  0.2252 -1.8425 -1.7402
 4407TIP3   OH234711   5.682   4.712   1.944 -0.2428  0.0543  0.1314
 4407TIP3    H134712   5.748   4.676   1.885 -0.6716  0.9338 -0.9180
 4407TIP3    H234713   5.655   4.638   1.998  0.9075 -0.5327 -0.0715
 4408TIP3   OH234714   6.612   0.393   5.150 -0.4326 -0.1147 -0.1605
 4408TIP3    H134715   6.678   0.408   5.218  0.4201 -0.6195 -0.8499
 4408TIP3    H234716   6.662   0.354   5.078 -1.4115 -0.0453 -0.8794
 4409TIP3   OH234717   4.900   6.507   5.257  0.1990 -0.3503  0.4037
 4409TIP3    H134718   4.834   6.556   5.307  0.8722  0.0447  0.9166
 4409TIP3    H234719   4.849   6.461   5.190 -0.4708  0.9893 -0.0447
 4410TIP3   OH234720   5.956   5.604  13.054  0.3354  0.1086 -0.3392
 4410TIP3    H134721   5.938   5.632  13.144  1.0280 -1.2199  0.2239
 4410TIP3    H234722   5.933   5.512  13.052  1.6008 -0.2141 -1.1573
 4411TIP3   OH234723   5.657   5.478   3.527 -0.8732 -0.2605  0.2089
 4411TIP3    H134724   5.720   5.496   3.457  0.0618 -0.7806  0.8986
 4411TIP3    H234725   5.666   5.552   3.587 -2.0128  0.4275 -0.4247
 4412TIP3   OH234726   1.720   4.838  12.270 -0.0804 -0.3045  0.6298
 4412TIP3    H134727   1.633   4.826  12.231 -0.4307 -2.1942  1.8467
 4412TIP3    H234728   1.770   4.886  12.204 -1.6798 -0.2558 -0.6104
 4413TIP3   OH234729   4.697   5.130  14.090 -0.6574  0.1219 -0.3397
 4413TIP3    H134730   4.673   5.201  14.030 -2.0123 -0.8305 -0.9683
 4413TIP3    H234731   4.791   5.141  14.103 -0.3666  0.5453 -2.4254
 4414TIP3   OH234732   2.586   3.096  14.065 -0.0964  0.0973  0.1836
 4414TIP3    H134733   2.587   3.018  14.009 -0.4265  0.3999 -0.2503
 4414TIP3    H234734   2.494   3.103  14.094  0.1209 -0.2057  0.9780
 4415TIP3   OH234735   0.983   6.129  14.441 -0.1607  0.1140  0.1665
 4415TIP3    H134736   1.029   6.062  14.493 -0.1682  1.3332  1.8337
 4415TIP3    H234737   0.899   6.090  14.420  0.0150 -0.5765  0.7046
 4416TIP3   OH234738   5.228   5.192  14.944 -1.0261 -0.0954 -0.4077
 4416TIP3    H134739   5.197   5.133  15.012 -2.2100  2.1705  1.1063
 4416TIP3    H234740   5.196   5.278  14.969  0.1411  1.1550 -2.8330
 4417TIP3   OH234741   0.432   5.085  13.781 -0.3871  0.4254  0.1740
 4417TIP3    H134742   0.438   5.111  13.690 -1.8513 -0.9487 -0.3689
 4417TIP3    H234743   0.486   5.148  13.828 -1.1196  2.3371 -1.4057
 4418TIP3   OH234744   1.496   1.692  17.003  0.0308 -0.2084 -0.2765
 4418TIP3    H134745   1.574   1.686  16.947  1.2381  2.6861  0.8854
 4418TIP3    H234746   1.437   1.751  16.956 -0.7981 -1.1059 -0.3941
 4419TIP3   OH234747   2.828   1.733   3.086 -0.4386 -0.7629  0.1483
 4419TIP3    H134748   2.854   1.717   2.995  0.9378  0.2111  0.3358
 4419TIP3    H234749   2.815   1.646   3.123  3.1662 -1.4486  0.1552
 4420TIP3   OH234750   3.380   5.663  15.109 -0.0118  0.0754  0.2313
 4420TIP3    H134751   3.389   5.687  15.017  2.6721 -0.4964  0.2723
 4420TIP3    H234752   3.300   5.709  15.137 -0.6253  0.6776 -2.2076
 4421TIP3   OH234753   2.533   4.743  16.082  0.1960  0.4675 -0.4500
 4421TIP3    H134754   2.619   4.704  16.101  0.4160  1.2424  0.2175
 4421TIP3    H234755   2.495   4.759  16.168 -0.7778 -0.1845 -0.7462
 4422TIP3   OH234756   6.202   2.310  16.638  0.5199 -0.5731 -0.1411
 4422TIP3    H134757   6.288   2.328  16.599  0.9370 -1.5584  0.3047
 4422TIP3    H234758   6.157   2.394  16.635  2.3504  0.5803  1.7417
 4423TIP3   OH234759   1.610   4.450  11.156 -0.0454  0.5528  0.2563
 4423TIP3    H134760   1.612   4.409  11.242 -0.7709  0.8149  0.4067
 4423TIP3    H234761   1.693   4.426  11.115  0.9814  1.6615  1.5952
 4424TIP3   OH234762   2.603   5.067  10.834 -0.2572 -0.3407  0.2282
 4424TIP3    H134763   2.641   4.995  10.884  2.0790  0.5919 -0.0488
 4424TIP3    H234764   2.658   5.073  10.755 -0.7148  1.3723 -0.0121
 4425TIP3   OH234765   2.072   0.802   1.027 -0.1279  0.4580 -0.1093
 4425TIP3    H134766   2.035   0.826   1.112 -0.7328  2.1478 -0.8073
 4425TIP3    H234767   2.084   0.707   1.032 -1.3338  0.3473  1.4038
 4426TIP3   OH234768   6.136   5.755  11.999  0.3389  0.0084  0.9491
 4426TIP3    H134769   6.181   5.732  11.918  1.0226 -0.4795  1.4566
 4426TIP3    H234770   6.198   5.810  12.046 -0.1134  0.4133  1.0837
 4427TIP3   OH234771   1.849   6.242   1.072  0.4485 -0.1445  0.4077
 4427TIP3    H134772   1.924   6.183   1.061  1.0747  0.8862 -1.3789
 4427TIP3    H234773   1.785   6.211   1.008 -0.1977 -0.3370  1.1432
 4428TIP3   OH234774   6.532   3.237   0.418 -0.1766 -0.0507 -0.0189
 4428TIP3    H134775   6.474   3.308   0.392  0.6579  1.0533  1.0523
 4428TIP3    H234776   6.532   3.178   0.342 -1.9973  0.3378 -0.3697
 4429TIP3   OH234777   4.024   3.144   0.276  0.1386 -0.0228  0.0607
 4429TIP3    H134778   3.986   3.160   0.190  0.6989  0.1307 -0.1651
 4429TIP3    H234779   3.965   3.187   0.337  0.4671  1.0720 -0.3662
 4430TIP3   OH234780   3.392   1.117  14.088  0.3685 -0.9021 -0.0322
 4430TIP3    H134781   3.451   1.179  14.131 -0.5589  0.7224 -1.0075
 4430TIP3    H234782   3.323   1.100  14.153 -2.3159  3.3286 -1.3172
 4431TIP3   OH234783   2.088   1.960  15.877  0.4645 -0.3990 -0.9757
 4431TIP3    H134784   2.023   1.889  15.880  1.5698 -1.5969 -3.0628
 4431TIP3    H234785   2.163   1.926  15.927  0.0049  0.4593  0.3422
 4432TIP3   OH234786   5.107   3.239   3.711  0.4990 -0.0251  0.1465
 4432TIP3    H134787   5.138   3.153   3.680 -1.9845 -1.0971  0.3754
 4432TIP3    H234788   5.023   3.220   3.753 -0.5341  2.6451 -0.5275
 4433TIP3   OH234789   1.919   2.115   1.704 -0.3227 -0.3049  0.2552
 4433TIP3    H134790   1.898   2.028   1.672  1.8729 -0.6680 -0.3758
 4433TIP3    H234791   2.013   2.124   1.688 -0.0459  1.2975  2.3984
 4434TIP3   OH234792   5.911   3.435   2.494 -0.5477  0.4120  0.2248
 4434TIP3    H134793   5.906   3.482   2.578  1.3907 -1.5769  1.5500
 4434TIP3    H234794   5.917   3.343   2.518 -1.2472 -0.3472 -2.2008
 4435TIP3   OH234795   4.525   0.481  14.955  0.0153  0.4791  0.0729
 4435TIP3    H134796   4.537   0.523  14.869 -2.0636  1.4328  0.1733
 4435TIP3    H234797   4.516   0.555  15.016 -0.6011 -0.1560  0.7639
 4436TIP3   OH234798   4.721   1.862  11.891  0.0316 -0.1507  0.7186
 4436TIP3    H134799   4.816   1.874  11.882  0.1468 -1.5563 -0.0745
 4436TIP3    H234800   4.711   1.808  11.969 -0.0449 -0.9756  0.1412
 4437TIP3   OH234801   6.528   0.726  11.852  0.0527 -0.2667 -0.3782
 4437TIP3    H134802   6.508   0.644  11.808  1.0546 -0.5532 -0.3073
 4437TIP3    H234803   6.582   0.701  11.927 -0.7386  0.3270  0.4271
 4438TIP3   OH234804   2.039   0.322   1.887 -0.3208 -0.4933  0.0439
 4438TIP3    H134805   2.058   0.299   1.978  0.5166  1.6832  0.4743
 4438TIP3    H234806   1.951   0.359   1.890  0.4437  1.4712  0.4210
 4439TIP3   OH234807   1.230   5.712  16.976 -0.0429  0.1731 -0.2850
 4439TIP3    H134808   1.301   5.649  16.990 -0.4897 -0.2405  0.1659
 4439TIP3    H234809   1.162   5.685  17.038 -0.7130  0.3933 -0.9218
 4440TIP3   OH234810   3.175   6.758  10.862 -0.4839 -0.1862  0.0373
 4440TIP3    H134811   3.100   6.764  10.921 -1.6387  0.5445 -1.4286
 4440TIP3    H234812   3.221   6.842  10.873 -1.0751  0.2287 -0.5385
 4441TIP3   OH234813   2.127   4.568  11.608 -0.2731 -0.2331  0.3783
 4441TIP3    H134814   2.181   4.562  11.529 -0.1364 -0.6450  0.5001
 4441TIP3    H234815   2.051   4.511  11.590 -0.9497  0.7726 -0.0107
 4442TIP3   OH234816   0.813   5.160   4.016 -0.2373  0.4328 -0.5981
 4442TIP3    H134817   0.749   5.208   4.069  0.0733  0.9698 -0.7021
 4442TIP3    H234818   0.870   5.228   3.981 -0.0673  0.0202 -1.1207
 4443TIP3   OH234819   4.286   3.454  10.992 -0.4624 -0.0584 -0.1915
 4443TIP3    H134820   4.288   3.364  10.960  0.7972  0.4131 -1.5302
 4443TIP3    H234821   4.377   3.483  10.991 -0.8206  1.1745  0.4152
 4444TIP3   OH234822   4.567   2.026   4.454  0.1428 -0.2089  0.0545
 4444TIP3    H134823   4.477   2.049   4.478  0.7377  1.1850  1.1521
 4444TIP3    H234824   4.563   2.007   4.361 -1.2107  0.2574 -0.0115
 4445TIP3   OH234825   4.138   6.586  14.942 -0.2749  0.1766 -0.2882
 4445TIP3    H134826   4.121   6.630  15.025 -1.5192  0.3364 -0.5927
 4445TIP3    H234827   4.069   6.619  14.884  0.3247 -0.2404 -1.2608
 4446TIP3   OH234828   5.763   2.951   3.894  0.1259  0.2600 -0.1477
 4446TIP3    H134829   5.669   2.953   3.872  0.1453  0.7312 -0.1951
 4446TIP3    H234830   5.767   2.984   3.983  0.3730  1.5117 -0.6052
 4447TIP3   OH234831   4.749   5.378  13.948 -0.6675 -0.1918 -0.3777
 4447TIP3    H134832   4.827   5.423  13.978 -1.1808 -0.4180  1.4381
 4447TIP3    H234833   4.780   5.315  13.883  0.3825  0.9949 -1.0584
 4448TIP3   OH234834   1.539   4.247   3.788 -0.0637  0.0970 -0.2231
 4448TIP3    H134835   1.551   4.171   3.731  0.3987 -0.4804  0.6213
 4448TIP3    H234836   1.590   4.227   3.866  1.9016  2.2233 -0.8222
 4449TIP3   OH234837   4.649   6.289   5.291  0.0576 -0.2824  0.1309
 4449TIP3    H134838   4.574   6.231   5.281  0.7516 -0.9224 -1.8585
 4449TIP3    H234839   4.612   6.373   5.318 -1.4967 -0.2953 -1.7691
 4450TIP3   OH234840   1.033   2.521  17.072 -0.5928  0.4157 -0.1350
 4450TIP3    H134841   1.039   2.609  17.110 -1.7220  0.9553 -1.1328
 4450TIP3    H234842   1.098   2.470  17.120  1.3655  2.2132 -0.7156
 4451TIP3   OH234843   5.204   3.656   5.450 -0.0336  0.2447 -0.0354
 4451TIP3    H134844   5.234   3.676   5.361  0.2064 -1.0018 -0.2619
 4451TIP3    H234845   5.253   3.716   5.506  1.9679 -0.8630 -0.5108
 4452TIP3   OH234846   2.677   3.068   5.389 -0.3584  0.0264 -0.4749
 4452TIP3    H134847   2.706   3.159   5.385  1.5627 -0.5048  0.0393
 4452TIP3    H234848   2.650   3.055   5.479  0.6558 -0.2410 -0.1947
 4453TIP3   OH234849   4.917   5.677  14.103  0.0339 -0.0067  0.2141
 4453TIP3    H134850   4.886   5.633  14.182  1.4480 -1.1890  0.1267
 4453TIP3    H234851   4.976   5.615  14.061  3.4348  2.4618  0.9169
 4454TIP3   OH234852   5.224   0.181  17.259  0.1566 -0.4524  0.2723
 4454TIP3    H134853   5.315   0.156  17.275  0.7132 -0.6920 -2.7417
 4454TIP3    H234854   5.218   0.270  17.293  0.7574 -1.2601  2.7183
 4455TIP3   OH234855   6.617   3.981  12.140 -0.2455  0.1257  0.4213
 4455TIP3    H134856   6.671   4.051  12.177 -3.2596  2.6314  0.4680
 4455TIP3    H234857   6.588   3.930  12.215 -0.8324  0.9958  0.7950
 4456TIP3   OH234858   5.660   4.684  16.090 -0.3433  0.0775 -0.1060
 4456TIP3    H134859   5.690   4.775  16.088 -1.6035  0.5068 -1.9713
 4456TIP3    H234860   5.697   4.649  16.171 -0.3124  2.3910  0.9703
 4457TIP3   OH234861   2.346   5.567   1.472 -0.5128 -0.2206 -0.4362
 4457TIP3    H134862   2.367   5.478   1.501  0.6271  0.3827  0.6856
 4457TIP3    H234863   2.429   5.601   1.437 -0.4250  1.0397  0.8979
 4458TIP3   OH234864   0.416   4.624  15.564 -0.5547  0.3387 -0.4892
 4458TIP3    H134865   0.493   4.674  15.535 -0.7457 -1.2828 -4.4083
 4458TIP3    H234866   0.451   4.539  15.590 -0.9431 -1.1077 -4.1233
 4459TIP3   OH234867   4.450   4.086   2.362 -0.8693 -0.2829  0.0962
 4459TIP3    H134868   4.466   4.174   2.329  2.1809 -0.3362  1.1703
 4459TIP3    H234869   4.457   4.094   2.457 -2.5280 -1.3853  0.3545
 4460TIP3   OH234870   2.453   1.281   5.127  0.0065  0.0934  0.2697
 4460TIP3    H134871   2.423   1.291   5.036 -1.0452  2.8394  0.8056
 4460TIP3    H234872   2.529   1.339   5.133  0.3897 -0.4766  1.0315
 4461TIP3   OH234873   3.101   4.366  13.700  0.3412 -0.1134 -0.1562
 4461TIP3    H134874   3.042   4.397  13.769  1.4191 -0.1580  0.8051
 4461TIP3    H234875   3.049   4.300  13.654 -0.4397 -0.0127  0.5362
 4462TIP3   OH234876   2.817   1.277  13.759  0.2676  0.2357  0.8038
 4462TIP3    H134877   2.831   1.281  13.853 -1.9151 -0.3601  1.2260
 4462TIP3    H234878   2.821   1.184  13.738 -0.9391  0.1935  0.6580
 4463TIP3   OH234879   1.669   3.055  14.429  0.5348  0.1310 -0.5869
 4463TIP3    H134880   1.656   2.963  14.407  0.5193  0.4477 -1.9365
 4463TIP3    H234881   1.591   3.099  14.397 -0.2156  0.4299  1.4625
 4464TIP3   OH234882   5.284   6.294  11.386 -0.3799  0.1166  0.3413
 4464TIP3    H134883   5.208   6.347  11.412  0.2435  1.5894 -0.7456
 4464TIP3    H234884   5.278   6.289  11.291  1.0036  0.4571  0.2223
 4465TIP3   OH234885   1.804   5.912   0.308 -0.4635 -0.3122  0.6286
 4465TIP3    H134886   1.728   5.911   0.250  0.1731 -1.4769 -0.2451
 4465TIP3    H234887   1.768   5.898   0.395 -1.3606  0.5797  0.4282
 4466TIP3   OH234888   4.611   4.208  16.359  0.3004  0.0396  0.9614
 4466TIP3    H134889   4.589   4.125  16.402 -1.2642  0.9257  1.9719
 4466TIP3    H234890   4.562   4.205  16.277  1.8899 -0.8832 -0.0139
 4467TIP3   OH234891   2.965   3.156  12.228  0.4004  0.1214  0.0201
 4467TIP3    H134892   2.925   3.155  12.315 -0.6046  1.5734 -0.3804
 4467TIP3    H234893   2.896   3.124  12.170  0.7453  0.0580 -0.3545
 4468TIP3   OH234894   0.873   0.462   6.041  0.1045  0.3388  0.5773
 4468TIP3    H134895   0.833   0.549   6.044 -0.4637  0.0562  2.4284
 4468TIP3    H234896   0.885   0.445   5.948 -1.5408  1.6107  0.0708
 4469TIP3   OH234897   0.441   0.458  16.468 -0.3960 -0.5046 -0.0583
 4469TIP3    H134898   0.352   0.494  16.469 -0.4542 -0.6548  0.0757
 4469TIP3    H234899   0.440   0.393  16.398 -0.3371 -0.3661 -0.1878
 4470TIP3   OH234900   4.427   1.392   2.316  0.0159 -0.5234  0.2191
 4470TIP3    H134901   4.356   1.454   2.299  0.0275 -0.5411  0.1005
 4470TIP3    H234902   4.506   1.436   2.287  0.3967  0.4450  2.5746
 4471TIP3   OH234903   4.506   5.170   3.883  0.3505 -0.4308  0.2445
 4471TIP3    H134904   4.531   5.254   3.843  0.9577 -1.2457 -1.1710
 4471TIP3    H234905   4.411   5.176   3.893  0.5401  0.9823  1.5400
 4472TIP3   OH234906   5.099   1.020  17.329  0.4891 -0.1330 -0.2185
 4472TIP3    H134907   5.107   1.054  17.240 -0.6365  0.1567 -0.2270
 4472TIP3    H234908   5.041   0.944  17.320 -3.9165  2.7085  0.8262
 4473TIP3   OH234909   3.506   3.116   3.803  0.5756  0.0021 -0.0519
 4473TIP3    H134910   3.564   3.045   3.777  0.8572  1.2652 -3.4705
 4473TIP3    H234911   3.442   3.121   3.731 -1.8473  0.7436  2.0027
 4474TIP3   OH234912   3.920   5.579  13.583 -0.1161  0.1469 -0.0933
 4474TIP3    H134913   3.950   5.488  13.586 -0.4320  0.0328 -0.2855
 4474TIP3    H234914   3.835   5.574  13.539  1.0788  0.8773 -2.6611
 4475TIP3   OH234915   0.247   0.438  14.833 -0.2496  0.0931 -0.2455
 4475TIP3    H134916   0.315   0.381  14.797 -1.6291 -1.3832 -0.6224
 4475TIP3    H234917   0.177   0.379  14.859 -1.8745  1.6162 -0.9121
 4476TIP3   OH234918   6.535   1.006   5.150  0.2915  0.4324  0.5672
 4476TIP3    H134919   6.440   0.997   5.145  0.2662 -0.0132  1.6234
 4476TIP3    H234920   6.568   0.915   5.151  0.6852  0.5761  0.9431
 4477TIP3   OH234921   5.030   1.271  16.080  0.6007  0.3406 -0.1200
 4477TIP3    H134922   4.951   1.320  16.103  0.7343  0.2797  0.4914
 4477TIP3    H234923   5.003   1.213  16.009 -0.0908 -0.2005  0.5690
 4478TIP3   OH234924   5.382   5.750   1.650  0.0099  0.6580  0.2697
 4478TIP3    H134925   5.305   5.761   1.705 -0.0245 -0.5662  0.5034
 4478TIP3    H234926   5.381   5.825   1.591 -0.5328  1.4304  1.2422
 4479TIP3   OH234927   3.363   2.589  15.917 -0.2783  0.7311 -0.0910
 4479TIP3    H134928   3.393   2.527  15.850  1.0341  0.8789  0.3344
 4479TIP3    H234929   3.371   2.674  15.875 -1.4386  0.6838 -0.4414
 4480TIP3   OH234930   3.199   3.889   0.348 -0.5497 -0.4474  0.3374
 4480TIP3    H134931   3.174   3.904   0.257 -0.1821  0.9600  0.4499
 4480TIP3    H234932   3.263   3.957   0.367 -0.9862 -0.4115  1.8035
 4481TIP3   OH234933   2.447   1.204  17.434 -0.3352 -0.1915 -0.0469
 4481TIP3    H134934   2.461   1.137  17.366  0.6782  0.3921 -0.4373
 4481TIP3    H234935   2.385   1.164  17.495 -0.0280 -1.3417 -0.4685
 4482TIP3   OH234936   4.181   0.318   3.434  0.1034  0.4373  0.1048
 4482TIP3    H134937   4.086   0.313   3.444  0.0826  1.9891  0.9379
 4482TIP3    H234938   4.196   0.296   3.342 -0.9684 -0.5968  0.1474
 4483TIP3   OH234939   4.008   1.737  12.487  0.1811  0.3340 -0.9028
 4483TIP3    H134940   4.030   1.714  12.397  1.4568  0.4773 -0.6506
 4483TIP3    H234941   3.913   1.735  12.490  0.1550 -1.5636 -1.7577
 4484TIP3   OH234942   0.354   1.792  14.641 -0.5174  0.3196  0.3110
 4484TIP3    H134943   0.364   1.793  14.546  1.8421 -1.8316  0.4304
 4484TIP3    H234944   0.275   1.739  14.656  0.5696 -1.6575 -0.4871
 4485TIP3   OH234945   6.567   3.487  16.339  0.3871  0.7294 -0.1535
 4485TIP3    H134946   6.494   3.508  16.281  0.2387 -0.3939 -0.3887
 4485TIP3    H234947   6.645   3.499  16.284  0.2178 -0.9650 -0.8141
 4486TIP3   OH234948   5.738   2.275  14.051 -0.1720  0.7057  0.6284
 4486TIP3    H134949   5.814   2.291  13.994  0.5077  1.2638  1.6738
 4486TIP3    H234950   5.680   2.349  14.033 -0.6772  0.0803 -0.4568
 4487TIP3   OH234951   2.897   5.959   6.405  0.2723 -0.2831  0.6708
 4487TIP3    H134952   2.949   5.997   6.476  1.5862  3.6924 -2.0340
 4487TIP3    H234953   2.809   5.997   6.416  0.9593  1.8949 -0.6732
 4488TIP3   OH234954   6.409   0.925  15.870  1.0357 -0.3844 -0.0873
 4488TIP3    H134955   6.333   0.887  15.916 -0.9299  1.5375 -1.5351
 4488TIP3    H234956   6.417   0.873  15.791  0.4858  0.0973 -0.4674
 4489TIP3   OH234957   3.937   2.587  13.875  0.3918 -0.1609  0.0455
 4489TIP3    H134958   3.870   2.558  13.814 -0.9401  1.8668  0.4270
 4489TIP3    H234959   3.922   2.682  13.883  2.1809  0.0482  1.5031
 4490TIP3   OH234960   4.009   0.668  16.463 -0.2123  0.5011 -0.1210
 4490TIP3    H134961   3.922   0.632  16.447 -0.5593  0.7680  1.0730
 4490TIP3    H234962   3.996   0.731  16.534  1.1012 -0.0844  0.6760
 4491TIP3   OH234963   5.106   0.972  12.555  0.2863  0.2468  0.4846
 4491TIP3    H134964   5.136   0.948  12.643 -0.4470 -1.0433  0.4182
 4491TIP3    H234965   5.015   1.000  12.568  0.5239  1.1254  0.2800
 4492TIP3   OH234966   5.926   1.815  14.277 -0.4273 -0.0780 -0.5104
 4492TIP3    H134967   5.877   1.886  14.317  2.0497  0.6875  1.3979
 4492TIP3    H234968   5.960   1.852  14.195  0.6179  0.9095  0.3360
 4493TIP3   OH234969   3.638   3.945   0.399  0.2919 -0.5952  0.5553
 4493TIP3    H134970   3.611   3.993   0.321  0.3849 -1.7681 -0.2165
 4493TIP3    H234971   3.609   3.855   0.384  2.0221 -1.2687  0.9996
 4494TIP3   OH234972   4.935   0.436  14.150  0.5414 -0.5167 -0.0993
 4494TIP3    H134973   4.936   0.448  14.245  0.3317 -2.1840  0.1459
 4494TIP3    H234974   5.024   0.459  14.122  0.3103  0.9941  0.3408
 4495TIP3   OH234975   5.450   5.226   6.318  0.0505  0.8097  0.3219
 4495TIP3    H134976   5.494   5.173   6.252 -1.3703 -0.7255  0.5140
 4495TIP3    H234977   5.489   5.199   6.401  1.0697  1.9310  0.2199
 4496TIP3   OH234978   5.496   2.186   1.436  0.4255  0.0814 -0.3550
 4496TIP3    H134979   5.575   2.133   1.445  0.1697 -0.0873  1.0926
 4496TIP3    H234980   5.435   2.152   1.502  0.1939  2.0374  0.5315
 4497TIP3   OH234981   0.493   2.832   1.195 -0.4943 -0.4518 -0.1640
 4497TIP3    H134982   0.398   2.820   1.191 -0.6111 -0.3573  1.7225
 4497TIP3    H234983   0.505   2.909   1.251  0.7339 -1.3315  0.8201
 4498TIP3   OH234984   1.747   0.169  13.156 -0.6111  0.1287  0.3045
 4498TIP3    H134985   1.796   0.226  13.215 -1.0024 -0.0364  0.7999
 4498TIP3    H234986   1.725   0.093  13.210  0.4509 -0.7957 -0.5085
 4499TIP3   OH234987   4.817   1.242   4.565 -0.0880  0.2362  0.1631
 4499TIP3    H134988   4.813   1.336   4.544  2.8193 -0.0759 -2.4758
 4499TIP3    H234989   4.823   1.240   4.660 -0.3440  2.7483  0.3162
 4500TIP3   OH234990   0.807   3.396  12.139 -0.0640  0.1652  0.0024
 4500TIP3    H134991   0.741   3.337  12.104  0.4006 -1.2793  1.4340
 4500TIP3    H234992   0.846   3.437  12.062 -0.5312 -1.2645 -1.0427
 4501TIP3   OH234993   6.357   2.870  10.566  0.2749 -0.3743 -0.8976
 4501TIP3    H134994   6.345   2.950  10.617  0.9558 -1.0609  0.4047
 4501TIP3    H234995   6.280   2.866  10.509 -1.1588 -0.1481  0.9056
 4502TIP3   OH234996   4.861   3.184  14.784 -0.8069  0.3337 -0.3146
 4502TIP3    H134997   4.956   3.194  14.793 -0.5923 -0.0619 -1.9467
 4502TIP3    H234998   4.840   3.104  14.833 -0.0147 -0.6069 -1.4731
 4503TIP3   OH234999   5.977   6.749  13.335  0.3847  0.6662 -0.3621
 4503TIP3    H135000   5.917   6.755  13.410  0.7960  1.8486 -0.1048
 4503TIP3    H235001   5.961   6.662  13.299 -0.0154  0.1678  0.9435
 4504TIP3   OH235002   0.467   5.414  15.124 -0.3897  0.0099 -0.1146
 4504TIP3    H135003   0.517   5.488  15.157  0.7157 -0.9907  0.5405
 4504TIP3    H235004   0.476   5.419  15.029 -1.0401  1.1818 -0.1248
 4505TIP3   OH235005   6.532   4.266   2.564  0.4871 -0.3300 -0.1555
 4505TIP3    H135006   6.624   4.252   2.588  0.0923 -1.4142  0.8669
 4505TIP3    H235007   6.488   4.282   2.648 -0.1315  1.0178 -0.7191
 4506TIP3   OH235008   5.875   3.749  14.608 -0.7239  0.3829  0.1229
 4506TIP3    H135009   5.796   3.723  14.560 -0.8495  1.9876 -0.6042
 4506TIP3    H235010   5.886   3.681  14.674 -3.2357  0.5560  0.8340
 4507TIP3   OH235011   1.022   1.413  11.862 -0.1676 -0.0468 -0.0919
 4507TIP3    H135012   1.075   1.390  11.938 -0.4175 -0.2446  0.0238
 4507TIP3    H235013   1.033   1.508  11.854 -1.3141  0.2227  1.1054
 4508TIP3   OH235014   6.191   5.915  15.800  0.3447  0.6375 -0.2437
 4508TIP3    H135015   6.124   5.875  15.745  0.4608 -0.2779  0.2448
 4508TIP3    H235016   6.149   5.993  15.837 -1.1613 -0.9187  1.5471
 4509TIP3   OH235017   1.482   2.096  13.608  0.4409  0.8267 -0.2356
 4509TIP3    H135018   1.486   2.189  13.583  1.2597  0.9193  0.2251
 4509TIP3    H235019   1.573   2.067  13.608  0.2199  0.1123 -0.0110
 4510TIP3   OH235020   4.730   1.245  12.701  0.3655  0.0076 -0.5425
 4510TIP3    H135021   4.806   1.302  12.708 -0.7969  1.5272  0.2544
 4510TIP3    H235022   4.659   1.302  12.671 -0.9225 -0.9167  0.6004
 4511TIP3   OH235023   6.435   2.653   1.703 -0.4185  0.0252  0.8844
 4511TIP3    H135024   6.344   2.627   1.715 -0.1984 -0.5803  1.2801
 4511TIP3    H235025   6.482   2.609   1.774 -0.1109  1.9793  1.9843
 4512TIP3   OH235026   1.002   2.492   6.131  0.1037  0.5021  0.0415
 4512TIP3    H135027   1.057   2.448   6.195 -0.2733 -0.4168 -0.2524
 4512TIP3    H235028   1.029   2.584   6.135  0.5447  0.3410  1.0316
 4513TIP3   OH235029   4.562   0.190   0.639 -0.3620  0.1779 -0.1094
 4513TIP3    H135030   4.520   0.196   0.725  0.9504 -0.3387  0.5963
 4513TIP3    H235031   4.608   0.274   0.630 -1.3145  0.6400 -0.7661
 4514TIP3   OH235032   1.612   3.052  16.634  0.1629 -0.2623  0.0150
 4514TIP3    H135033   1.557   3.040  16.712 -1.7339 -1.8285 -1.4642
 4514TIP3    H235034   1.702   3.044  16.667 -0.5855 -1.2436  1.9926
 4515TIP3   OH235035   2.432   4.937   5.020 -0.0565 -0.1441 -0.0632
 4515TIP3    H135036   2.349   4.891   5.013 -0.5497  0.2578  2.2383
 4515TIP3    H235037   2.438   4.963   5.112  2.8543 -0.6088  0.0044
 4516TIP3   OH235038   3.185   2.118   6.875  0.2945 -0.0490  0.2235
 4516TIP3    H135039   3.198   2.038   6.825 -0.8817 -1.0054  1.3828
 4516TIP3    H235040   3.195   2.188   6.810 -1.3380 -1.2352 -1.4125
 4517TIP3   OH235041   4.750   4.899   3.413 -0.3639  0.0518 -0.0754
 4517TIP3    H135042   4.833   4.888   3.367 -0.5314 -0.9022 -0.1570
 4517TIP3    H235043   4.726   4.811   3.442 -1.6028  0.2216 -0.4982
 4518TIP3   OH235044   3.167   4.308  17.147  0.1666  0.3560 -0.7387
 4518TIP3    H135045   3.187   4.371  17.078  0.6846 -0.3024 -1.2085
 4518TIP3    H235046   3.182   4.223  17.106 -0.2696 -0.0648 -0.0389
 4519TIP3   OH235047   0.313   2.524  14.031 -0.7266  0.1519  0.4329
 4519TIP3    H135048   0.352   2.611  14.041  0.5210 -0.1625 -1.2861
 4519TIP3    H235049   0.302   2.493  14.121  2.2878  0.5983  1.0626
 4520TIP3   OH235050   4.115   0.621   4.178  0.3001  0.4830 -0.5286
 4520TIP3    H135051   4.172   0.695   4.198 -0.0789  0.4896  0.6069
 4520TIP3    H235052   4.172   0.558   4.133  0.9818  0.8496 -0.1938
 4521TIP3   OH235053   4.804   5.869  12.023 -0.3052  0.4899 -0.7097
 4521TIP3    H135054   4.878   5.872  12.083 -2.2852 -1.4042  2.0643
 4521TIP3    H235055   4.824   5.797  11.963  0.2550  0.2511 -0.2413
 4522TIP3   OH235056   6.526   5.257   3.609 -0.4447  0.7934  0.3029
 4522TIP3    H135057   6.457   5.314   3.577 -0.9053  0.2591  0.3444
 4522TIP3    H235058   6.598   5.270   3.547 -0.9185  0.6268 -0.2900
 4523TIP3   OH235059   1.627   1.526  13.509 -0.2354  0.0679  0.8342
 4523TIP3    H135060   1.627   1.458  13.576 -0.2221 -1.2714 -0.4725
 4523TIP3    H235061   1.716   1.561  13.510  0.0458 -0.6246  0.8698
 4524TIP3   OH235062   1.935   1.513   0.425  0.6862 -0.1903 -0.1862
 4524TIP3    H135063   1.872   1.467   0.480  0.9933 -1.5187 -0.8971
 4524TIP3    H235064   1.886   1.534   0.345 -0.2749  3.2538  1.1165
 4525TIP3   OH235065   6.137   5.847   5.504 -0.0913  0.2419  1.0953
 4525TIP3    H135066   6.131   5.916   5.570 -1.8534  0.4954  0.7261
 4525TIP3    H235067   6.046   5.822   5.487  0.4581 -1.7655  0.7787
 4526TIP3   OH235068   1.747   5.419   0.999 -0.3849  0.0876 -0.4748
 4526TIP3    H135069   1.691   5.444   0.925 -0.8118  0.1765 -0.1314
 4526TIP3    H235070   1.686   5.411   1.073  0.0237 -0.0768 -0.1515
 4527TIP3   OH235071   4.229   2.729  14.129  0.0308  0.1638 -0.2557
 4527TIP3    H135072   4.313   2.685  14.122  0.2491  0.2620  1.3313
 4527TIP3    H235073   4.165   2.658  14.130  0.1771  0.0309 -0.3788
 4528TIP3   OH235074   2.060   5.632   6.278  0.4667 -0.6593 -0.4111
 4528TIP3    H135075   2.002   5.704   6.255 -0.0209 -1.3477 -1.3916
 4528TIP3    H235076   2.090   5.653   6.367 -2.3231 -0.9245  0.6954
 4529TIP3   OH235077   1.115   2.215   3.990  0.4770 -0.5052  0.0328
 4529TIP3    H135078   1.159   2.256   4.064  0.2628 -0.6327  0.2347
 4529TIP3    H235079   1.044   2.276   3.968  1.0712 -0.0309 -0.6405
 4530TIP3   OH235080   6.243   1.410   0.432 -0.5117  0.4814 -0.5662
 4530TIP3    H135081   6.196   1.451   0.505 -2.6160 -0.7589 -1.1463
 4530TIP3    H235082   6.282   1.483   0.385 -1.0737  1.4993  0.4940
 4531TIP3   OH235083   4.751   4.695  13.382 -0.1805  0.0293  0.7417
 4531TIP3    H135084   4.805   4.694  13.303 -0.5415 -2.0361  0.4465
 4531TIP3    H235085   4.668   4.734  13.353  0.5986  1.7975  0.8179
 4532TIP3   OH235086   5.238   5.083  14.216  0.3447 -0.2342 -0.3683
 4532TIP3    H135087   5.288   5.137  14.277 -0.0682  1.1519 -1.1994
 4532TIP3    H235088   5.298   5.067  14.143  0.6821 -1.4883  0.1611
 4533TIP3   OH235089   0.597   4.219   0.413 -0.1816  0.8380  0.5101
 4533TIP3    H135090   0.529   4.263   0.464  0.5001  4.0993 -1.1042
 4533TIP3    H235091   0.553   4.143   0.375 -2.8400  2.4711  0.0276
 4534TIP3   OH235092   2.829   5.152   1.776  0.3905  0.2735  0.0215
 4534TIP3    H135093   2.788   5.153   1.862 -2.1383 -0.4439 -1.1088
 4534TIP3    H235094   2.881   5.071   1.776  0.5372  0.3479  0.8884
 4535TIP3   OH235095   5.402   0.394   1.629  0.0899  0.5076  0.1074
 4535TIP3    H135096   5.358   0.334   1.568 -0.4971  1.4461 -0.4354
 4535TIP3    H235097   5.437   0.338   1.698  2.1046 -0.7934 -1.8437
 4536TIP3   OH235098   4.197   5.052  17.484  0.2041  0.0936  0.0730
 4536TIP3    H135099   4.199   4.987  17.413  1.2478 -0.2757  0.4204
 4536TIP3    H235100   4.240   5.009  17.557  0.5265  1.0307  0.4471
 4537TIP3   OH235101   4.449   0.360  15.659 -0.0479 -0.1356  0.3936
 4537TIP3    H135102   4.479   0.363  15.750  1.7685 -3.0031  0.0155
 4537TIP3    H235103   4.390   0.286  15.655 -0.8146  0.4992 -0.6239
 4538TIP3   OH235104   0.224   4.872   0.130 -0.0756 -0.0579 -0.6319
 4538TIP3    H135105   0.231   4.873   0.034 -1.6108  1.3715 -0.7684
 4538TIP3    H235106   0.313   4.888   0.161  0.0042  2.3935 -1.8930
 4539TIP3   OH235107   4.580   5.400  16.524  0.4337  0.5108  0.1550
 4539TIP3    H135108   4.559   5.474  16.468  1.2037  1.7546  1.4412
 4539TIP3    H235109   4.648   5.433  16.583 -0.1094 -0.8255  1.6091
 4540TIP3   OH235110   3.560   0.022   6.049 -0.8021 -0.4616  0.1430
 4540TIP3    H135111   3.552   0.117   6.051 -1.9260 -0.5522  1.0760
 4540TIP3    H235112   3.569   0.001   5.956 -0.2261  0.5721 -0.0436
 4541TIP3   OH235113   0.513   1.998  15.761  0.6951  0.3972  0.3514
 4541TIP3    H135114   0.496   1.906  15.744  0.1874  0.6012 -0.2841
 4541TIP3    H235115   0.432   2.031  15.798  1.2758  0.3211  1.7693
 4542TIP3   OH235116   3.620   0.943  11.676  0.0306  0.3193  0.4070
 4542TIP3    H135117   3.643   1.009  11.742 -0.0408  1.1926 -0.4253
 4542TIP3    H235118   3.637   0.986  11.592 -0.9962 -0.3558 -0.1695
 4543TIP3   OH235119   0.353   5.090  16.093  0.3256  0.7792  0.0758
 4543TIP3    H135120   0.292   5.162  16.104 -0.4303  0.4213 -1.4801
 4543TIP3    H235121   0.358   5.049  16.179  0.2428  2.2562  0.8104
 4544TIP3   OH235122   0.776   0.671  15.730 -0.8092 -0.3505  0.3778
 4544TIP3    H135123   0.691   0.664  15.773 -0.0124  1.4328  2.4468
 4544TIP3    H235124   0.768   0.746  15.672 -0.4134  0.4429  1.3137
 4545TIP3   OH235125   6.289   5.450   4.003  0.0616  0.2580  0.7788
 4545TIP3    H135126   6.338   5.532   4.009  1.4720 -0.2160 -2.4799
 4545TIP3    H235127   6.346   5.385   4.044 -0.1653  0.5092  1.5279
 4546TIP3   OH235128   5.534   0.106  11.923 -0.6267  0.2206  0.6614
 4546TIP3    H135129   5.532   0.158  12.004 -1.8387  1.6078 -0.2036
 4546TIP3    H235130   5.443   0.079  11.909 -0.0953 -1.8357  0.8439
 4547TIP3   OH235131   0.275   1.955  13.090 -0.4844 -0.1637  0.3966
 4547TIP3    H135132   0.214   1.979  13.020 -0.4212 -0.1370  0.3497
 4547TIP3    H235133   0.311   2.038  13.120  0.5114 -0.2597 -0.4700
 4548TIP3   OH235134   3.615   5.482  17.334  0.0759  0.4987 -0.3528
 4548TIP3    H135135   3.608   5.391  17.304  0.1908  0.3567  0.0388
 4548TIP3    H235136   3.570   5.482  17.419 -0.7802  1.0289 -0.7889
 4549TIP3   OH235137   4.400   1.214  15.757  0.0821  0.0898  0.2234
 4549TIP3    H135138   4.384   1.125  15.786  1.6454  0.2778  1.8397
 4549TIP3    H235139   4.323   1.264  15.786 -0.4241 -0.5629  0.0152
 4550TIP3   OH235140   3.755   3.803  11.562  0.1833 -0.1425  0.3933
 4550TIP3    H135141   3.803   3.820  11.643 -2.2008  0.5684  1.7402
 4550TIP3    H235142   3.806   3.847  11.494  0.8322  1.5759  1.9376
 4551TIP3   OH235143   6.261   1.981  16.334  0.2319 -0.2709 -0.2842
 4551TIP3    H135144   6.255   2.063  16.285 -2.0199 -0.3440 -0.2293
 4551TIP3    H235145   6.282   1.915  16.268 -0.3164  0.0145 -0.7601
 4552TIP3   OH235146   5.579   5.826   3.606 -0.3673 -0.0960  0.3838
 4552TIP3    H135147   5.573   5.908   3.656  0.8684  0.3423 -0.1516
 4552TIP3    H235148   5.491   5.789   3.611 -1.2871  1.8647 -0.3553
 4553TIP3   OH235149   3.809   4.433  15.380 -0.3043 -0.1361  0.8196
 4553TIP3    H135150   3.740   4.484  15.337 -0.2680 -0.2397  0.6326
 4553TIP3    H235151   3.813   4.352  15.328 -1.0532 -0.7647  1.7047
 4554TIP3   OH235152   2.592   0.085  15.049 -0.0635 -0.7560 -0.3542
 4554TIP3    H135153   2.512   0.058  15.003 -0.8103  1.4733 -0.5015
 4554TIP3    H235154   2.590   0.181  15.046  2.1938 -0.6256  0.4163
 4555TIP3   OH235155   2.565   4.667   5.405 -0.5385 -0.1580 -0.7642
 4555TIP3    H135156   2.470   4.670   5.398 -0.5086  2.5001 -1.0155
 4555TIP3    H235157   2.595   4.629   5.322 -1.3424 -1.6395 -0.4134
 4556TIP3   OH235158   1.186   1.584  14.480 -0.6195 -0.2516  0.2960
 4556TIP3    H135159   1.186   1.557  14.571 -0.2497  2.2583  1.1229
 4556TIP3    H235160   1.134   1.518  14.434 -1.1616 -1.3327  2.3898
 4557TIP3   OH235161   5.836   2.226  13.316 -0.2943  0.2819 -0.0954
 4557TIP3    H135162   5.926   2.195  13.304 -0.8831 -1.3364 -0.6890
 4557TIP3    H235163   5.783   2.148  13.301 -1.7322  0.8074  1.9170
 4558TIP3   OH235164   3.806   0.816   4.617 -0.0783  0.2160  0.7941
 4558TIP3    H135165   3.790   0.722   4.622 -2.1057  0.4691  0.1315
 4558TIP3    H235166   3.753   0.853   4.688 -1.1985  0.9928 -0.3957
 4559TIP3   OH235167   2.073   2.527   0.043  0.4187 -0.5071 -0.0440
 4559TIP3    H135168   2.014   2.511   0.117  0.3814  0.0268  0.0519
 4559TIP3    H235169   2.032   2.482  -0.031 -0.1421 -0.1030  0.0115
 4560TIP3   OH235170   1.317   6.722  11.367 -0.1561  0.0774 -0.1283
 4560TIP3    H135171   1.318   6.660  11.440 -4.5513  0.6188  0.6697
 4560TIP3    H235172   1.320   6.666  11.289  1.1295 -0.7303  0.4621
 4561TIP3   OH235173   4.314   1.953   3.648  0.3502  0.5194 -0.2853
 4561TIP3    H135174   4.289   1.974   3.558 -1.7480 -0.3791  0.0399
 4561TIP3    H235175   4.327   2.039   3.689  2.7445  0.9531 -1.7316
 4562TIP3   OH235176   1.779   3.723  16.697  0.7492 -0.3181 -0.1652
 4562TIP3    H135177   1.731   3.779  16.758  3.0576  0.1489  1.3371
 4562TIP3    H235178   1.741   3.636  16.709 -1.3440  0.4297 -0.8786
 4563TIP3   OH235179   1.207   4.669  15.623  0.5447 -0.7368 -0.2707
 4563TIP3    H135180   1.187   4.673  15.717 -1.3704 -0.5007 -0.6643
 4563TIP3    H235181   1.221   4.577  15.605 -0.1870 -0.9075  0.0285
 4564TIP3   OH235182   3.038   3.556   0.949 -0.0953 -0.2013 -0.0783
 4564TIP3    H135183   2.988   3.638   0.943  0.8337  0.2811 -1.6648
 4564TIP3    H235184   3.129   3.583   0.958  0.2556 -1.0401 -0.9023
 4565TIP3   OH235185   4.336   6.321  14.031  0.1508  0.3373  0.1865
 4565TIP3    H135186   4.365   6.386  13.967  0.1177 -0.7280 -0.9253
 4565TIP3    H235187   4.257   6.360  14.070 -0.0552  0.8278 -0.6986
 4566TIP3   OH235188   3.018   0.307   0.429 -0.3574  0.6014  0.4491
 4566TIP3    H135189   2.950   0.360   0.471  1.2328  3.0412  0.1572
 4566TIP3    H235190   3.025   0.343   0.340  1.0609  0.1937  0.3736
 4567TIP3   OH235191   6.415   0.064   5.550 -0.3306  0.2124 -0.2631
 4567TIP3    H135192   6.439   0.157   5.539  0.4824 -0.0677 -1.0426
 4567TIP3    H235193   6.320   0.062   5.536 -0.1710  0.7575 -1.6197
 4568TIP3   OH235194   1.013   0.718   2.296  0.3702 -0.0198  0.1023
 4568TIP3    H135195   0.969   0.657   2.356 -1.0274  1.1738  0.3597
 4568TIP3    H235196   0.942   0.772   2.261  1.6329  2.2034  0.7528
 4569TIP3   OH235197   3.552   2.598   1.778  0.0914 -0.2376 -0.0051
 4569TIP3    H135198   3.551   2.532   1.847 -1.5002 -0.6659 -0.3994
 4569TIP3    H235199   3.635   2.644   1.789  1.0321 -2.0056  0.5611
 4570TIP3   OH235200   6.020   2.702   2.879 -0.1421  0.8409  0.1867
 4570TIP3    H135201   6.104   2.681   2.838 -0.9874 -0.3220 -1.0377
 4570TIP3    H235202   5.975   2.758   2.815 -1.3215 -0.6837 -0.3855
 4571TIP3   OH235203   2.369   6.616  12.445 -0.2704 -0.3475 -0.5029
 4571TIP3    H135204   2.275   6.603  12.430 -0.6668  0.3860  1.1502
 4571TIP3    H235205   2.379   6.709  12.461  0.4336 -0.6780  1.2066
 4572TIP3   OH235206   2.584   0.308   2.396 -0.1667 -0.1207 -0.3571
 4572TIP3    H135207   2.666   0.351   2.371 -0.4397 -0.3477 -1.7091
 4572TIP3    H235208   2.576   0.234   2.336 -0.9440 -0.6083  0.3248
 4573TIP3   OH235209   2.975   0.870   5.851  0.0263 -0.3924 -0.2428
 4573TIP3    H135210   2.906   0.899   5.912 -0.0916  1.4154 -1.1744
 4573TIP3    H235211   2.930   0.865   5.766  1.3038  2.5594 -1.2396
 4574TIP3   OH235212   1.263   0.155  14.644 -0.2251  0.4571 -0.1327
 4574TIP3    H135213   1.300   0.170  14.731  0.4828 -0.3314 -0.2883
 4574TIP3    H235214   1.311   0.217  14.587 -0.0432  0.3287 -0.1183
 4575TIP3   OH235215   2.636   6.033   5.212  0.8753  0.2635  0.0602
 4575TIP3    H135216   2.667   5.982   5.286  0.6191  1.4567  1.0165
 4575TIP3    H235217   2.542   6.038   5.223  0.6209 -0.9552 -1.2869
 4576TIP3   OH235218   4.357   0.029  16.185 -0.0202  0.0225  0.0389
 4576TIP3    H135219   4.401  -0.008  16.261 -1.1732 -1.0315  0.2133
 4576TIP3    H235220   4.426   0.037  16.119  0.5141 -1.3126  0.4077
 4577TIP3   OH235221   4.111   3.040   2.718  0.1610 -0.0931 -0.2882
 4577TIP3    H135222   4.139   2.998   2.799 -0.4138  0.9258  0.4586
 4577TIP3    H235223   4.025   3.003   2.699 -0.8783  1.4880  1.0007
 4578TIP3   OH235224   4.792   0.956  12.557  0.7638  0.1748  0.4395
 4578TIP3    H135225   4.744   0.875  12.540  2.8543 -0.9410 -0.6128
 4578TIP3    H235226   4.763   1.016  12.489 -0.8353  0.3744  1.2481
 4579TIP3   OH235227   2.988   6.428   0.712  0.7355  0.3702  0.3838
 4579TIP3    H135228   3.054   6.366   0.684  1.1580  0.2208  1.6192
 4579TIP3    H235229   2.945   6.385   0.786 -0.1087  0.8544  0.1833
 4580TIP3   OH235230   2.625   6.664   0.861  0.5136  0.1653  0.1725
 4580TIP3    H135231   2.573   6.716   0.800  0.1467 -1.2237 -0.7430
 4580TIP3    H235232   2.645   6.584   0.814  1.2827 -0.4300  1.4467
 4581TIP3   OH235233   5.232   5.660  15.662  0.0952 -0.1927  0.4005
 4581TIP3    H135234   5.185   5.710  15.728 -0.7556 -1.5501  0.8656
 4581TIP3    H235235   5.168   5.597  15.629  0.8778 -0.3969 -0.7932
 4582TIP3   OH235236   2.586   2.693   3.993 -0.1083 -0.1856 -0.3186
 4582TIP3    H135237   2.541   2.706   3.910 -1.6179 -1.2515  0.2958
 4582TIP3    H235238   2.635   2.612   3.982 -0.6523 -0.5582 -0.0425
 4583TIP3   OH235239   6.070   2.974   2.937 -0.0746 -0.4835  0.0155
 4583TIP3    H135240   6.016   2.899   2.961 -1.5138  0.2728 -0.7110
 4583TIP3    H235241   6.049   3.041   3.003 -0.3998 -0.0224 -0.5472
 4584TIP3   OH235242   5.586   0.658  11.171  0.4819 -0.1038  0.1387
 4584TIP3    H135243   5.606   0.694  11.258  0.7874 -1.6594  0.7482
 4584TIP3    H235244   5.590   0.734  11.113  0.8590  0.8825  1.3857
 4585TIP3   OH235245   0.817   5.041  16.452  0.1091  0.0674  0.3872
 4585TIP3    H135246   0.723   5.030  16.466  0.0854 -2.4596 -1.1063
 4585TIP3    H235247   0.825   5.059  16.358  1.1240 -0.4211  0.3649
 4586TIP3   OH235248   2.124   4.693   5.376 -0.4294 -0.4922  0.0762
 4586TIP3    H135249   2.048   4.649   5.337 -0.1784 -1.3122  0.4784
 4586TIP3    H235250   2.198   4.637   5.351 -0.1277 -0.4076  0.7719
 4587TIP3   OH235251   3.897   4.124  15.621 -0.7043 -0.0728 -0.0444
 4587TIP3    H135252   3.831   4.122  15.690 -0.7438 -0.5576 -0.0958
 4587TIP3    H235253   3.891   4.039  15.578 -0.0120 -0.1451 -0.0160
 4588TIP3   OH235254   1.372   0.222  15.213 -0.2311  0.3913  0.7118
 4588TIP3    H135255   1.457   0.232  15.255  0.1065  0.0545  0.1240
 4588TIP3    H235256   1.380   0.141  15.161 -1.0021  0.1890  0.8872
 4589TIP3   OH235257   5.983   6.165  11.472 -0.3250  0.1238 -0.0517
 4589TIP3    H135258   5.987   6.176  11.567  2.3510  1.3085 -0.2052
 4589TIP3    H235259   6.019   6.077  11.457 -1.6098 -0.4389  0.0377
 4590TIP3   OH235260   1.947   3.520   6.125 -0.6074  0.3402  0.4251
 4590TIP3    H135261   1.990   3.482   6.202 -0.8157  0.7793  0.7690
 4590TIP3    H235262   2.014   3.574   6.083  0.3354 -1.9975 -1.2686
 4591TIP3   OH235263   6.341   0.337   1.830 -1.0817  0.4507 -0.3511
 4591TIP3    H135264   6.283   0.296   1.893 -1.1789 -0.9569 -1.3217
 4591TIP3    H235265   6.428   0.303   1.851 -0.4574  2.8702  1.3667
 4592TIP3   OH235266   4.253   2.636   2.096 -0.3311  0.1860 -0.1013
 4592TIP3    H135267   4.242   2.577   2.022 -1.9013 -0.3792  0.5307
 4592TIP3    H235268   4.248   2.724   2.057  1.1268 -0.0703 -0.9294
 4593TIP3   OH235269   3.264   0.228  10.947 -0.9926 -0.4588  0.1565
 4593TIP3    H135270   3.229   0.301  10.998  0.2411 -0.3972  0.9616
 4593TIP3    H235271   3.304   0.269  10.870  0.9362 -0.0786  1.2821
 4594TIP3   OH235272   3.621   2.754   3.448  0.1113 -0.3954  0.6452
 4594TIP3    H135273   3.546   2.718   3.401 -0.4890  2.1642 -0.5681
 4594TIP3    H235274   3.592   2.762   3.539  0.4628 -3.2869  1.0790
 4595TIP3   OH235275   2.318   3.696  14.234 -0.0298 -0.5657 -0.5986
 4595TIP3    H135276   2.262   3.630  14.276  2.4621 -2.1595  0.4261
 4595TIP3    H235277   2.336   3.759  14.304 -0.6515  0.0458 -0.9803
 4596TIP3   OH235278   0.015   1.435  10.674 -0.8841 -0.5255  0.0335
 4596TIP3    H135279   0.096   1.436  10.622 -0.4701  0.3300  0.6580
 4596TIP3    H235280  -0.039   1.503  10.635 -0.2508  0.6700  1.1740
 4597TIP3   OH235281   1.321   4.061  11.483 -0.2340 -0.3543  0.1062
 4597TIP3    H135282   1.405   4.081  11.524 -0.0813 -0.9861  0.1034
 4597TIP3    H235283   1.337   4.070  11.389 -0.1607 -0.5045  0.1041
 4598TIP3   OH235284   1.979   3.608  13.562  0.5452 -0.6652 -0.7837
 4598TIP3    H135285   1.965   3.593  13.656 -0.5760  0.1492 -0.8113
 4598TIP3    H235286   2.073   3.623  13.554  0.6183 -0.5423  0.2365
 4599TIP3   OH235287   2.581   3.510   5.246  0.1153  0.4858 -0.0939
 4599TIP3    H135288   2.663   3.486   5.290  1.1380  1.2668 -1.4736
 4599TIP3    H235289   2.609   3.551   5.164 -1.7056 -0.5453 -1.3069
 4600TIP3   OH235290   3.458   5.037  15.711 -0.1579  0.1070  0.5573
 4600TIP3    H135291   3.542   5.075  15.737  0.0083  0.6234 -0.6412
 4600TIP3    H235292   3.445   4.963  15.770  0.1161  1.2704  2.1498
 4601TIP3   OH235293   4.443   3.856   0.039  0.3319 -0.3068 -0.1073
 4601TIP3    H135294   4.361   3.898   0.065  0.4479  0.0739 -0.3604
 4601TIP3    H235295   4.442   3.859  -0.057  1.7688  1.9185 -0.1254
 4602TIP3   OH235296   2.144   4.455   4.507 -0.7539 -0.5296  0.6748
 4602TIP3    H135297   2.055   4.477   4.534 -1.3578 -0.8062 -0.9758
 4602TIP3    H235298   2.146   4.360   4.506 -0.7863 -0.5293 -0.2965
 4603TIP3   OH235299   4.359   0.486   5.906 -0.0995  0.4808 -0.0593
 4603TIP3    H135300   4.390   0.575   5.923 -1.7356  1.3639 -1.3561
 4603TIP3    H235301   4.363   0.442   5.991  5.0303  0.2530 -0.1420
 4604TIP3   OH235302   0.577   5.207   5.681  0.1316  0.1952  0.4937
 4604TIP3    H135303   0.625   5.266   5.624  0.1149  1.4862  1.7430
 4604TIP3    H235304   0.571   5.125   5.632 -0.7376  1.5113 -1.7511
 4605TIP3   OH235305   6.109   4.162   0.298 -0.4135 -0.3780  0.0712
 4605TIP3    H135306   6.139   4.232   0.356 -1.2587 -0.7487  0.9891
 4605TIP3    H235307   6.143   4.082   0.336 -2.1254 -0.7625  0.8868
 4606TIP3   OH235308   1.748   5.731  15.355  0.3374 -0.2049  0.1590
 4606TIP3    H135309   1.791   5.680  15.287  0.4321  0.5415 -0.3506
 4606TIP3    H235310   1.775   5.689  15.437 -1.2257 -2.2325 -0.2853
 4607TIP3   OH235311   4.214   4.705   2.243 -0.5518 -0.0193 -0.1346
 4607TIP3    H135312   4.303   4.678   2.219 -0.4413  0.4340 -0.2361
 4607TIP3    H235313   4.213   4.697   2.339  0.4121  2.3511  0.1379
 4608TIP3   OH235314   3.830   2.602   0.326 -0.1402  0.1185 -0.1636
 4608TIP3    H135315   3.922   2.601   0.298 -0.4050  0.1598 -1.0743
 4608TIP3    H235316   3.802   2.511   0.317 -0.8705  0.4968 -2.3243
 4609TIP3   OH235317   1.488   3.045   0.449 -0.0571  0.1728 -0.4834
 4609TIP3    H135318   1.446   2.996   0.520 -1.1038  0.3686 -0.9560
 4609TIP3    H235319   1.549   3.104   0.494 -1.0223  0.6068  0.3033
 4610TIP3   OH235320   3.516   6.402   2.924 -0.2751  0.2037 -0.1377
 4610TIP3    H135321   3.469   6.409   2.841 -0.9477 -1.2810  0.0769
 4610TIP3    H235322   3.584   6.469   2.919 -0.7647  0.6365 -1.5675
 4611TIP3   OH235323   5.407   1.414   0.615 -0.1430 -0.0389 -0.2496
 4611TIP3    H135324   5.443   1.427   0.528 -2.4901 -2.1333 -1.6752
 4611TIP3    H235325   5.438   1.327   0.641 -0.0615  0.2631  0.7039
 4612TIP3   OH235326   0.439   3.604  14.704 -0.4595  0.0649  0.1957
 4612TIP3    H135327   0.526   3.603  14.744 -0.9754 -0.2297  1.3379
 4612TIP3    H235328   0.415   3.697  14.703  0.2661  0.2616 -1.0532
 4613TIP3   OH235329   0.671   2.754   2.263 -0.1494 -0.0824 -0.1180
 4613TIP3    H135330   0.624   2.755   2.346 -0.0341  0.6395 -0.0539
 4613TIP3    H235331   0.613   2.707   2.203 -0.3979 -0.2805  0.2749
 4614TIP3   OH235332   1.987   6.339   1.402  0.3346  0.1486 -0.0038
 4614TIP3    H135333   1.973   6.412   1.341 -1.7479  0.6549  1.0074
 4614TIP3    H235334   2.079   6.348   1.427  1.1201  0.2635 -2.5596
 4615TIP3   OH235335   0.786   2.446   2.331 -0.3762  0.1852 -0.4864
 4615TIP3    H135336   0.871   2.475   2.365  0.0796 -0.2234 -1.2421
 4615TIP3    H235337   0.790   2.467   2.238  0.1862 -2.6714 -1.2219
 4616TIP3   OH235338   3.819   4.228   3.316  0.0041  0.6049 -0.0616
 4616TIP3    H135339   3.883   4.242   3.385  0.2375  1.4589 -0.4248
 4616TIP3    H235340   3.734   4.226   3.361  0.2474 -0.1455  0.3781
 4617TIP3   OH235341   3.899   4.776  17.454  0.9631 -0.2868 -0.1582
 4617TIP3    H135342   3.925   4.734  17.536 -0.5565 -0.2404  0.3675
 4617TIP3    H235343   3.894   4.869  17.476 -0.4471 -0.3795 -0.0016
 4618TIP3   OH235344   1.370   3.489  12.995  0.4794  0.0903  0.5583
 4618TIP3    H135345   1.357   3.479  13.089 -0.4102 -0.0294  0.4327
 4618TIP3    H235346   1.419   3.411  12.968  0.5159  0.0044  0.8755
 4619TIP3   OH235347   2.227   2.339  16.974  0.3777 -0.3233  0.3339
 4619TIP3    H135348   2.224   2.372  17.064  1.2315 -0.4747  0.4229
 4619TIP3    H235349   2.213   2.245  16.983  0.1886 -0.3027  0.2758
 4620TIP3   OH235350   0.598   5.363  13.313  0.8014  0.0515  0.1688
 4620TIP3    H135351   0.682   5.321  13.292 -0.9790 -3.8599 -0.0836
 4620TIP3    H235352   0.538   5.289  13.327 -2.7416  2.6460 -0.1510
 4621TIP3   OH235353   6.380   1.961  16.619  0.0142  0.1607  0.1491
 4621TIP3    H135354   6.317   2.021  16.579  0.0319  0.5262  0.6504
 4621TIP3    H235355   6.424   1.919  16.546 -1.4933 -0.8427 -0.2187
 4622TIP3   OH235356   0.567   3.552   5.802  0.8286  0.0708  0.6830
 4622TIP3    H135357   0.521   3.507   5.873  0.6282 -0.4490  0.2363
 4622TIP3    H235358   0.524   3.637   5.794  1.3694  0.4467  1.7057
 4623TIP3   OH235359   4.488   4.969  16.406  0.2598  0.4254 -0.3501
 4623TIP3    H135360   4.551   4.980  16.477  1.7023  0.2686 -1.5549
 4623TIP3    H235361   4.415   4.921  16.446  0.8775  0.6360  1.0870
 4624TIP3   OH235362   1.685   1.194   0.176 -0.1805  0.1862 -0.4186
 4624TIP3    H135363   1.638   1.239   0.246  2.4778  2.6253  0.0247
 4624TIP3    H235364   1.625   1.193   0.102 -1.5292  1.5619  0.6067
 4625TIP3   OH235365   6.100   2.308   1.822  0.2061  0.2968  0.4991
 4625TIP3    H135366   6.111   2.227   1.772  2.4022  0.3128  0.8444
 4625TIP3    H235367   6.025   2.291   1.879 -0.7796 -0.6391 -1.0126
 4626TIP3   OH235368   5.389   4.290   3.762  0.4879  0.1586  0.0979
 4626TIP3    H135369   5.438   4.348   3.820  3.4774 -1.9207 -0.1082
 4626TIP3    H235370   5.402   4.325   3.674 -1.4482  1.5580  0.3079
 4627TIP3   OH235371   1.677   0.321  16.045  0.6703  0.8049  0.0901
 4627TIP3    H135372   1.595   0.305  16.092  2.0593  0.3205  2.5152
 4627TIP3    H235373   1.664   0.405  16.001 -1.0307  0.8284  0.5730
 4628TIP3   OH235374   0.058   0.422  13.170 -0.0830 -0.0012  0.1577
 4628TIP3    H135375  -0.019   0.473  13.194 -2.1817 -2.5059 -0.7963
 4628TIP3    H235376   0.053   0.414  13.074  2.5904  1.5170 -0.2007
 4629TIP3   OH235377   6.573   2.028   1.243 -0.7105 -0.2357 -0.0748
 4629TIP3    H135378   6.649   2.007   1.189 -1.5322 -1.0722 -0.9456
 4629TIP3    H235379   6.575   2.124   1.252 -0.3351 -0.1103 -1.2843
 4630TIP3   OH235380   0.456   5.325  11.288  0.2651  0.1117  0.6550
 4630TIP3    H135381   0.449   5.420  11.300  2.9917  0.7898 -2.0249
 4630TIP3    H235382   0.377   5.301  11.240 -0.1938  1.0973  0.8860
 4631TIP3   OH235383   4.910   2.240  14.048  0.3703  0.2482  0.5832
 4631TIP3    H135384   4.851   2.259  14.121  0.9445  0.7187  0.9399
 4631TIP3    H235385   4.899   2.314  13.988 -0.2034 -0.2066  0.1178
 4632TIP3   OH235386   2.871   1.296   4.074 -0.4835  0.5778  0.2063
 4632TIP3    H135387   2.846   1.217   4.026  1.7782 -1.1990  1.7158
 4632TIP3    H235388   2.848   1.277   4.165  0.6093  1.3821  0.6753
 4633TIP3   OH235389   0.844   4.016  13.005  0.1908 -0.1500  0.0534
 4633TIP3    H135390   0.843   3.924  12.977 -2.2084  0.1205 -0.9949
 4633TIP3    H235391   0.840   4.012  13.100  1.3137 -1.0962  0.0871
 4634TIP3   OH235392   6.157   0.750  15.874  0.0387 -0.9338  0.1234
 4634TIP3    H135393   6.117   0.703  15.801 -0.9849  0.1842 -0.0680
 4634TIP3    H235394   6.084   0.797  15.915  0.9292  0.0310  0.6521
 4635TIP3   OH235395   1.051   4.648  14.275  0.1355 -0.4452  0.0470
 4635TIP3    H135396   1.062   4.591  14.198  0.4201 -1.5369  0.8716
 4635TIP3    H235397   1.131   4.701  14.277 -1.4525  2.3245 -2.5316
 4636TIP3   OH235398   1.183   6.485  15.040 -0.4396  0.1606 -0.0825
 4636TIP3    H135399   1.213   6.395  15.056 -1.6018 -0.9746 -3.3347
 4636TIP3    H235400   1.111   6.497  15.102  1.5117  0.0041  2.3641
 4637TIP3   OH235401   3.786   3.597   5.864  0.3221 -0.0933  0.2205
 4637TIP3    H135402   3.848   3.531   5.896 -0.0947 -1.3984 -1.5255
 4637TIP3    H235403   3.839   3.662   5.819  0.5998 -0.0622  0.5913
 4638TIP3   OH235404   6.040   5.806   3.990  0.3165  0.4762  0.2499
 4638TIP3    H135405   6.069   5.813   3.899 -0.6170  1.0387 -0.0155
 4638TIP3    H235406   5.965   5.865   3.997  0.1681  0.1975  1.3033
 4639TIP3   OH235407   4.764   2.412  16.060 -0.5762 -0.0237 -0.3848
 4639TIP3    H135408   4.838   2.352  16.066 -1.1146 -0.7083 -0.4747
 4639TIP3    H235409   4.796   2.484  16.006  0.4745  0.3963  0.7512
 4640TIP3   OH235410   0.090   6.253  13.529  0.1737 -0.1437  0.2069
 4640TIP3    H135411   0.126   6.191  13.592 -1.7392  0.8338  2.4350
 4640TIP3    H235412  -0.001   6.224  13.517  0.5931 -0.6322 -2.6729
 4641TIP3   OH235413   5.433   1.068   3.396 -0.1504 -0.4312 -0.0439
 4641TIP3    H135414   5.516   1.080   3.442 -0.8099 -1.8879  1.6492
 4641TIP3    H235415   5.379   1.019   3.458 -1.8949 -0.4657 -1.5352
 4642TIP3   OH235416   5.967   2.534  16.677  0.2283 -0.4540  0.1676
 4642TIP3    H135417   5.953   2.448  16.718 -0.0979 -0.2094  0.5755
 4642TIP3    H235418   5.881   2.576  16.682  0.0419 -0.6121 -1.2266
 4643TIP3   OH235419   1.666   3.830  13.540  0.5813  0.9881  0.4944
 4643TIP3    H135420   1.754   3.863  13.522  0.9201  0.4143  1.0390
 4643TIP3    H235421   1.612   3.908  13.553  0.7371  1.3751 -1.0187
 4644TIP3   OH235422   1.505   4.006   3.065  0.4386 -0.6440  0.8853
 4644TIP3    H135423   1.599   4.013   3.049  0.5293  1.4865  2.0130
 4644TIP3    H235424   1.465   4.018   2.979  1.1712  0.4085  0.6690
 4645TIP3   OH235425   6.132   0.379  12.337 -0.0081  0.3854 -0.7962
 4645TIP3    H135426   6.206   0.319  12.350  0.2144  1.2097  2.5449
 4645TIP3    H235427   6.057   0.333  12.374  0.3743  2.3892  2.9158
 4646TIP3   OH235428   3.384   1.442   6.249 -0.2993  0.0057 -0.7964
 4646TIP3    H135429   3.429   1.516   6.208  0.3399 -0.8360 -1.6634
 4646TIP3    H235430   3.438   1.420   6.325 -0.9830  0.9833 -0.0061
 4647TIP3   OH235431   4.563   1.588  13.274  0.1729 -0.0193 -0.1455
 4647TIP3    H135432   4.528   1.644  13.205 -0.5404 -0.0988  0.1423
 4647TIP3    H235433   4.489   1.574  13.333  0.4171 -1.0246 -0.0590
 4648TIP3   OH235434   1.123   6.172  16.175  0.0161 -0.0632  0.3736
 4648TIP3    H135435   1.205   6.205  16.137  0.2244 -1.8006 -0.7619
 4648TIP3    H235436   1.054   6.208  16.118  0.1706 -0.6927 -0.2193
 4649TIP3   OH235437   0.289   1.239  13.775  0.2403  0.1455 -0.3428
 4649TIP3    H135438   0.240   1.320  13.756  0.8893  0.1298 -2.2230
 4649TIP3    H235439   0.378   1.268  13.793 -0.1522  0.0737  2.0412
 4650TIP3   OH235440   3.739   1.701   2.275 -0.2974 -0.4380 -0.0312
 4650TIP3    H135441   3.678   1.745   2.215  0.1614 -1.4021 -1.2552
 4650TIP3    H235442   3.686   1.634   2.317 -0.4723 -0.1743  0.1744
 4651TIP3   OH235443   5.948   2.768   5.389  0.4397 -0.6212 -0.4852
 4651TIP3    H135444   6.000   2.688   5.397  0.6993 -0.4409 -0.3728
 4651TIP3    H235445   5.995   2.833   5.441  0.2051 -0.4051 -0.5383
 4652TIP3   OH235446   1.170   3.011   1.257 -0.4339  0.2271  0.4836
 4652TIP3    H135447   1.247   3.048   1.215 -1.0468 -0.0916 -0.9853
 4652TIP3    H235448   1.195   2.921   1.280 -0.7958 -0.3777 -1.3403
 4653TIP3   OH235449   6.184   2.040   1.716 -0.0826  0.0694  0.0829
 4653TIP3    H135450   6.265   2.017   1.670  0.4196  2.0478 -0.1185
 4653TIP3    H235451   6.175   1.973   1.784  1.4083 -0.5312 -0.2770
 4654TIP3   OH235452   5.893   1.178   5.197  0.2688 -0.2442 -0.0817
 4654TIP3    H135453   5.922   1.167   5.107 -0.7753 -1.9094 -0.2593
 4654TIP3    H235454   5.817   1.236   5.191  1.0656  0.8317 -0.0751
 4655TIP3   OH235455   3.000   0.866  13.948  0.1757  0.6429 -0.0386
 4655TIP3    H135456   2.932   0.901  13.889  0.9152  1.2120 -0.5671
 4655TIP3    H235457   3.082   0.887  13.904  0.7488  1.1691  1.2582
 4656TIP3   OH235458   3.897   2.244   5.517  0.5539  0.0675 -0.7428
 4656TIP3    H135459   3.910   2.244   5.423 -1.2162  2.0244 -1.0860
 4656TIP3    H235460   3.948   2.319   5.548  0.0300  0.2801 -0.3725
 4657TIP3   OH235461   0.867   3.255   0.930 -0.1636  0.2068 -0.6433
 4657TIP3    H135462   0.815   3.241   0.851 -0.0019 -0.0022 -0.7128
 4657TIP3    H235463   0.889   3.348   0.928  0.5588  0.0332 -1.2921
 4658TIP3   OH235464   3.255   2.256   0.976  0.1794 -0.1947 -0.2770
 4658TIP3    H135465   3.161   2.241   0.966  0.3137 -0.8801 -0.6210
 4658TIP3    H235466   3.270   2.343   0.939 -0.8956  1.6917  3.2728
 4659TIP3   OH235467   4.757   0.652   1.141 -0.3821 -0.5545  0.7450
 4659TIP3    H135468   4.738   0.672   1.233  0.1567 -0.3791  0.8239
 4659TIP3    H235469   4.680   0.605   1.110 -1.6158  1.4677  0.5884
 4660TIP3   OH235470   1.343   2.916  11.703  0.1628  0.3942 -0.1559
 4660TIP3    H135471   1.309   2.996  11.662 -1.7440  0.1697  0.8698
 4660TIP3    H235472   1.395   2.875  11.634 -2.1464  0.4982 -2.1197
 4661TIP3   OH235473   1.927   5.340  13.173  0.1678  0.1337  0.7331
 4661TIP3    H135474   1.862   5.401  13.137  0.3282 -0.4172 -0.5238
 4661TIP3    H235475   1.889   5.312  13.256 -1.8387 -1.1009 -0.5005
 4662TIP3   OH235476   4.615   6.238  12.737 -0.0350  0.5312  0.1059
 4662TIP3    H135477   4.626   6.248  12.642  0.6009 -0.9403 -0.0015
 4662TIP3    H235478   4.704   6.247  12.772 -0.0175 -0.5629  0.3775
 4663TIP3   OH235479   2.340   4.421   1.616  0.0017  0.1587 -0.3282
 4663TIP3    H135480   2.281   4.419   1.540 -0.5840  1.6252  0.0623
 4663TIP3    H235481   2.298   4.363   1.680 -1.3231  1.5564  0.1306
 4664TIP3   OH235482   3.343   1.910  15.923 -0.6788  0.0429 -0.2034
 4664TIP3    H135483   3.294   1.874  15.848 -1.0549 -1.6024  0.7788
 4664TIP3    H235484   3.331   2.004  15.916 -1.1825 -0.1086 -1.8983
 4665TIP3   OH235485   6.712   0.778  16.560  0.7251 -0.5387 -0.3075
 4665TIP3    H135486   6.668   0.846  16.612  2.2462  0.3468 -0.1271
 4665TIP3    H235487   6.757   0.724  16.625  0.2457 -1.2199 -0.5248
 4666TIP3   OH235488   1.461   5.277   2.732  0.1170 -0.9254 -0.4105
 4666TIP3    H135489   1.436   5.341   2.798  1.2299  0.1811 -1.0151
 4666TIP3    H235490   1.530   5.226   2.773  1.2715  0.1888 -0.8966
 4667TIP3   OH235491   0.148   1.292  12.836 -0.1796  0.2951  0.0639
 4667TIP3    H135492   0.243   1.301  12.847  0.1715 -1.3701 -1.1618
 4667TIP3    H235493   0.139   1.228  12.765 -2.2318  0.8022 -0.1744
 4668TIP3   OH235494   3.191   2.595  13.386 -0.1165 -0.3019  0.5657
 4668TIP3    H135495   3.166   2.644  13.308 -4.0641 -2.0366  0.5024
 4668TIP3    H235496   3.187   2.659  13.457  0.3010  0.5786 -0.1845
 4669TIP3   OH235497   6.349   6.465   0.422  0.2790  0.1463  1.3727
 4669TIP3    H135498   6.325   6.485   0.512  0.7695 -0.6084  1.6866
 4669TIP3    H235499   6.269   6.478   0.372 -0.4244 -0.9030  2.1711
 4670TIP3   OH235500   1.866   1.979  13.422  0.2152  0.2052  0.5418
 4670TIP3    H135501   1.947   2.009  13.382  0.2412  1.4862  1.4782
 4670TIP3    H235502   1.800   1.990  13.353  0.8034 -0.8322 -0.2175
 4671TIP3   OH235503   5.746   0.843  15.352  0.0497  0.1417 -0.1955
 4671TIP3    H135504   5.714   0.866  15.439  0.8289  0.6531 -0.0292
 4671TIP3    H235505   5.678   0.874  15.292  0.5510  1.9186  0.0951
 4672TIP3   OH235506   0.802   1.786  16.085 -0.2914  0.0350 -0.7245
 4672TIP3    H135507   0.742   1.731  16.035  0.4549 -0.7185 -0.8026
 4672TIP3    H235508   0.814   1.740  16.168 -0.3839  0.5490 -0.4210
 4673TIP3   OH235509   3.267   4.751   0.533  0.4286 -0.2439 -0.4149
 4673TIP3    H135510   3.183   4.771   0.575 -0.1851 -0.6493 -1.3987
 4673TIP3    H235511   3.322   4.827   0.551  0.1975 -0.3888  1.0796
 4674TIP3   OH235512   3.425   3.865  11.385 -0.4008  0.3138  0.2425
 4674TIP3    H135513   3.485   3.910  11.445 -0.3049  0.2131  0.2225
 4674TIP3    H235514   3.414   3.926  11.312  1.8084 -0.7432 -1.0740
 4675TIP3   OH235515   1.792   1.037   5.721 -0.3805  0.0344 -0.7331
 4675TIP3    H135516   1.848   0.974   5.676 -1.6066 -1.6011 -0.0348
 4675TIP3    H235517   1.703   1.011   5.699 -1.0204 -0.5011  2.1455
 4676TIP3   OH235518   5.501   6.394   2.518 -0.5560 -0.0278 -0.0239
 4676TIP3    H135519   5.523   6.389   2.611  1.4064  1.8113 -0.2980
 4676TIP3    H235520   5.576   6.355   2.474 -0.7242  0.5866 -0.8699
 4677TIP3   OH235521   1.406   4.389   1.105 -0.1428 -0.0953 -0.5994
 4677TIP3    H135522   1.408   4.386   1.201  0.1723  1.5329 -0.5355
 4677TIP3    H235523   1.325   4.342   1.082 -0.1545 -0.6195  0.4424
 4678TIP3   OH235524   3.525   4.833  15.232  0.2905 -0.1598  0.3879
 4678TIP3    H135525   3.511   4.851  15.324 -1.4895  2.6139 -0.3171
 4678TIP3    H235526   3.504   4.740  15.222  2.1976 -0.9635  2.9833
 4679TIP3   OH235527   2.629   0.643   2.150  0.0466 -0.0954 -0.1412
 4679TIP3    H135528   2.610   0.686   2.067  1.8959  1.1148  0.0041
 4679TIP3    H235529   2.717   0.607   2.139 -0.2907 -1.2876  0.7847
 4680TIP3   OH235530   1.836   6.024  16.524 -0.0547  0.0838 -0.6649
 4680TIP3    H135531   1.822   6.051  16.615  0.9353  1.9493 -1.0139
 4680TIP3    H235532   1.801   5.935  16.520 -3.8522  1.3041  0.5229
 4681TIP3   OH235533   2.499   5.905   1.527 -0.3175 -0.2170  0.4689
 4681TIP3    H135534   2.572   5.965   1.541 -0.4617 -0.1704  1.0341
 4681TIP3    H235535   2.530   5.845   1.460  0.1439 -0.0376  0.5186
 4682TIP3   OH235536   1.543   1.793  11.195  0.2183 -0.2729  0.6421
 4682TIP3    H135537   1.499   1.864  11.149  0.1256 -1.1573 -0.6875
 4682TIP3    H235538   1.595   1.749  11.127 -1.4566 -2.8484  0.9118
 4683TIP3   OH235539   0.607   0.979   5.371 -0.1002  0.3619 -0.2595
 4683TIP3    H135540   0.657   0.934   5.439  1.8187  2.9284  0.1601
 4683TIP3    H235541   0.615   0.922   5.294 -0.2622 -1.4032  0.9789
 4684TIP3   OH235542   4.272   0.987  12.961 -0.0449  0.9520 -0.6519
 4684TIP3    H135543   4.276   0.944  13.046  0.1060 -1.2704 -1.7155
 4684TIP3    H235544   4.221   0.928  12.906  0.7081  1.8226 -2.3838
 4685TIP3   OH235545   4.139   1.538  12.657  0.3086 -0.4830  0.3750
 4685TIP3    H135546   4.087   1.528  12.736 -0.2492  0.2521  0.1094
 4685TIP3    H235547   4.089   1.599  12.603  0.6653 -0.9901 -0.5538
 4686TIP3   OH235548   3.962   0.613  16.048 -0.7017 -0.1137  0.1740
 4686TIP3    H135549   3.901   0.626  15.975  0.0164  3.3582  0.0051
 4686TIP3    H235550   3.923   0.662  16.120 -0.1998 -1.5080  1.4381
 4687TIP3   OH235551   5.588   3.767  11.863  0.3091 -0.3616  0.0590
 4687TIP3    H135552   5.555   3.765  11.773  0.3905 -0.3347  0.0285
 4687TIP3    H235553   5.525   3.820  11.911  1.1135  0.9740 -0.3188
 4688TIP3   OH235554   2.533   1.364   0.672  0.0362 -0.0470  0.2544
 4688TIP3    H135555   2.607   1.303   0.676  0.8548  0.9794  2.6324
 4688TIP3    H235556   2.568   1.446   0.708 -1.5076  1.3396 -1.2471
 4689TIP3   OH235557   2.213   0.839   2.384 -0.1774  0.2075  0.0975
 4689TIP3    H135558   2.121   0.851   2.404 -0.4526 -2.4046  0.7483
 4689TIP3    H235559   2.219   0.853   2.289 -1.2153  0.4276  0.0559
 4690TIP3   OH235560   3.444   0.994   1.267 -0.2951  0.0445  0.1260
 4690TIP3    H135561   3.419   0.953   1.184  0.2160 -2.6045  1.1848
 4690TIP3    H235562   3.532   1.028   1.251 -0.7077  0.7332 -0.7719
 4691TIP3   OH235563   4.113   3.408   4.007  0.4262 -0.4250  0.1872
 4691TIP3    H135564   4.033   3.421   3.957  0.4525 -1.5705 -0.1954
 4691TIP3    H235565   4.086   3.359   4.085  0.2233  2.2286  1.8941
 4692TIP3   OH235566   5.224   1.191  15.495 -0.0373  0.6398 -0.5149
 4692TIP3    H135567   5.318   1.204  15.484  0.0859  1.1175  0.8799
 4692TIP3    H235568   5.216   1.103  15.531 -0.1110  0.6566 -0.4896
 4693TIP3   OH235569   6.395   0.447   4.607  0.2636 -0.2548  0.1168
 4693TIP3    H135570   6.473   0.456   4.553 -0.4289  0.4542 -0.7796
 4693TIP3    H235571   6.346   0.527   4.593 -0.3920 -0.4647  1.0769
 4694TIP3   OH235572   2.467   1.203  11.895  0.2243 -0.0978 -0.4683
 4694TIP3    H135573   2.558   1.220  11.868  0.5671  1.2075  1.2979
 4694TIP3    H235574   2.472   1.122  11.945  0.5286  0.2175  0.0277
 4695TIP3   OH235575   3.541   0.027  12.613 -0.6620 -0.0672 -0.5267
 4695TIP3    H135576   3.601   0.002  12.684  0.8060 -0.1774 -1.7369
 4695TIP3    H235577   3.566  -0.031  12.541 -1.9764  0.1860 -1.1985
 4696TIP3   OH235578   1.910   0.643  12.179 -0.4056 -0.7248 -0.4150
 4696TIP3    H135579   1.915   0.623  12.273  0.9786 -3.3424 -0.9302
 4696TIP3    H235580   1.915   0.738  12.174  1.5399 -0.5829  2.1030
 4697TIP3   OH235581   1.533   2.969  16.267  0.3621 -0.0561  0.2235
 4697TIP3    H135582   1.554   2.887  16.223 -1.7007 -0.3966 -0.2332
 4697TIP3    H235583   1.437   2.975  16.263  0.3789  1.8107  1.2644
 4698TIP3   OH235584   6.767   4.094   4.283  0.4470 -0.0980  0.1143
 4698TIP3    H135585   6.792   4.004   4.261  0.9999  0.3650 -1.2798
 4698TIP3    H235586   6.672   4.091   4.290  0.1882 -0.3564 -2.3758
 4699TIP3   OH235587   0.335   1.192  12.039 -0.1501 -0.3773 -0.7334
 4699TIP3    H135588   0.406   1.176  11.978  1.0671 -0.0015  0.5243
 4699TIP3    H235589   0.257   1.160  11.994  1.2376 -4.1976 -0.7987
 4700TIP3   OH235590   0.902   3.756  12.663 -0.2049  0.3106 -0.3269
 4700TIP3    H135591   0.972   3.793  12.717  0.4240 -0.2052 -0.7747
 4700TIP3    H235592   0.891   3.819  12.592  1.3108 -0.6236 -1.4466
 4701TIP3   OH235593   0.080   1.030   3.619  0.4742  0.1460 -0.1644
 4701TIP3    H135594   0.079   1.103   3.681 -0.7987  1.7845 -1.9892
 4701TIP3    H235595   0.156   1.047   3.563  0.6830 -0.4158 -0.0538
 4702TIP3   OH235596   5.101   4.118   0.584 -0.0710  0.1417  0.2436
 4702TIP3    H135597   5.193   4.128   0.559 -0.5660 -1.7128 -2.7352
 4702TIP3    H235598   5.094   4.028   0.613 -1.4695 -0.8100 -2.6821
 4703TIP3   OH235599   1.684   5.793  16.603 -0.6633 -0.3133 -0.1559
 4703TIP3    H135600   1.683   5.751  16.517 -1.3197 -1.1670  0.2498
 4703TIP3    H235601   1.598   5.835  16.609 -1.0802 -1.2416  0.5402
 4704TIP3   OH235602   6.004   0.445   2.790 -0.2664 -0.3547  0.0841
 4704TIP3    H135603   6.098   0.459   2.781 -0.4573  1.2800  0.2272
 4704TIP3    H235604   5.967   0.475   2.707 -0.5898 -2.1257 -0.4465
 4705TIP3   OH235605   4.535   0.951  14.354 -0.3505 -0.7367  0.3268
 4705TIP3    H135606   4.586   0.940  14.274  2.2306  0.0992  1.7631
 4705TIP3    H235607   4.480   1.028  14.337  1.2233  0.3276 -0.1848
 4706TIP3   OH235608   6.629   0.752   2.383  0.1020  0.0673 -0.3966
 4706TIP3    H135609   6.690   0.694   2.337 -1.1205  0.1277 -2.1954
 4706TIP3    H235610   6.563   0.774   2.318  0.4134  3.4049  0.2440
 4707TIP3   OH235611   5.237   6.559  12.973 -0.1278 -0.3008  0.2596
 4707TIP3    H135612   5.328   6.580  12.949 -0.1789  1.2612  1.3130
 4707TIP3    H235613   5.244   6.516  13.058 -0.3939  0.3890  0.6402
 4708TIP3   OH235614   5.089   2.345  11.785 -0.3942 -0.1369 -0.4719
 4708TIP3    H135615   5.118   2.315  11.699  0.9413 -1.0840  0.2854
 4708TIP3    H235616   5.150   2.306  11.847 -0.8269  1.2029  0.8651
 4709TIP3   OH235617   5.321   2.373   1.312 -0.3223  0.1905  0.5766
 4709TIP3    H135618   5.360   2.298   1.357 -0.0664  0.1624  0.3159
 4709TIP3    H235619   5.319   2.442   1.377 -0.3389  0.0250  0.7515
 4710TIP3   OH235620   6.691   1.819  13.851 -0.5484 -0.0991  0.1163
 4710TIP3    H135621   6.641   1.891  13.814 -2.7360 -1.5966 -0.0070
 4710TIP3    H235622   6.781   1.836  13.824 -1.2716  1.6337 -1.3859
 4711TIP3   OH235623   0.101   0.720  13.248 -0.0290  0.1013  0.4001
 4711TIP3    H135624   0.165   0.762  13.305  0.5964  1.4388 -1.1860
 4711TIP3    H235625   0.016   0.751  13.279  0.3272  1.1479  0.3774
 4712TIP3   OH235626   3.843   2.471   1.326  0.3915 -0.1743  0.1732
 4712TIP3    H135627   3.811   2.415   1.256  0.4686  0.7583 -0.6318
 4712TIP3    H235628   3.776   2.465   1.394  1.5009 -3.0566  1.1477
 4713TIP3   OH235629   3.118   5.271  15.303 -0.2042  0.0924 -0.0033
 4713TIP3    H135630   3.064   5.319  15.366 -0.6317  0.6473 -0.7788
 4713TIP3    H235631   3.089   5.180  15.312  0.0301  0.0887  0.8837
 4714TIP3   OH235632   3.861   0.304   3.968  0.3220  0.4892 -0.2809
 4714TIP3    H135633   3.924   0.295   3.896  1.7911 -0.2135  1.0289
 4714TIP3    H235634   3.802   0.229   3.957  0.0554  0.8117 -1.1700
 4715TIP3   OH235635   3.796   4.034   5.915  0.1481 -0.4089 -0.4267
 4715TIP3    H135636   3.719   4.070   5.959 -0.6725  0.6223 -2.5616
 4715TIP3    H235637   3.837   4.109   5.872  1.9066 -1.0886 -0.0294
 4716TIP3   OH235638   4.882   6.765  12.526 -0.3200  0.1384 -0.1577
 4716TIP3    H135639   4.911   6.758  12.617  0.4005 -1.0090 -0.4532
 4716TIP3    H235640   4.901   6.679  12.488 -1.8035  0.1822 -1.0639
 4717TIP3   OH235641   5.754   2.272  16.014 -0.2925 -0.5588 -0.4044
 4717TIP3    H135642   5.839   2.300  16.048 -0.4644  1.1480 -1.2709
 4717TIP3    H235643   5.751   2.178  16.031  1.4418 -0.5168  0.3245
 4718TIP3   OH235644   3.465   2.600  11.466 -0.4739 -0.0503  0.2747
 4718TIP3    H135645   3.441   2.573  11.377 -0.6179  1.8491 -0.3045
 4718TIP3    H235646   3.560   2.593  11.468 -0.5713 -1.6665  0.5403
 4719TIP3   OH235647   3.626   1.308  12.844  0.2512  0.1398 -0.0003
 4719TIP3    H135648   3.639   1.317  12.938  1.1311  1.1310 -0.2010
 4719TIP3    H235649   3.646   1.216  12.825  0.2654 -0.0130  0.7443
 4720TIP3   OH235650   3.996   0.659   2.816  0.1838 -0.2547  0.3749
 4720TIP3    H135651   4.024   0.575   2.778  0.6145  0.0292  0.0587
 4720TIP3    H235652   3.981   0.715   2.740 -0.9175 -0.2912  0.5511
 4721TIP3   OH235653   3.408   2.226  15.881  0.1702  0.2333 -0.2086
 4721TIP3    H135654   3.318   2.257  15.869  0.6671  1.5555 -0.6301
 4721TIP3    H235655   3.461   2.285  15.828  1.2335 -0.9754 -0.5419
 4722TIP3   OH235656   4.156   3.468  15.705  0.3001 -0.0498  0.3897
 4722TIP3    H135657   4.232   3.472  15.763 -0.8363  1.6876  1.8882
 4722TIP3    H235658   4.188   3.427  15.625  2.7481  0.4790  1.0347
 4723TIP3   OH235659   6.718   6.741  12.328  0.0707  0.0987  0.0049
 4723TIP3    H135660   6.686   6.790  12.403 -1.7512 -0.9728 -0.0173
 4723TIP3    H235661   6.776   6.802  12.283 -0.7545  1.6280  0.9155
 4724TIP3   OH235662   5.553   4.271   5.610  0.1714 -0.1402 -0.3674
 4724TIP3    H135663   5.497   4.257   5.534 -1.3053 -2.4464  1.0243
 4724TIP3    H235664   5.511   4.344   5.657 -0.7996 -0.8006 -0.1669
 4725TIP3   OH235665   5.128   0.673   2.411  0.0868  0.0615 -0.0360
 4725TIP3    H135666   5.053   0.724   2.440  1.1425  1.7706 -0.2091
 4725TIP3    H235667   5.155   0.624   2.489 -0.3004  0.5960  0.4371
 4726TIP3   OH235668   1.770   6.060   2.910  0.5409  0.6259  0.3370
 4726TIP3    H135669   1.767   6.156   2.911  1.7021  0.6853 -0.0812
 4726TIP3    H235670   1.718   6.033   2.986 -1.0771  1.5334 -0.4028
 4727TIP3   OH235671   4.002   0.777   6.625 -0.5488  0.3931 -0.0275
 4727TIP3    H135672   4.089   0.804   6.656 -0.3974  1.7248 -1.5167
 4727TIP3    H235673   4.004   0.681   6.631  0.8917  0.4160  0.3032
 4728TIP3   OH235674   2.501   1.041  14.917  0.0140  0.3710  0.1723
 4728TIP3    H135675   2.587   1.015  14.951  1.7832  3.7870 -1.1903
 4728TIP3    H235676   2.464   1.096  14.986  0.3655  1.4421 -0.4753
 4729TIP3   OH235677   1.373   1.287  13.382  0.0128 -0.0089 -0.0298
 4729TIP3    H135678   1.350   1.321  13.468 -1.7470 -1.1613  0.0033
 4729TIP3    H235679   1.331   1.346  13.320 -0.5853 -0.4279 -0.0329
 4730TIP3   OH235680   4.923   0.947   1.868 -0.2910  0.0179  0.5610
 4730TIP3    H135681   4.989   0.971   1.933 -0.3171 -1.4921  1.1766
 4730TIP3    H235682   4.917   1.023   1.811 -0.4283  1.4989  2.4452
 4731TIP3   OH235683   2.244   3.742  15.730 -0.3165 -0.6359 -0.4648
 4731TIP3    H135684   2.173   3.735  15.794  2.6546  0.0160  3.2836
 4731TIP3    H235685   2.280   3.654  15.722  0.1983 -0.4705 -0.0646
 4732TIP3   OH235686   6.681   0.783  17.251  0.2249  0.3514  0.3696
 4732TIP3    H135687   6.701   0.780  17.344 -0.6556 -0.7289  0.5512
 4732TIP3    H235688   6.595   0.825  17.246 -0.1257 -0.3748  0.1356
 4733TIP3   OH235689   3.277   0.424  15.518  0.0485 -0.1901  0.3903
 4733TIP3    H135690   3.328   0.350  15.550  1.0945  0.5130  0.3716
 4733TIP3    H235691   3.301   0.432  15.426 -1.7187 -1.1671 -0.2250
 4734TIP3   OH235692   3.116   6.245   2.219 -0.2102  0.1304 -0.4258
 4734TIP3    H135693   3.196   6.207   2.182 -0.0286  0.1942 -0.1102
 4734TIP3    H235694   3.112   6.208   2.308  0.1361  1.0815  0.0013
 4735TIP3   OH235695   1.772   3.745   0.546 -0.0048 -0.5366  0.1720
 4735TIP3    H135696   1.724   3.662   0.543 -0.7383 -0.2846  2.6082
 4735TIP3    H235697   1.840   3.732   0.612  0.3524  0.5652  0.0461
 4736TIP3   OH235698   5.786   1.124  13.303 -0.2999 -0.2967 -0.7366
 4736TIP3    H135699   5.786   1.147  13.396  1.1092  1.3933 -1.0862
 4736TIP3    H235700   5.859   1.063  13.294 -0.0613 -0.0016 -0.8193
 4737TIP3   OH235701   2.299   1.483   4.246  0.2060 -0.5083 -0.2357
 4737TIP3    H135702   2.224   1.447   4.199 -0.3687  1.1263 -0.6495
 4737TIP3    H235703   2.317   1.566   4.202  2.8572 -1.2576 -0.7369
 4738TIP3   OH235704   0.368   4.703  15.231  0.3000 -0.2827  0.5087
 4738TIP3    H135705   0.296   4.651  15.195 -0.3489  0.5180  0.6206
 4738TIP3    H235706   0.404   4.750  15.156  0.6240 -0.5772  0.4766
 4739TIP3   OH235707   6.269   3.265   5.778 -0.0887 -0.3609 -0.5665
 4739TIP3    H135708   6.326   3.304   5.844  1.1702 -0.7115 -1.3902
 4739TIP3    H235709   6.193   3.234   5.826 -0.1753  1.2607  0.3910
 4740TIP3   OH235710   0.696   0.904  15.030 -0.1142  0.0811  0.0535
 4740TIP3    H135711   0.789   0.929  15.034 -0.0737  0.1382 -1.0066
 4740TIP3    H235712   0.665   0.939  14.947 -1.5585  1.5989  1.1767
 4741TIP3   OH235713   6.059   0.356   0.961 -0.0800  0.4694 -0.2003
 4741TIP3    H135714   5.967   0.349   0.987 -0.0739 -1.0540 -0.4714
 4741TIP3    H235715   6.084   0.446   0.983 -1.9788  1.3192 -1.2749
 4742TIP3   OH235716   6.603   3.873  15.282  0.9605 -0.0209  0.4568
 4742TIP3    H135717   6.512   3.847  15.302  0.4631  0.9087 -0.5196
 4742TIP3    H235718   6.627   3.931  15.354  1.0030 -0.7367  1.0349
 4743TIP3   OH235719   4.364   5.795   2.859  0.6732 -0.1487 -0.3030
 4743TIP3    H135720   4.410   5.713   2.839 -0.3976 -1.3223  1.7497
 4743TIP3    H235721   4.344   5.790   2.952  0.4915  2.4545 -0.1210
 4744TIP3   OH235722   3.295   0.411  14.793 -0.1467 -0.6366 -0.5294
 4744TIP3    H135723   3.226   0.347  14.781 -2.5452  1.1722  2.1052
 4744TIP3    H235724   3.371   0.360  14.823 -1.9092 -2.3383  1.3562
 4745TIP3   OH235725   5.795   6.235  13.685  0.8444  0.2092  0.6513
 4745TIP3    H135726   5.789   6.255  13.778  1.4559  1.9566  0.3361
 4745TIP3    H235727   5.877   6.187  13.675  0.5276 -0.4323  1.0662
 4746TIP3   OH235728   2.940   2.740  17.380 -0.0603  0.2965 -0.3261
 4746TIP3    H135729   3.024   2.706  17.411 -0.0558  0.3209 -0.3124
 4746TIP3    H235730   2.949   2.835  17.387  0.0901  0.3233 -0.7814
 4747TIP3   OH235731   4.096   2.912  14.551 -0.2557  0.4920  0.2804
 4747TIP3    H135732   4.144   2.830  14.535 -0.3357  0.3751  0.6312
 4747TIP3    H235733   4.022   2.909  14.491 -0.7406 -0.1005  0.8899
 4748TIP3   OH235734   1.305   5.857  13.178 -0.3111  0.0953  0.3334
 4748TIP3    H135735   1.385   5.859  13.229  0.7857  0.2528 -1.3015
 4748TIP3    H235736   1.282   5.949  13.166  1.1645  0.2477 -1.9323
 4749TIP3   OH235737   1.178   4.164   1.618  0.0071  0.2481  0.5175
 4749TIP3    H135738   1.247   4.110   1.579  1.0456 -0.7493  3.4896
 4749TIP3    H235739   1.224   4.240   1.652 -0.5775  0.2395  1.3345
 4750TIP3   OH235740   4.322   6.457   2.228  0.3721  0.2525 -0.4126
 4750TIP3    H135741   4.266   6.534   2.218 -0.5529  0.0684  2.4502
 4750TIP3    H235742   4.281   6.391   2.172 -0.9746  0.8063 -0.1279
 4751TIP3   OH235743   1.916   1.748  15.870 -0.4737 -0.2332  0.3070
 4751TIP3    H135744   1.830   1.711  15.892  0.3428 -2.6070 -0.1014
 4751TIP3    H235745   1.978   1.685  15.906  1.0955  1.1819  0.1575
 4752TIP3   OH235746   4.784   1.182  13.692 -0.0400  0.1650  0.1907
 4752TIP3    H135747   4.830   1.234  13.757  1.2588  1.4262 -1.6238
 4752TIP3    H235748   4.853   1.131  13.648 -0.6443  0.3716 -1.0595
 4753TIP3   OH235749   6.671   0.362  17.356  0.1674 -0.1084 -0.6246
 4753TIP3    H135750   6.644   0.425  17.289 -3.2724 -1.3810 -0.6177
 4753TIP3    H235751   6.650   0.405  17.439  0.3321 -0.2426 -0.5125
 4754TIP3   OH235752   5.787   0.131   1.045 -0.4143  0.1692 -0.2621
 4754TIP3    H135753   5.780   0.211   0.993  4.6311  1.4617  0.5696
 4754TIP3    H235754   5.834   0.158   1.124  2.7425 -3.7262 -0.5433
 4755TIP3   OH235755   2.624   0.808   4.318 -0.0747 -0.5360  0.6026
 4755TIP3    H135756   2.533   0.784   4.335 -0.1896 -0.2946  0.3373
 4755TIP3    H235757   2.650   0.860   4.394 -0.5588  0.4638  0.0919
 4756TIP3   OH235758   1.554   5.007   5.309  0.1273  0.1240 -0.4309
 4756TIP3    H135759   1.609   4.953   5.366 -0.3714  0.4443  0.3675
 4756TIP3    H235760   1.607   5.019   5.230  2.2475  2.3645  1.1801
 4757TIP3   OH235761   0.718   3.797  16.073  1.0139 -0.5473 -0.2825
 4757TIP3    H135762   0.766   3.841  16.003  1.2113 -1.0699 -0.4816
 4757TIP3    H235763   0.710   3.706  16.043  1.0743 -0.7705  0.3593
 4758TIP3   OH235764   3.234   5.843  17.335  0.3132 -0.9897  0.5025
 4758TIP3    H135765   3.268   5.765  17.291  0.1193 -1.6149  1.4224
 4758TIP3    H235766   3.281   5.845  17.419 -0.7840 -0.9954  1.1349
 4759TIP3   OH235767   1.026   6.133   6.311 -0.2927  0.0817 -0.4353
 4759TIP3    H135768   1.086   6.160   6.380 -1.0463  2.5511 -0.6592
 4759TIP3    H235769   0.990   6.215   6.276 -2.7727 -1.2209 -1.1985
 4760TIP3   OH235770   6.698   3.564   3.941  0.7589  0.1445  0.0640
 4760TIP3    H135771   6.642   3.635   3.907 -0.4115 -0.2778  1.0272
 4760TIP3    H235772   6.638   3.509   3.991  1.8598 -0.9488  0.2133
 4761TIP3   OH235773   0.345   6.542   5.201 -0.0141 -0.2587 -0.3206
 4761TIP3    H135774   0.381   6.514   5.117 -2.5650  0.6807 -1.8301
 4761TIP3    H235775   0.251   6.552   5.186 -0.8457 -1.5037  3.0715
 4762TIP3   OH235776   6.744   3.079  11.167 -0.4332 -0.0193  0.2288
 4762TIP3    H135777   6.709   2.990  11.169  1.7252 -0.9968 -1.2013
 4762TIP3    H235778   6.800   3.081  11.090  0.6067  2.1900  0.9506
 4763TIP3   OH235779   2.569   5.581   2.093  0.1659  0.4913  0.6705
 4763TIP3    H135780   2.517   5.584   2.174 -1.2582  0.7296 -0.2110
 4763TIP3    H235781   2.560   5.490   2.063  2.1660 -0.0824  1.6648
 4764TIP3   OH235782   4.110   5.295   0.199 -0.6915  0.3858  0.4021
 4764TIP3    H135783   4.105   5.232   0.271 -1.9838  0.2729  0.2248
 4764TIP3    H235784   4.029   5.345   0.204 -0.0667  1.4902  0.0128
 4765TIP3   OH235785   4.403   6.354  12.823 -0.3292 -0.1187 -0.6028
 4765TIP3    H135786   4.488   6.323  12.790 -0.7301 -0.8582 -0.9558
 4765TIP3    H235787   4.421   6.377  12.914  0.4158  0.4111 -0.8734
 4766TIP3   OH235788   4.396   2.563   5.550  0.3742  0.2571  0.3472
 4766TIP3    H135789   4.319   2.551   5.606  1.4789 -0.3372  1.8268
 4766TIP3    H235790   4.374   2.519   5.468 -1.5654  1.7230  0.0060
 4767TIP3   OH235791   6.327   3.184   4.309  0.1534 -0.2386  0.4488
 4767TIP3    H135792   6.278   3.110   4.346  2.6839 -1.3644  1.8174
 4767TIP3    H235793   6.363   3.150   4.227 -3.0755  1.3456 -1.8531
 4768TIP3   OH235794   6.193   1.571   1.732 -0.2379 -1.0562 -0.2235
 4768TIP3    H135795   6.156   1.519   1.803 -1.2515  0.4865  0.4336
 4768TIP3    H235796   6.149   1.539   1.654 -1.2316 -0.8616  0.2386
 4769TIP3   OH235797   0.981   2.097  16.790 -0.3827 -0.2582  0.1719
 4769TIP3    H135798   0.911   2.064  16.845  1.9718 -3.1882  1.6892
 4769TIP3    H235799   0.973   2.048  16.708 -0.2161 -0.4367  0.2625
 4770TIP3   OH235800   4.408   5.648  11.757 -0.1663  0.8268  0.0843
 4770TIP3    H135801   4.499   5.621  11.748 -0.5131 -0.2956 -0.1644
 4770TIP3    H235802   4.364   5.574  11.799 -0.9522  1.3690  0.2487
 4771TIP3   OH235803   1.248   0.392   1.363  0.6869  0.0756  0.0609
 4771TIP3    H135804   1.260   0.416   1.271 -3.0200 -0.1948 -0.6602
 4771TIP3    H235805   1.286   0.465   1.412 -0.1090  1.8474 -1.7958
 4772TIP3   OH235806   3.059   0.412  11.021 -0.1389 -0.0180  0.0876
 4772TIP3    H135807   3.053   0.462  10.939 -0.8805  1.7553  1.1502
 4772TIP3    H235808   2.976   0.430  11.066 -0.4302 -2.2666  0.5507
 4773TIP3   OH235809   5.431   3.122  10.868  0.1242  0.0181  0.2644
 4773TIP3    H135810   5.458   3.197  10.921 -1.0293 -0.5745  1.7863
 4773TIP3    H235811   5.396   3.160  10.788  0.8078  1.0286  0.4347
 4774TIP3   OH235812   4.614   0.200  17.031 -0.8776 -0.2587  0.0936
 4774TIP3    H135813   4.579   0.286  17.008 -0.8267 -1.3050 -5.1177
 4774TIP3    H235814   4.537   0.147  17.051 -1.1533  0.2819  0.4903
 4775TIP3   OH235815   4.352   6.677  17.078 -0.6871 -0.2313 -0.2863
 4775TIP3    H135816   4.350   6.764  17.118 -0.7168 -0.5033  0.3188
 4775TIP3    H235817   4.315   6.689  16.990 -4.2467 -0.2669  1.0500
 4776TIP3   OH235818   3.272   2.128  15.532  0.1510  0.0235 -0.5469
 4776TIP3    H135819   3.187   2.168  15.547  1.1681  2.0373  0.2664
 4776TIP3    H235820   3.315   2.186  15.468 -0.1178 -2.5796 -3.3221
 4777TIP3   OH235821   4.602   6.321   4.866  0.2371  0.2658  0.2794
 4777TIP3    H135822   4.621   6.372   4.944  1.0599  2.1246 -1.0639
 4777TIP3    H235823   4.635   6.374   4.794  1.3257 -2.2520 -1.2270
 4778TIP3   OH235824   4.810   1.481  15.519  0.0432 -0.2323  0.0284
 4778TIP3    H135825   4.885   1.447  15.470  1.7606  0.0772  2.2670
 4778TIP3    H235826   4.847   1.513  15.601 -2.6881 -1.0905  1.7545
 4779TIP3   OH235827   0.884   6.411  11.538 -0.2248 -0.3104 -0.3785
 4779TIP3    H135828   0.905   6.345  11.472 -1.2991 -2.3183  1.1685
 4779TIP3    H235829   0.950   6.400  11.605 -1.3005 -0.9279  0.6184
 4780TIP3   OH235830   1.120   4.223   5.625 -0.1122 -0.5297  0.1718
 4780TIP3    H135831   1.085   4.168   5.696 -0.4506  0.6751  0.9694
 4780TIP3    H235832   1.166   4.162   5.568 -0.0235 -1.5687  1.3131
 4781TIP3   OH235833   3.151   2.204   6.124 -0.4435  0.1279 -0.1076
 4781TIP3    H135834   3.211   2.270   6.161 -2.0622  2.8827 -2.0143
 4781TIP3    H235835   3.067   2.221   6.166 -0.6406 -1.6603  0.3003
 4782TIP3   OH235836   3.440   3.046   1.287  0.2338 -0.4778 -0.4683
 4782TIP3    H135837   3.445   2.972   1.347 -0.5441  1.3302  1.9865
 4782TIP3    H235838   3.518   3.098   1.307 -0.1662  0.2794 -0.8340
 4783TIP3   OH235839   6.630   3.485  15.949 -0.6235 -0.4190 -0.4541
 4783TIP3    H135840   6.704   3.543  15.933 -1.5507  0.4558 -1.8190
 4783TIP3    H235841   6.555   3.530  15.908 -1.6730 -1.8448 -0.1752
 4784TIP3   OH235842   4.278   2.965   2.955  0.0838 -0.5610 -0.0440
 4784TIP3    H135843   4.253   2.937   3.043  0.4932  0.4346  0.4124
 4784TIP3    H235844   4.289   3.060   2.963  1.7414 -0.6595 -0.7670
 4785TIP3   OH235845   1.707   4.337  11.387  0.0284  0.3822  0.1253
 4785TIP3    H135846   1.785   4.285  11.369  0.0282  0.1240  0.8318
 4785TIP3    H235847   1.653   4.282  11.444 -2.2944 -0.8818 -2.9804
 4786TIP3   OH235848   0.820   2.541  11.767 -0.3993 -0.3537  0.4728
 4786TIP3    H135849   0.780   2.568  11.850  1.9841 -0.1855  1.6667
 4786TIP3    H235850   0.813   2.618  11.710 -2.3279 -0.5676  0.3735
 4787TIP3   OH235851   4.783   3.588   6.505  0.3237  0.4436  0.3476
 4787TIP3    H135852   4.724   3.516   6.529 -0.7614  1.3060  0.3918
 4787TIP3    H235853   4.866   3.545   6.485 -0.6584 -0.9843 -0.9903
 4788TIP3   OH235854   2.498   2.690  12.390 -0.1504  0.2017 -0.3132
 4788TIP3    H135855   2.505   2.699  12.295  1.1799 -1.5029 -0.4350
 4788TIP3    H235856   2.404   2.678  12.406 -0.3429  0.0488 -1.4537
 4789TIP3   OH235857   6.076   6.671  11.774 -0.4908 -0.3282 -0.6036
 4789TIP3    H135858   6.050   6.687  11.865 -1.3445  0.0965 -0.9135
 4789TIP3    H235859   6.103   6.756  11.741 -0.2566 -0.4674 -0.7744
 4790TIP3   OH235860   6.439   5.541  15.503  0.1542 -0.5142  0.1523
 4790TIP3    H135861   6.450   5.636  15.494  1.1667 -0.7111 -0.9143
 4790TIP3    H235862   6.344   5.528  15.504 -0.0047  0.5270  0.7064
 4791TIP3   OH235863   0.321   6.466  12.033  0.1799 -0.5437 -0.2258
 4791TIP3    H135864   0.259   6.485  12.103 -0.2361  1.9290 -1.1639
 4791TIP3    H235865   0.331   6.549  11.987  2.7950 -1.3200 -1.2422
 4792TIP3   OH235866   4.645   0.428  14.141  0.2395 -0.3631  0.3413
 4792TIP3    H135867   4.627   0.383  14.224  1.7841 -2.2501 -0.2636
 4792TIP3    H235868   4.740   0.441  14.142 -0.0422  2.0702  0.0246
 4793TIP3   OH235869   4.841   0.313   4.486 -0.0636 -0.1937  0.4377
 4793TIP3    H135870   4.851   0.380   4.419 -0.1899 -0.9592 -0.3547
 4793TIP3    H235871   4.928   0.275   4.497  0.0949  0.3599  1.1759
 4794TIP3   OH235872   2.582   4.746   1.435  0.4188 -0.4566 -0.6917
 4794TIP3    H135873   2.637   4.791   1.500  0.8885  0.2414 -1.5409
 4794TIP3    H235874   2.534   4.816   1.393 -1.1579 -1.0683  0.0269
 4795TIP3   OH235875   1.288   0.718   3.743  0.2054  0.0598 -0.2745
 4795TIP3    H135876   1.201   0.713   3.782  0.2552  1.4068  0.0414
 4795TIP3    H235877   1.313   0.626   3.730 -0.9231 -0.3634  0.3666
 4796TIP3   OH235878   0.752   3.367  13.906 -0.1691  0.1567  0.1534
 4796TIP3    H135879   0.752   3.293  13.846 -0.8026 -0.1290  0.5006
 4796TIP3    H235880   0.845   3.392  13.914 -0.0808  0.2433 -0.9848
 4797TIP3   OH235881   5.507   3.744   3.420  0.2410  0.4062 -0.0174
 4797TIP3    H135882   5.589   3.738   3.370  0.6406 -0.6830  0.7357
 4797TIP3    H235883   5.516   3.678   3.488 -1.2555  0.3105  0.1101
 4798TIP3   OH235884   3.961   1.355   3.473  0.1741 -0.6602 -0.8667
 4798TIP3    H135885   4.002   1.414   3.410  0.0218 -0.4817 -0.7998
 4798TIP3    H235886   4.032   1.330   3.532  0.3182 -0.8318 -1.1105
 4799TIP3   OH235887   6.499   3.433  14.376 -0.1428 -0.5797 -0.1479
 4799TIP3    H135888   6.418   3.392  14.344 -1.0967  0.6412  0.5845
 4799TIP3    H235889   6.472   3.523  14.399  1.4236 -0.1636  0.1470
 4800TIP3   OH235890   3.617   1.698  16.831 -0.3124  0.2700  0.0952
 4800TIP3    H135891   3.662   1.748  16.899 -0.9258 -0.3065  0.9375
 4800TIP3    H235892   3.563   1.763  16.786  1.1454  0.9282 -0.7798
 4801TIP3   OH235893   2.075   3.571  14.982  0.3646 -0.5252 -0.7781
 4801TIP3    H135894   2.093   3.504  15.047  1.9069  0.7508  0.1963
 4801TIP3    H235895   2.161   3.593  14.946  0.0244  1.4440 -0.5006
 4802TIP3   OH235896   3.292   0.956  13.247 -0.1657 -0.0243  0.1495
 4802TIP3    H135897   3.255   0.931  13.162 -0.0150  1.7040 -0.4693
 4802TIP3    H235898   3.238   1.030  13.275  0.0990 -0.2723  1.3407
 4803TIP3   OH235899   1.805   0.811  10.952 -0.5533  0.1853 -0.0176
 4803TIP3    H135900   1.883   0.757  10.935  0.0312  0.9061  0.2945
 4803TIP3    H235901   1.785   0.851  10.867 -1.6021 -1.2684 -0.4981
 4804TIP3   OH235902   4.056   1.532   2.489 -0.1813 -0.0674 -0.5997
 4804TIP3    H135903   4.041   1.593   2.417  0.2325 -0.8240 -1.3443
 4804TIP3    H235904   3.970   1.494   2.507 -0.0232 -1.0782 -1.8206
 4805TIP3   OH235905   2.893   2.456  13.083  0.9727  0.6801 -0.0397
 4805TIP3    H135906   2.983   2.488  13.077  2.2548 -1.9298  2.8131
 4805TIP3    H235907   2.868   2.472  13.174 -0.5676 -0.6671 -0.1922
 4806TIP3   OH235908   6.702   4.053  12.738  0.1362  0.2558  0.2457
 4806TIP3    H135909   6.715   4.146  12.755 -0.4832  0.3306  0.3438
 4806TIP3    H235910   6.751   4.037  12.657  0.9461  0.4690  0.6809
 4807TIP3   OH235911   4.268   3.600  14.355 -0.2023 -0.0597  0.1916
 4807TIP3    H135912   4.335   3.562  14.297 -1.4474 -0.7900 -0.8363
 4807TIP3    H235913   4.296   3.575  14.443  0.8837 -0.3415 -0.2097
 4808TIP3   OH235914   1.574   3.388  17.169  0.9828  0.7601  0.7774
 4808TIP3    H135915   1.610   3.338  17.095  1.2802  2.1407 -0.0518
 4808TIP3    H235916   1.562   3.323  17.238 -0.1565 -0.7562 -0.7634
 4809TIP3   OH235917   2.927   2.086   1.579 -0.1648 -0.1724  0.2944
 4809TIP3    H135918   2.877   2.072   1.659 -0.0266 -0.3044  0.3584
 4809TIP3    H235919   2.872   2.050   1.509 -0.5499  0.4856  0.2570
 4810TIP3   OH235920   1.974   6.710  12.733 -0.5138 -0.3508  0.4075
 4810TIP3    H135921   2.052   6.668  12.770  0.7369  1.2985 -0.1975
 4810TIP3    H235922   1.961   6.787  12.788 -0.9342  0.0736 -0.2834
 4811TIP3   OH235923   5.586   4.197  15.555 -0.5014 -0.3084  0.1590
 4811TIP3    H135924   5.572   4.128  15.620  1.1389 -0.1089  0.7669
 4811TIP3    H235925   5.535   4.271  15.587  0.3789 -0.1773  1.3090
 4812TIP3   OH235926   4.375   4.867  15.724 -0.0717 -0.4357  0.3452
 4812TIP3    H135927   4.357   4.792  15.669  1.2811  0.8743 -2.0603
 4812TIP3    H235928   4.293   4.917  15.725 -0.2842 -0.7760  0.0268
 4813TIP3   OH235929   6.434   5.704   1.490  0.2002 -0.0481  0.5300
 4813TIP3    H135930   6.518   5.740   1.518 -0.4387  1.6224  0.4062
 4813TIP3    H235931   6.422   5.736   1.401 -0.0747 -1.1949  0.1385
 4814TIP3   OH235932   3.692   4.558   3.256  0.2578  0.0822 -0.1113
 4814TIP3    H135933   3.784   4.558   3.228  0.0759 -2.3330 -0.9330
 4814TIP3    H235934   3.643   4.533   3.178 -0.9623 -0.1612  0.7046
 4815TIP3   OH235935   2.532   1.106  16.520  0.2336 -0.3907  0.3245
 4815TIP3    H135936   2.472   1.034  16.502  0.4057 -0.3656 -0.3750
 4815TIP3    H235937   2.570   1.128  16.435 -0.0432  0.7288  0.4624
 4816TIP3   OH235938   2.962   1.423   0.541 -0.0383 -0.2384  0.1349
 4816TIP3    H135939   2.952   1.479   0.464 -0.5340  0.9722  1.0403
 4816TIP3    H235940   2.878   1.428   0.585  0.8779  0.8380  1.8702
 4817TIP3   OH235941   5.528   4.434  13.289 -0.0971  0.2840  0.2652
 4817TIP3    H135942   5.552   4.343  13.269 -1.3017  0.4037 -2.0031
 4817TIP3    H235943   5.456   4.426  13.351 -2.3853 -0.5085 -2.3236
 4818TIP3   OH235944   2.095   6.713   6.959  0.0909 -0.1497  0.0363
 4818TIP3    H135945   2.114   6.750   7.045  0.6105  1.2397 -0.6477
 4818TIP3    H235946   2.007   6.743   6.938  0.3675  0.3936 -0.3587
 4819TIP3   OH235947   2.362   2.114  11.919  0.5563 -0.4198  0.1149
 4819TIP3    H135948   2.378   2.071  11.835 -0.1657 -0.2648 -0.1099
 4819TIP3    H235949   2.352   2.042  11.982 -3.7578 -0.8637 -0.7762
 4820TIP3   OH235950   0.435   4.098   0.075  0.3733  0.1930 -0.2237
 4820TIP3    H135951   0.448   4.074   0.167  0.3979  0.1417 -0.2408
 4820TIP3    H235952   0.515   4.146   0.052 -0.2756  1.5302  0.2245
 4821TIP3   OH235953   0.840   6.289  13.199 -0.7029  0.2200 -0.3299
 4821TIP3    H135954   0.878   6.272  13.113 -0.1359  1.3422 -0.3128
 4821TIP3    H235955   0.914   6.283  13.259 -1.0232 -0.1360  0.0318
 4822TIP3   OH235956   4.595   2.655   2.740  0.0506  0.2179 -0.1113
 4822TIP3    H135957   4.653   2.666   2.665  0.9627  1.0017  0.6850
 4822TIP3    H235958   4.507   2.658   2.703  0.4840 -1.2711 -1.3835
 4823TIP3   OH235959   0.029   5.612   0.133  0.1820 -0.0693 -0.0756
 4823TIP3    H135960   0.036   5.539   0.194 -0.8329  0.5641  0.8373
 4823TIP3    H235961   0.067   5.686   0.181 -0.3829  0.3762 -0.3022
 4824TIP3   OH235962   3.659   6.259   1.065  0.0194 -0.4871 -0.2283
 4824TIP3    H135963   3.719   6.206   1.013 -0.2063  0.1247 -1.1378
 4824TIP3    H235964   3.700   6.346   1.068 -0.4869 -0.2459 -0.2747
 4825TIP3   OH235965   5.947   4.589  10.569 -0.2001  0.1869  0.3868
 4825TIP3    H135966   6.003   4.514  10.588 -0.5946 -0.5101 -1.0456
 4825TIP3    H235967   5.858   4.558  10.588 -0.3056  0.5212  0.4473
 4826TIP3   OH235968   4.713   0.550  12.907 -0.1296 -0.0799 -0.5716
 4826TIP3    H135969   4.618   0.555  12.903 -0.0114  2.2214 -1.5955
 4826TIP3    H235970   4.737   0.497  12.831 -0.5372  0.2525 -0.9345
 4827TIP3   OH235971   2.723   2.849  11.290  0.4353 -0.6049 -0.7307
 4827TIP3    H135972   2.817   2.851  11.272  0.2654  2.1940 -1.7880
 4827TIP3    H235973   2.682   2.882  11.210 -1.0376  3.2653  1.3475
 4828TIP3   OH235974   4.126   4.377  16.677 -0.5034  0.2093  0.0287
 4828TIP3    H135975   4.059   4.336  16.732 -0.4007  0.9267  0.7194
 4828TIP3    H235976   4.077   4.425  16.611 -0.6797  0.6833  0.4977
 4829TIP3   OH235977   6.047   3.357   2.149  0.0245  0.2121  0.0892
 4829TIP3    H135978   6.066   3.268   2.179 -0.4810  0.1899  0.3665
 4829TIP3    H235979   6.095   3.365   2.066  0.9161  0.0442  0.5730
 4830TIP3   OH235980   6.344   4.703   1.590 -0.0379  0.3342 -0.5043
 4830TIP3    H135981   6.342   4.754   1.671  0.1740 -1.1614  0.4924
 4830TIP3    H235982   6.437   4.695   1.569 -0.0676  0.3047 -0.6230
 4831TIP3   OH235983   2.253   4.993   2.268 -0.1266 -0.3788  0.5396
 4831TIP3    H135984   2.275   5.075   2.312 -1.6686  0.0388  0.5951
 4831TIP3    H235985   2.201   5.019   2.192  0.6880 -1.2242 -0.3369
 4832TIP3   OH235986   1.727   0.114  12.331 -0.3184 -0.0547  0.0348
 4832TIP3    H135987   1.817   0.085  12.318  0.2059  1.5604 -0.1565
 4832TIP3    H235988   1.704   0.160  12.250 -1.3004 -0.3779  0.1113
 4833TIP3   OH235989   2.846   1.781   2.008 -0.3311  0.1994 -0.0746
 4833TIP3    H135990   2.880   1.756   1.922 -2.4033  1.0629 -1.2203
 4833TIP3    H235991   2.787   1.709   2.032  0.0333  0.0922  0.5179
 4834TIP3   OH235992   3.292   1.295   0.023  0.3639  0.9453 -0.4372
 4834TIP3    H135993   3.351   1.246  -0.034  3.9139  3.0532  1.0827
 4834TIP3    H235994   3.263   1.232   0.088 -0.6424 -0.5883 -2.3011
 4835TIP3   OH235995   4.181   3.060   5.033 -0.3874 -0.8436 -0.0642
 4835TIP3    H135996   4.142   2.974   5.047 -0.7330 -0.5920  0.5458
 4835TIP3    H235997   4.177   3.073   4.938  0.1274 -1.7067 -0.2156
 4836TIP3   OH235998   1.615   3.650   3.499 -0.0631 -0.4759  0.1665
 4836TIP3    H135999   1.570   3.612   3.423 -1.0711  0.7855  0.1056
 4836TIP3    H236000   1.696   3.686   3.462 -1.1850  1.3831 -0.6355
 4837TIP3   OH236001   1.757   6.174   5.220 -0.2124  0.7828  0.3454
 4837TIP3    H136002   1.762   6.085   5.183  1.7153  1.1703 -0.4479
 4837TIP3    H236003   1.677   6.211   5.183 -1.6506 -0.9638  1.5506
 4838TIP3   OH236004   0.602   4.179  16.436 -0.3435  0.6449 -0.1457
 4838TIP3    H136005   0.615   4.140  16.350  1.6490  1.4537 -0.2597
 4838TIP3    H236006   0.599   4.104  16.496  1.5880  0.1632 -0.5736
 4839TIP3   OH236007   1.404   4.838   6.826 -0.8970  0.7139  0.4467
 4839TIP3    H136008   1.384   4.834   6.920 -2.8063  1.8948  0.1481
 4839TIP3    H236009   1.343   4.903   6.792  1.9691  2.8458 -1.0682
 4840TIP3   OH236010   4.655   1.352  12.996 -0.1910 -0.2595  0.0618
 4840TIP3    H136011   4.713   1.346  13.072  0.2978 -1.4175 -0.3693
 4840TIP3    H236012   4.710   1.329  12.922 -0.9710 -0.4266 -0.4834
 4841TIP3   OH236013   5.705   3.317  14.767 -0.0441  0.5134 -0.3977
 4841TIP3    H136014   5.768   3.247  14.783 -0.7603 -0.0097  0.2008
 4841TIP3    H236015   5.747   3.396  14.802  0.8014  0.4102 -1.1487
 4842TIP3   OH236016   2.358   0.991   1.253  0.0441  0.5450 -0.0166
 4842TIP3    H136017   2.360   1.073   1.204 -0.2332  0.6132  0.0870
 4842TIP3    H236018   2.444   0.951   1.237  0.0546  0.6968 -0.3368
 4843TIP3   OH236019   6.230   5.580  14.216 -0.4401  0.1676 -0.1312
 4843TIP3    H136020   6.282   5.629  14.279 -0.7079  0.6412 -0.2739
 4843TIP3    H236021   6.264   5.606  14.130 -0.5096  0.0201 -0.2058
 4844TIP3   OH236022   0.702   3.317   6.822  0.1372 -0.2201 -0.4343
 4844TIP3    H136023   0.771   3.268   6.867  0.3361 -0.4073 -0.9310
 4844TIP3    H236024   0.739   3.337   6.736  0.5806  1.9787  0.2143
 4845TIP3   OH236025   4.690   4.858  17.031 -0.3455  0.3917  0.2638
 4845TIP3    H136026   4.711   4.805  16.954 -0.7506  0.6502 -0.0313
 4845TIP3    H236027   4.597   4.878  17.022 -0.5549 -0.1368  1.1804
 4846TIP3   OH236028   0.641   2.921   4.638  0.0806 -0.2133 -1.0789
 4846TIP3    H136029   0.695   2.997   4.619  0.2128  0.3386  1.1663
 4846TIP3    H236030   0.568   2.955   4.691  0.6544 -1.7169  0.8015
 4847TIP3   OH236031   3.178   3.198  11.895  0.3638 -0.6824 -0.3475
 4847TIP3    H136032   3.198   3.113  11.855  3.0681 -0.4368  0.3504
 4847TIP3    H236033   3.157   3.255  11.820  2.1292 -1.0621 -1.1818
 4848TIP3   OH236034   2.564   0.592  16.180 -0.2491  0.5259 -0.1303
 4848TIP3    H136035   2.595   0.609  16.091  0.9199 -0.4720  0.0635
 4848TIP3    H236036   2.536   0.677  16.212 -0.3669  0.9574 -1.3324
 4849TIP3   OH236037   0.220   3.528  17.132 -0.1245  0.2995  0.2709
 4849TIP3    H136038   0.138   3.518  17.083  1.2322 -0.7196 -1.9541
 4849TIP3    H236039   0.219   3.458  17.196 -0.7488 -0.0359 -0.0959
 4850TIP3   OH236040   4.955   4.584   1.997 -0.0598  0.0389 -0.4663
 4850TIP3    H136041   5.032   4.540   2.032 -1.3206 -1.1339  0.9085
 4850TIP3    H236042   4.918   4.632   2.071 -0.2567  1.2358 -1.2960
 4851TIP3   OH236043   6.644   2.090   2.325 -0.0878  0.1893  0.2892
 4851TIP3    H136044   6.702   2.021   2.358 -0.3786 -0.7619 -1.1100
 4851TIP3    H236045   6.688   2.125   2.248 -0.8053  0.2739 -0.0976
 4852TIP3   OH236046   4.655   5.118  14.369 -0.1595  0.7344  0.1813
 4852TIP3    H136047   4.676   5.156  14.284  1.5136  1.3683  0.8332
 4852TIP3    H236048   4.577   5.065  14.353 -0.2979  1.4083 -1.5806
 4853TIP3   OH236049   1.313   2.345   2.995 -0.4303  0.3036  0.0877
 4853TIP3    H136050   1.385   2.316   2.939 -0.9948  1.2236 -1.1586
 4853TIP3    H236051   1.325   2.296   3.077  1.6161  0.4554 -0.0705
 4854TIP3   OH236052   5.662   6.341  17.059  0.6187 -0.4124 -0.1700
 4854TIP3    H136053   5.622   6.385  16.984 -1.0590  1.5869  1.7276
 4854TIP3    H236054   5.753   6.329  17.034  0.0923  0.0182 -2.5543
 4855TIP3   OH236055   6.451   0.838   2.177 -0.0221 -0.2624 -0.1256
 4855TIP3    H136056   6.456   0.924   2.134 -2.4809  1.0948  2.0484
 4855TIP3    H236057   6.453   0.775   2.105  2.4903  1.4963 -1.7776
 4856TIP3   OH236058   1.563   1.529  16.440  0.0768 -0.2944  0.5604
 4856TIP3    H136059   1.539   1.579  16.361  2.7535  0.0157 -0.1913
 4856TIP3    H236060   1.527   1.442  16.426 -1.5245  0.4134  0.1361
 4857TIP3   OH236061   6.434   4.414   0.953  0.2453 -0.3124 -0.4085
 4857TIP3    H136062   6.412   4.339   0.899 -1.8887 -0.6020  0.7391
 4857TIP3    H236063   6.506   4.383   1.009 -0.5328 -1.4767 -0.0246
 4858TIP3   OH236064   0.278   0.239   4.479 -0.4781 -0.7732  0.6079
 4858TIP3    H136065   0.271   0.240   4.574 -2.5936  0.3304  0.4978
 4858TIP3    H236066   0.338   0.312   4.459 -1.7388  0.4229  1.0442
 4859TIP3   OH236067   1.747   1.171   2.948  0.1768 -0.7078 -0.7537
 4859TIP3    H136068   1.689   1.247   2.939  1.1465  0.1124 -0.2597
 4859TIP3    H236069   1.747   1.152   3.041  2.3843  0.7060 -0.3849
 4860TIP3   OH236070   1.342   5.401  16.360  0.4788  0.0787  0.1947
 4860TIP3    H136071   1.296   5.406  16.444  0.6432  1.0160  0.2378
 4860TIP3    H236072   1.274   5.379  16.297  0.2658 -0.1284  0.4928
 4861TIP3   OH236073   3.455   3.144   5.391 -0.0971 -0.6536 -0.1430
 4861TIP3    H136074   3.492   3.225   5.356 -1.5782 -0.2787 -0.9092
 4861TIP3    H236075   3.518   3.076   5.366  0.8801  0.1664  0.0192
 4862TIP3   OH236076   4.300   0.363   0.616  0.2890  0.2667  0.2264
 4862TIP3    H136077   4.378   0.321   0.649  0.6320  1.4918  1.0344
 4862TIP3    H236078   4.244   0.376   0.693 -0.3619  0.1146 -0.2108
 4863TIP3   OH236079   5.757   6.250   3.922  0.0984  0.1217  0.3218
 4863TIP3    H136080   5.815   6.276   3.993 -1.6054  0.3425  1.6747
 4863TIP3    H236081   5.793   6.294   3.845  0.9442  1.3438  1.3778
 4864TIP3   OH236082   6.542   2.158  16.068 -0.0391  0.0122  0.3719
 4864TIP3    H136083   6.533   2.063  16.081 -2.5637 -0.0022 -0.8227
 4864TIP3    H236084   6.599   2.166  15.991  0.6475 -0.4873  0.8120
 4865TIP3   OH236085   6.329   5.813   1.918 -1.1269 -0.4433 -0.3298
 4865TIP3    H136086   6.342   5.732   1.968  0.1608 -2.0850 -3.0599
 4865TIP3    H236087   6.412   5.826   1.872 -1.5187  2.1314 -0.4507
 4866TIP3   OH236088   5.931   3.805   0.425 -0.1799 -0.1398 -0.4703
 4866TIP3    H136089   5.921   3.883   0.480 -0.9250 -1.2133  0.9921
 4866TIP3    H236090   5.934   3.839   0.335 -0.7703  1.5381  0.1038
 4867TIP3   OH236091   6.435   2.346   3.770 -0.1084  0.1528 -0.3593
 4867TIP3    H136092   6.351   2.301   3.776 -0.5254  0.7494 -1.5101
 4867TIP3    H236093   6.462   2.357   3.861 -1.3459  0.0799  0.0379
 4868TIP3   OH236094   6.157   0.226   1.199  0.0960 -0.0514 -0.4911
 4868TIP3    H136095   6.083   0.206   1.257  0.2871  0.0785 -0.2041
 4868TIP3    H236096   6.117   0.231   1.111 -0.5352  1.7773 -0.1335
 4869TIP3   OH236097   1.306   6.228  15.153 -0.3455 -0.1235  0.4658
 4869TIP3    H136098   1.359   6.230  15.073  0.6085  2.4198  1.0774
 4869TIP3    H236099   1.308   6.137  15.181  1.2391 -0.6353 -1.1451
 4870TIP3   OH236100   6.347   2.946   2.094  0.1256  0.1834  0.2358
 4870TIP3    H136101   6.399   2.882   2.142  0.1536  0.0357  0.0110
 4870TIP3    H236102   6.375   2.936   2.003  1.2494  1.5677  0.3874
 4871TIP3   OH236103   4.543   1.318   2.622 -0.4626 -0.1095  0.2588
 4871TIP3    H136104   4.502   1.365   2.549 -1.3576 -2.3287 -0.7731
 4871TIP3    H236105   4.586   1.243   2.581 -1.2840 -1.6142  1.9942
 4872TIP3   OH236106   4.120   1.292   3.213 -0.4847  0.1661  0.3035
 4872TIP3    H136107   4.180   1.307   3.140 -0.4508  0.4155  0.3813
 4872TIP3    H236108   4.034   1.316   3.178 -0.2112  2.2533  0.9444
 4873TIP3   OH236109   5.566   3.944  11.421 -0.0672 -0.0597  0.2216
 4873TIP3    H136110   5.606   4.010  11.363  1.1451  0.8539  1.9850
 4873TIP3    H236111   5.524   3.995  11.490 -0.8591 -1.1201  0.5493
 4874TIP3   OH236112   1.735   4.941  14.034 -0.8771  0.0754 -0.7310
 4874TIP3    H136113   1.790   4.876  14.078 -0.0859  1.6937  0.8309
 4874TIP3    H236114   1.723   4.907  13.945 -0.3046 -2.0444 -0.0445
 4875TIP3   OH236115   5.799   6.186   4.964  0.1359 -0.7263  0.0540
 4875TIP3    H136116   5.746   6.240   4.905  0.5813 -1.5654 -1.1358
 4875TIP3    H236117   5.883   6.232   4.968  0.2765 -0.9428 -0.3820
 4876TIP3   OH236118   1.802   0.921  10.709 -0.2329  0.2512  0.1927
 4876TIP3    H136119   1.759   0.913  10.624  0.6151  0.8169 -0.3103
 4876TIP3    H236120   1.778   1.008  10.740 -2.4030 -0.7709  1.6317
 4877TIP3   OH236121   0.670   1.017   2.814 -0.0975 -0.0084 -0.5598
 4877TIP3    H136122   0.747   1.009   2.758 -0.4198 -3.3477 -0.6753
 4877TIP3    H236123   0.671   1.109   2.842  4.1370  0.0363 -0.2141
 4878TIP3   OH236124   2.609   6.406  14.161  0.2570 -0.5004 -0.0846
 4878TIP3    H136125   2.567   6.491  14.175  2.0931  0.4506 -0.1347
 4878TIP3    H236126   2.627   6.403  14.068  0.2099 -0.9566 -0.0815
 4879TIP3   OH236127   5.420   2.389   4.351 -0.2356 -0.0205  0.3461
 4879TIP3    H136128   5.366   2.310   4.348 -0.5912  0.2545 -0.6805
 4879TIP3    H236129   5.509   2.356   4.358 -0.2653 -0.5706 -1.4102
 4880TIP3   OH236130   3.796   3.965  12.260 -0.1597 -0.4261  0.0778
 4880TIP3    H136131   3.838   4.037  12.213  0.4638 -1.5783 -1.1895
 4880TIP3    H236132   3.868   3.907  12.284 -0.4420  0.1069  2.5489
 4881TIP3   OH236133   0.229   3.131  12.798  0.3133 -0.3298 -0.7738
 4881TIP3    H136134   0.268   3.190  12.734 -1.1697  0.0139 -1.4173
 4881TIP3    H236135   0.147   3.175  12.823  0.0425 -1.2869  0.0531
 4882TIP3   OH236136   4.139   2.933  15.930  0.1178  0.5891 -0.7272
 4882TIP3    H136137   4.182   2.864  15.880 -0.7017 -0.3317 -0.1868
 4882TIP3    H236138   4.132   2.899  16.019 -3.0766  0.0098 -1.0865
 4883TIP3   OH236139   4.504   1.490   3.279 -0.2560 -0.3663  0.7143
 4883TIP3    H136140   4.558   1.418   3.245 -0.5900 -0.1733 -0.2575
 4883TIP3    H236141   4.489   1.546   3.203 -2.2977 -0.7052  0.8063
 4884TIP3   OH236142   5.817   2.737  14.579 -0.3191 -0.6907  0.2572
 4884TIP3    H136143   5.908   2.724  14.605 -0.3237 -0.5903  0.3273
 4884TIP3    H236144   5.779   2.650  14.579  0.2090 -0.9562 -1.4417
 4885TIP3   OH236145   0.528   0.412  16.069  0.1992  0.4818  0.1659
 4885TIP3    H136146   0.539   0.502  16.099  0.6117  0.3449  0.4337
 4885TIP3    H236147   0.512   0.419  15.975  0.2130  0.8359  0.1922
 4886TIP3   OH236148   1.247   5.903   4.297 -0.3375  0.2823 -0.3813
 4886TIP3    H136149   1.231   5.916   4.390  1.5345  0.9701 -0.1077
 4886TIP3    H236150   1.206   5.979   4.255  1.2354  1.4962  0.1898
 4887TIP3   OH236151   0.269   6.625  11.618  0.1271  0.3437 -0.7619
 4887TIP3    H136152   0.257   6.680  11.540 -0.4345  1.1551 -0.1159
 4887TIP3    H236153   0.208   6.553  11.605 -1.1232  1.2856 -0.3662
 4888TIP3   OH236154   6.388   5.440  14.458  0.1677 -0.2352 -0.1651
 4888TIP3    H136155   6.350   5.370  14.405  0.5832  0.4780 -1.4532
 4888TIP3    H236156   6.480   5.442  14.432  1.1415 -1.7518  2.6972
 4889TIP3   OH236157   3.288   5.284   0.281 -0.3627 -0.2141  0.6452
 4889TIP3    H136158   3.262   5.193   0.294 -0.2522 -0.2546  0.5825
 4889TIP3    H236159   3.206   5.331   0.266 -0.4737 -0.2006  1.2923
 4890TIP3   OH236160   0.732   0.508   0.886  0.1690  0.0664  0.7362
 4890TIP3    H136161   0.707   0.443   0.819  1.3758 -0.5068  0.8204
 4890TIP3    H236162   0.808   0.470   0.929  2.5536  2.6380 -0.8950
 4891TIP3   OH236163   0.850   5.415   2.947  0.0281 -0.2099  0.0477
 4891TIP3    H136164   0.822   5.383   2.861  0.2407  0.9177 -0.4568
 4891TIP3    H236165   0.777   5.470   2.976  0.1779 -0.1857  0.3784
 4892TIP3   OH236166   5.290   1.984  11.017 -0.1916  0.2922 -0.3971
 4892TIP3    H136167   5.351   2.054  10.992 -0.3649  0.6613  0.1964
 4892TIP3    H236168   5.217   2.030  11.059 -1.2728 -0.0672 -1.7992
 4893TIP3   OH236169   0.937   1.837   2.527  0.5080  0.2805 -0.0803
 4893TIP3    H136170   0.914   1.751   2.492 -1.1231  0.9679 -0.8008
 4893TIP3    H236171   0.983   1.881   2.455 -0.3996  0.6982 -0.4198
 4894TIP3   OH236172   4.497   6.675   2.566  0.0159  0.1424 -0.1553
 4894TIP3    H136173   4.585   6.712   2.569  0.6327 -1.2963  2.4156
 4894TIP3    H236174   4.471   6.684   2.474  2.5698  1.1828 -0.8789
 4895TIP3   OH236175   3.872   5.584  17.373 -0.2099 -0.4892 -0.1107
 4895TIP3    H136176   3.884   5.634  17.292 -1.2137 -1.0335 -0.6165
 4895TIP3    H236177   3.784   5.547  17.365  1.3576 -4.5706 -1.0943
 4896TIP3   OH236178   5.834   2.599  11.119  0.2717  0.5530 -0.3947
 4896TIP3    H136179   5.798   2.525  11.071 -0.0686  1.7252 -2.0079
 4896TIP3    H236180   5.785   2.675  11.088  0.4724  1.4560  1.3668
 4897TIP3   OH236181   0.531   0.124   1.052 -0.3974  0.6631 -0.0689
 4897TIP3    H136182   0.457   0.114   1.111 -1.7440 -1.3798 -1.9468
 4897TIP3    H236183   0.493   0.157   0.970  0.8543  0.2237 -0.8706
 4898TIP3   OH236184   2.071   3.562   1.871  0.3153 -0.2283  0.7298
 4898TIP3    H136185   2.061   3.588   1.779 -1.0694 -4.8565 -0.7055
 4898TIP3    H236186   1.994   3.600   1.914 -0.0921  0.3587 -0.4454
 4899TIP3   OH236187   5.594   3.891   1.219  0.6974 -0.7179  0.3201
 4899TIP3    H136188   5.533   3.950   1.263  1.3451 -0.2950  0.6603
 4899TIP3    H236189   5.580   3.806   1.261 -2.5161 -1.6660 -2.2708
 4900TIP3   OH236190   2.504   4.518  16.452 -0.3791 -0.1066  0.2146
 4900TIP3    H136191   2.503   4.443  16.511  1.4298  1.7009  2.7536
 4900TIP3    H236192   2.587   4.510  16.404  0.0456  0.4844  0.8366
 4901TIP3   OH236193   2.689   0.514   4.542 -0.0809  0.6761  0.4185
 4901TIP3    H136194   2.606   0.537   4.500  0.4395  2.8246  0.4394
 4901TIP3    H236195   2.755   0.533   4.475  0.4167 -1.2511  0.3111
 4902TIP3   OH236196   6.284   5.022  12.107  0.1931  0.7710  0.0033
 4902TIP3    H136197   6.370   4.983  12.122 -0.1960  0.3211  1.1804
 4902TIP3    H236198   6.275   5.088  12.175 -0.5970  0.4535  0.2180
 4903TIP3   OH236199   3.622   3.639  13.199 -1.0748 -0.0848 -0.0053
 4903TIP3    H136200   3.680   3.677  13.133 -0.7519 -0.1883  0.2173
 4903TIP3    H236201   3.679   3.621  13.274 -1.1481 -1.3526 -0.2414
 4904TIP3   OH236202   3.385   4.262   3.285 -0.1078  0.6038 -0.4003
 4904TIP3    H136203   3.296   4.251   3.320  0.2191  0.3546  0.3611
 4904TIP3    H236204   3.417   4.343   3.325  0.5540 -0.0879  0.4937
 4905TIP3   OH236205   1.776   0.132   3.608  0.1571 -0.1454  0.1064
 4905TIP3    H136206   1.715   0.206   3.616 -0.7378 -0.9700  1.2655
 4905TIP3    H236207   1.859   0.167   3.643  0.2931  0.8808 -1.1727
 4906TIP3   OH236208   4.025   0.555  11.316  0.6000 -0.2905 -0.1654
 4906TIP3    H136209   4.022   0.650  11.332 -0.2104 -0.7251  2.9283
 4906TIP3    H236210   3.945   0.537  11.266  0.7479  0.6571 -0.7568
 4907TIP3   OH236211   3.341   5.187   1.060  0.2760 -0.3454  0.5278
 4907TIP3    H136212   3.353   5.150   0.973 -0.8589  0.0472  0.1957
 4907TIP3    H236213   3.246   5.194   1.071  0.3756 -0.7530  1.9533
 4908TIP3   OH236214   1.876   6.628   4.534  0.4259 -0.4881 -0.2902
 4908TIP3    H136215   1.817   6.703   4.542  0.3629 -0.3222 -1.8813
 4908TIP3    H236216   1.818   6.551   4.538  0.2053 -0.3589 -0.8498
 4909TIP3   OH236217   1.926   3.090   1.673  0.2132 -0.2999  0.7431
 4909TIP3    H136218   1.870   3.113   1.747 -1.0338 -0.4728 -0.0950
 4909TIP3    H236219   1.933   3.172   1.623 -1.2183 -0.7966 -0.3417
 4910TIP3   OH236220   0.945   4.483   6.115 -0.0884  0.0241 -0.4189
 4910TIP3    H136221   0.857   4.518   6.125 -0.2509 -0.4528 -0.1453
 4910TIP3    H236222   1.003   4.556   6.138 -0.4175  0.1255  0.0940
 4911TIP3   OH236223   5.475   0.688  14.451  0.2684 -0.0326 -0.5353
 4911TIP3    H136224   5.389   0.698  14.411  0.8158  0.0842 -1.7059
 4911TIP3    H236225   5.465   0.726  14.539 -1.0008 -0.4828 -0.4617
 4912TIP3   OH236226   3.676   3.142   1.395 -0.0019 -0.0316  0.4384
 4912TIP3    H136227   3.757   3.124   1.347  0.1951  0.6131  0.5158
 4912TIP3    H236228   3.685   3.233   1.423 -0.0379 -0.4338  1.8346
 4913TIP3   OH236229   0.539   1.170  16.152  0.4008  0.4816 -0.2882
 4913TIP3    H136230   0.592   1.236  16.107  0.3811  2.6616  2.6359
 4913TIP3    H236231   0.590   1.146  16.229 -0.9463 -0.6705  0.2941
 4914TIP3   OH236232   1.424   3.901  15.334  0.1474 -0.2488 -0.4803
 4914TIP3    H136233   1.437   3.896  15.429 -0.6875 -0.2216 -0.3620
 4914TIP3    H236234   1.426   3.810  15.305 -0.6272 -0.3315 -0.2909
 4915TIP3   OH236235   3.200   3.546  13.327  0.2203 -0.4638 -1.0616
 4915TIP3    H136236   3.221   3.524  13.418 -0.5159  0.4480 -0.6523
 4915TIP3    H236237   3.273   3.512  13.276  1.9227  1.1802  0.1387
 4916TIP3   OH236238   3.445   2.628   5.775 -0.2841  0.3262  0.3069
 4916TIP3    H136239   3.531   2.647   5.738 -0.5750 -0.0594 -0.5689
 4916TIP3    H236240   3.463   2.574   5.852  0.2130 -0.5050 -0.3805
 4917TIP3   OH236241   4.859   2.723   6.221  0.5275 -0.1635  0.1174
 4917TIP3    H136242   4.907   2.791   6.267 -0.0111 -0.0154  0.4737
 4917TIP3    H236243   4.774   2.719   6.266 -0.8682  1.4703 -2.1312
 4918TIP3   OH236244   3.415   3.422   0.489 -0.0215 -0.0899  0.1383
 4918TIP3    H136245   3.492   3.421   0.433  0.2646 -0.5474  0.5352
 4918TIP3    H236246   3.365   3.344   0.463 -0.1832  0.0224  0.1104
 4919TIP3   OH236247   5.547   4.413  15.094 -0.4689 -0.2101 -0.5906
 4919TIP3    H136248   5.604   4.458  15.155 -0.3664 -2.6851  1.2845
 4919TIP3    H236249   5.523   4.332  15.138 -3.1006 -0.6181 -2.5040
 4920TIP3   OH236250   5.443   5.110   2.548 -0.3201  0.3904 -0.1167
 4920TIP3    H136251   5.364   5.080   2.502  0.4511 -1.3775 -0.3624
 4920TIP3    H236252   5.515   5.073   2.498  0.6011  0.1870  1.3219
 4921TIP3   OH236253   1.870   0.075   1.969  0.4588 -0.2781  0.6598
 4921TIP3    H136254   1.938   0.140   1.985 -0.7818  1.7544 -1.5514
 4921TIP3    H236255   1.901   0.027   1.892  0.2780 -0.6310  0.8073
 4922TIP3   OH236256   2.991   2.658   2.026 -0.8677  0.0962 -0.2965
 4922TIP3    H136257   3.078   2.642   1.987 -0.6287  0.3547  0.1243
 4922TIP3    H236258   3.010   2.688   2.115 -1.4094 -0.2740 -0.0552
 4923TIP3   OH236259   0.085   3.644  12.998 -0.2089  0.7546  0.0067
 4923TIP3    H136260   0.044   3.571  12.951 -1.6627  1.5863 -0.0986
 4923TIP3    H236261   0.176   3.617  13.010  0.0230  0.1340 -2.5354
 4924TIP3   OH236262   1.682   6.166  15.787 -0.1506 -0.4878  0.1996
 4924TIP3    H136263   1.617   6.197  15.851 -0.4592 -0.0009 -0.3456
 4924TIP3    H236264   1.630   6.130  15.716  0.1951 -0.9170  0.1603
 4925TIP3   OH236265   0.855   0.975  17.030 -0.0226  0.7953 -0.3915
 4925TIP3    H136266   0.932   0.994  17.084 -2.2525  1.8887  2.7185
 4925TIP3    H236267   0.864   0.883  17.006  1.0988  0.1994  2.0052
 4926TIP3   OH236268   1.390   5.981   1.413  0.0983 -0.6161 -0.1618
 4926TIP3    H136269   1.314   5.987   1.356  0.3688 -1.5955 -0.6519
 4926TIP3    H236270   1.375   5.903   1.466  0.3013 -0.2528  0.4529
 4927TIP3   OH236271   3.695   1.083  16.368  0.2609  0.3409 -0.2862
 4927TIP3    H136272   3.613   1.095  16.320 -0.8619 -0.5120  1.3204
 4927TIP3    H236273   3.693   1.150  16.436  1.2040  0.6834 -0.5742
 4928TIP3   OH236274   4.117   5.027  15.672  0.3967 -0.1015  0.6349
 4928TIP3    H136275   4.036   5.057  15.632  1.1069  0.1437 -0.6655
 4928TIP3    H236276   4.179   5.099  15.658  1.0217 -0.5427  1.0537
 4929TIP3   OH236277   1.018   3.440   2.974 -0.6524  0.0254  0.6048
 4929TIP3    H136278   0.961   3.373   2.935  1.0300 -0.8521 -0.4240
 4929TIP3    H236279   1.068   3.475   2.901 -0.5488  1.5107  1.3456
 4930TIP3   OH236280   1.083   5.860  14.519  0.3323  0.0513 -0.1684
 4930TIP3    H136281   1.172   5.827  14.520 -0.3135 -1.7968  0.9055
 4930TIP3    H236282   1.063   5.877  14.611 -0.9114 -1.0626 -0.2005
 4931TIP3   OH236283   5.900   6.211   3.248  0.2584  0.3877  0.0425
 4931TIP3    H136284   5.949   6.168   3.178  0.9285  0.2955  0.5544
 4931TIP3    H236285   5.938   6.175   3.329 -0.5161  0.4699  0.4545
 4932TIP3   OH236286   3.642   2.492   4.040 -0.6115  0.5579  0.3165
 4932TIP3    H136287   3.584   2.568   4.045  0.2775  1.4020 -1.4887
 4932TIP3    H236288   3.587   2.422   4.003 -0.5015  1.3591 -1.4121
 4933TIP3   OH236289   0.774   1.128   4.946  0.1181  0.0642  0.0386
 4933TIP3    H136290   0.718   1.053   4.928  2.1957 -1.6116  0.1148
 4933TIP3    H236291   0.821   1.143   4.864 -0.0109  1.0713  0.1348
 4934TIP3   OH236292   0.303   0.420   4.135  0.0178  0.1419  0.1746
 4934TIP3    H136293   0.269   0.480   4.201 -0.3230  1.0571 -0.7986
 4934TIP3    H236294   0.273   0.457   4.052  0.5064 -0.9339 -0.4983
 4935TIP3   OH236295   6.437   0.409  16.071  0.1483  0.2221  0.0053
 4935TIP3    H136296   6.393   0.490  16.098  0.9278  0.5264  0.4046
 4935TIP3    H236297   6.525   0.418  16.107  0.9553  0.2363 -1.9046
 4936TIP3   OH236298   0.425   0.179  11.683  0.1466  0.2039  0.3339
 4936TIP3    H136299   0.482   0.102  11.675 -0.5295 -0.2571 -0.2586
 4936TIP3    H236300   0.471   0.237  11.743  1.5860  0.1624 -0.6797
 4937TIP3   OH236301   4.254   5.828   2.366 -0.4439 -0.1988  0.1147
 4937TIP3    H136302   4.248   5.924   2.357  0.2489 -0.0765  0.8975
 4937TIP3    H236303   4.170   5.797   2.332  0.1235  0.5215 -2.1410
 4938TIP3   OH236304   2.143   0.228  13.135  0.0990  0.6881 -0.3596
 4938TIP3    H136305   2.212   0.222  13.069  0.3268  1.5103 -0.1989
 4938TIP3    H236306   2.189   0.221  13.219 -0.1301  0.2261 -0.2661
 4939TIP3   OH236307   1.487   2.583  12.491  0.1351 -0.2444  0.4255
 4939TIP3    H136308   1.488   2.668  12.535 -0.9438  0.9449 -1.7000
 4939TIP3    H236309   1.396   2.570  12.466  0.6220 -1.0757 -1.0348
 4940TIP3   OH236310   2.559   0.995  12.179  0.0840 -0.3029 -0.1248
 4940TIP3    H136311   2.468   1.022  12.164 -0.2700 -0.0758  2.1076
 4940TIP3    H236312   2.553   0.920  12.238  1.3248 -1.3108 -1.2015
 4941TIP3   OH236313   2.578   0.110   2.196  0.6787 -0.2548  0.4029
 4941TIP3    H136314   2.670   0.112   2.221  0.4271 -0.3622  1.3844
 4941TIP3    H236315   2.575   0.053   2.119  1.3232 -0.9315  0.8685
 4942TIP3   OH236316   0.577   0.049   1.665  0.2818  0.2954 -0.1016
 4942TIP3    H136317   0.539   0.049   1.577 -0.8207  1.1403  0.3596
 4942TIP3    H236318   0.666   0.082   1.652  0.4816 -0.5509 -1.0246
 4943TIP3   OH236319   6.413   3.597   4.983  0.4147 -0.0617  0.4359
 4943TIP3    H136320   6.428   3.530   4.917 -2.2368  1.0518 -1.4843
 4943TIP3    H236321   6.477   3.665   4.965 -1.0881  0.8279 -1.9936
 4944TIP3   OH236322   4.946   5.950  10.843 -0.5876 -0.0791 -0.0608
 4944TIP3    H136323   4.960   6.035  10.884  0.8134 -0.3603  0.0844
 4944TIP3    H236324   4.856   5.953  10.812 -1.0356  0.8985  1.2421
 4945TIP3   OH236325   6.239   2.009   4.336  0.1990 -0.0797  0.1720
 4945TIP3    H136326   6.186   2.031   4.259  2.1531  2.1595 -0.6746
 4945TIP3    H236327   6.292   1.935   4.308 -0.1130 -0.1987 -0.1204
 4946TIP3   OH236328   5.972   1.920  11.249  0.3134  0.2418  0.2559
 4946TIP3    H136329   5.958   2.013  11.230 -0.8094  0.0153 -0.0916
 4946TIP3    H236330   6.062   1.903  11.222  0.6202  1.2800  0.5545
 4947TIP3   OH236331   3.769   3.113  15.512  0.2717  0.4486 -0.4996
 4947TIP3    H136332   3.783   3.152  15.599 -0.0589  0.0979 -0.2860
 4947TIP3    H236333   3.800   3.180  15.451  1.0563  0.4707 -0.0987
 4948TIP3   OH236334   0.172   3.952  13.675 -0.5169  0.0110  0.0387
 4948TIP3    H136335   0.081   3.952  13.704 -0.0393  1.8686  1.8077
 4948TIP3    H236336   0.167   3.968  13.581 -2.0299  0.5708  0.1801
 4949TIP3   OH236337   0.639   6.308  14.279  0.0626  0.1925 -0.0377
 4949TIP3    H136338   0.724   6.329  14.241 -0.9143  0.9488 -1.9631
 4949TIP3    H236339   0.650   6.322  14.373  1.6320  1.8008 -0.4022
 4950TIP3   OH236340   1.949   5.625   5.204  0.0830 -0.2857  0.3105
 4950TIP3    H136341   1.941   5.655   5.295 -0.2851  0.5604  0.0123
 4950TIP3    H236342   1.923   5.533   5.207  2.5131 -1.0137  1.4744
 4951TIP3   OH236343   6.328   4.065  14.544 -0.0033  0.4780  0.5420
 4951TIP3    H136344   6.392   4.000  14.575 -1.0215 -1.0406 -0.3826
 4951TIP3    H236345   6.363   4.094  14.459 -0.2075  0.1340  0.3383
 4952TIP3   OH236346   1.451   2.360  12.661  0.0573  0.5775 -0.5709
 4952TIP3    H136347   1.467   2.439  12.609  2.8544  1.2772  1.1503
 4952TIP3    H236348   1.524   2.356  12.722 -0.9774 -2.3759  0.6658
 4953TIP3   OH236349   3.446   4.326  11.757  0.5419 -0.7588  0.3528
 4953TIP3    H136350   3.496   4.245  11.747  1.6134  0.0979 -1.7320
 4953TIP3    H236351   3.381   4.323  11.687  0.6257  0.1962  0.2212
 4954TIP3   OH236352   5.024   0.449  13.556  0.0242  0.2409 -0.2326
 4954TIP3    H136353   5.028   0.480  13.646  1.5204 -2.2078  0.6552
 4954TIP3    H236354   5.103   0.485  13.515  1.3571 -1.6177  0.5783
 4955TIP3   OH236355   5.411   6.340  12.607  0.5371  0.3845  0.1155
 4955TIP3    H136356   5.389   6.378  12.522  0.3256  0.3481  0.1521
 4955TIP3    H236357   5.444   6.252  12.586 -1.6257 -0.5225  0.1889
 4956TIP3   OH236358   1.596   1.114  13.814  0.1125  0.2059  0.3994
 4956TIP3    H136359   1.629   1.083  13.897  1.3613  1.0482  0.2445
 4956TIP3    H236360   1.613   1.043  13.752 -1.7447 -0.8484  1.0036
 4957TIP3   OH236361   3.357   4.927   1.231 -0.6867  0.0805 -0.3833
 4957TIP3    H136362   3.359   4.959   1.321 -2.0697  0.3648 -0.4247
 4957TIP3    H236363   3.296   4.986   1.185 -0.6975 -0.5916 -1.2739
 4958TIP3   OH236364   4.915   4.656   0.922  0.1395 -0.0332 -0.6350
 4958TIP3    H136365   4.827   4.630   0.952  0.7332 -1.2732  0.0908
 4958TIP3    H236366   4.945   4.718   0.989  0.5298 -1.0139  0.1225
 4959TIP3   OH236367   2.759   0.997  15.361 -0.3452  0.6322 -0.2830
 4959TIP3    H136368   2.738   0.985  15.454  2.2684  0.9890  0.4312
 4959TIP3    H236369   2.741   1.090  15.345 -2.9567  0.1214 -0.8335
 4960TIP3   OH236370   3.651   0.341  13.277 -0.4219 -0.2217 -0.6914
 4960TIP3    H136371   3.738   0.345  13.237 -0.0993 -1.9631 -0.2131
 4960TIP3    H236372   3.656   0.402  13.351  0.5188 -0.6047 -0.4299
 4961TIP3   OH236373   4.784   1.833   5.789  0.5167 -0.1586  0.0085
 4961TIP3    H136374   4.736   1.784   5.856 -0.1135 -0.0405 -0.3482
 4961TIP3    H236375   4.723   1.839   5.716  1.1918 -0.2654 -0.5711
 4962TIP3   OH236376   0.152   5.725  13.903 -0.2144  0.2311  0.1761
 4962TIP3    H136377   0.224   5.740  13.842 -0.4378  0.4160 -0.0459
 4962TIP3    H236378   0.081   5.692  13.848  0.0682 -1.0937  0.5550
 4963TIP3   OH236379   0.020   0.678   4.938 -0.6283  0.0368 -0.3945
 4963TIP3    H136380  -0.060   0.668   4.887 -0.0636  1.4217 -1.6498
 4963TIP3    H236381   0.058   0.760   4.907  1.7303 -1.0008 -0.4977
 4964TIP3   OH236382   5.950   6.506   6.195 -0.5642  0.1471  0.6809
 4964TIP3    H136383   5.969   6.600   6.206 -0.5937  0.1948  0.3463
 4964TIP3    H236384   5.858   6.498   6.219 -0.8485  0.3894 -0.2641
 4965TIP3   OH236385   1.803   4.950  17.139 -0.0019 -0.0892 -0.8641
 4965TIP3    H136386   1.852   4.894  17.079  0.2522  0.1770 -0.9022
 4965TIP3    H236387   1.833   5.039  17.120 -1.1466  0.1849 -1.5242
 4966TIP3   OH236388   6.664   4.798   5.191 -0.1506 -0.5464  0.1296
 4966TIP3    H136389   6.661   4.879   5.242 -0.5352  0.0872 -0.8733
 4966TIP3    H236390   6.737   4.811   5.130  0.1365 -1.1903  0.3197
 4967TIP3   OH236391   0.443   4.028   1.239 -0.2779  0.3767  0.1981
 4967TIP3    H136392   0.400   4.039   1.155  0.9814  1.0941 -0.3791
 4967TIP3    H236393   0.372   4.028   1.303 -1.2764 -0.4752 -0.8744
 4968TIP3   OH236394   0.747   4.695  15.036  0.6966  0.4691  0.3971
 4968TIP3    H136395   0.707   4.610  15.051 -3.6534  1.7033 -2.5220
 4968TIP3    H236396   0.822   4.677  14.979 -0.1540 -1.4083 -0.1980
 4969TIP3   OH236397   6.395   5.131   3.236 -0.4676  0.4967  0.3250
 4969TIP3    H136398   6.303   5.105   3.224  0.0545 -1.2420 -0.1611
 4969TIP3    H236399   6.428   5.141   3.147  0.2898 -0.7600  0.4349
 4970TIP3   OH236400   0.430   2.192  16.198  0.8578  0.2963 -0.1508
 4970TIP3    H136401   0.412   2.263  16.136 -0.8697  0.1770  0.1586
 4970TIP3    H236402   0.429   2.234  16.284  1.4414  0.1567 -0.0732
 4971TIP3   OH236403   3.939   4.512   0.433 -0.3131  0.4565 -0.3171
 4971TIP3    H136404   4.007   4.532   0.498  0.4543 -0.2814 -0.8660
 4971TIP3    H236405   3.859   4.503   0.484  0.0798  0.8978  0.4007
 4972TIP3   OH236406   2.524   0.397  14.733  0.5932 -0.1723 -0.3071
 4972TIP3    H136407   2.475   0.478  14.723  0.4557 -0.5508 -3.9232
 4972TIP3    H236408   2.457   0.329  14.739  0.7189 -0.2548  0.2459
 4973TIP3   OH236409   2.466   4.797   2.583 -0.2777  0.6044 -0.2106
 4973TIP3    H136410   2.457   4.702   2.587 -0.1912  0.4700 -2.2078
 4973TIP3    H236411   2.511   4.820   2.665  0.9968 -1.2427 -0.3263
 4974TIP3   OH236412   6.025   6.322   2.382  0.7745 -0.4518  0.8864
 4974TIP3    H136413   6.069   6.245   2.419  3.1680  0.6655  0.5567
 4974TIP3    H236414   6.023   6.305   2.288 -0.4550 -0.9108  0.9698
 4975TIP3   OH236415   4.012   0.042  12.106  0.4878  0.5046 -0.7478
 4975TIP3    H136416   3.965  -0.015  12.045  1.0426  1.5080 -2.1629
 4975TIP3    H236417   3.984   0.131  12.083  0.3916  0.8860  0.7602
 4976TIP3   OH236418   1.222   0.869   6.317  0.1072  0.1811  0.1389
 4976TIP3    H136419   1.141   0.827   6.289 -0.7445  1.6999  0.1696
 4976TIP3    H236420   1.194   0.928   6.388  1.5259 -0.4930  1.3186
 4977TIP3   OH236421   4.414   6.382  13.700  0.3361 -0.1937 -0.1547
 4977TIP3    H136422   4.404   6.454  13.762  1.3928 -0.4094  0.3054
 4977TIP3    H236423   4.406   6.303  13.754 -0.8086 -0.4276 -0.6521
 4978TIP3   OH236424   6.285   6.499  12.230  0.1447 -0.0828 -0.3840
 4978TIP3    H136425   6.371   6.505  12.272 -0.3096  0.4891  0.4996
 4978TIP3    H236426   6.287   6.415  12.183  1.0261 -0.2790 -0.0220
 4979TIP3   OH236427   0.206   4.035   2.727 -0.0275  0.6469  0.0204
 4979TIP3    H136428   0.215   3.965   2.663  0.3901  0.1389  0.6190
 4979TIP3    H236429   0.291   4.039   2.770  0.1361  1.8902 -0.3627
 4980TIP3   OH236430   4.696   4.248   1.633 -0.4990  0.1760 -0.0261
 4980TIP3    H136431   4.733   4.183   1.574 -1.3526 -0.4512  0.1002
 4980TIP3    H236432   4.759   4.320   1.634  1.9263 -1.7891  2.0239
 4981TIP3   OH236433   3.010   1.207  12.496  0.2977 -0.1621  0.1363
 4981TIP3    H136434   2.962   1.130  12.529  1.5127 -0.5687  1.0432
 4981TIP3    H236435   3.051   1.244  12.574  1.2637  0.3064 -0.5750
 4982TIP3   OH236436   2.873   2.982   3.248 -0.5017 -0.0942 -0.3833
 4982TIP3    H136437   2.868   3.033   3.167 -0.4062 -0.6471 -0.7436
 4982TIP3    H236438   2.967   2.971   3.264 -0.5204  0.1025 -0.1427
 4983TIP3   OH236439   0.020   4.882   6.672 -0.4277 -0.1632 -0.2646
 4983TIP3    H136440   0.094   4.930   6.712 -0.6734 -0.0939  0.1152
 4983TIP3    H236441  -0.056   4.938   6.690 -0.5208 -0.0652 -0.9609
 4984TIP3   OH236442   0.744   4.860  12.846 -0.2865 -0.9825 -0.4369
 4984TIP3    H136443   0.694   4.780  12.862 -1.3993 -0.0739  0.9699
 4984TIP3    H236444   0.824   4.849  12.897 -1.2291 -0.5235  1.2267
 4985TIP3   OH236445   0.317   6.772  15.157 -0.5326  0.4185  0.0095
 4985TIP3    H136446   0.304   6.690  15.109 -0.4589 -0.3228  1.2007
 4985TIP3    H236447   0.384   6.819  15.107  1.6437 -1.5901  0.8740
 4986TIP3   OH236448   0.651   1.170   0.706 -0.3011  0.0218 -0.5622
 4986TIP3    H136449   0.591   1.095   0.705  0.1565 -0.3859  0.5601
 4986TIP3    H236450   0.593   1.246   0.714 -0.7361 -0.2475 -1.0402
 4987TIP3   OH236451   1.671   4.488   4.699  0.2724 -0.0610 -0.0278
 4987TIP3    H136452   1.694   4.564   4.753 -0.7884 -0.2972  0.8074
 4987TIP3    H236453   1.575   4.483   4.705 -0.0514  0.7360 -3.1115
 4988TIP3   OH236454   4.392   5.880  12.679 -0.4202  0.3660 -0.3015
 4988TIP3    H136455   4.315   5.831  12.708  1.1066 -1.8716  0.3001
 4988TIP3    H236456   4.408   5.943  12.749  0.5109 -1.8368  1.6142
 4989TIP3   OH236457   5.039   2.708  16.913 -0.4073 -0.5018  0.1267
 4989TIP3    H136458   5.015   2.631  16.963 -0.9965 -0.0382  0.5584
 4989TIP3    H236459   5.089   2.762  16.974 -3.6285  1.4794  1.2588
 4990TIP3   OH236460   2.136   3.215   0.670  0.1936  0.1170 -0.9891
 4990TIP3    H136461   2.208   3.163   0.632 -0.2327 -0.5069 -0.9600
 4990TIP3    H236462   2.082   3.151   0.717 -1.0266  0.3795 -1.9810
 4991TIP3   OH236463   5.410   1.135  17.461 -0.3248  0.7675 -0.5578
 4991TIP3    H136464   5.422   1.183  17.543  0.5709  2.5847 -1.6917
 4991TIP3    H236465   5.340   1.072  17.480 -2.2384  3.1257  0.8050
 4992TIP3   OH236466   2.465   1.139   6.280 -0.2296 -0.1173  0.4850
 4992TIP3    H136467   2.472   1.233   6.263 -1.6439 -0.1407 -0.3853
 4992TIP3    H236468   2.383   1.128   6.329 -0.9725 -1.0289 -0.8728
 4993TIP3   OH236469   5.045   4.245  11.216 -0.1235  0.2232 -0.2292
 4993TIP3    H136470   4.996   4.163  11.215 -1.9757  1.2690 -0.5710
 4993TIP3    H236471   5.062   4.262  11.308  0.5553 -0.6655 -0.1696
 4994TIP3   OH236472   3.596   5.306  14.775  0.0082 -0.4707 -0.5476
 4994TIP3    H136473   3.562   5.226  14.735  1.0129 -0.6604 -1.0562
 4994TIP3    H236474   3.560   5.377  14.722  2.1788 -0.7556 -2.5527
 4995TIP3   OH236475   0.906   2.346  14.155 -0.0334  0.5998 -0.3495
 4995TIP3    H136476   0.975   2.282  14.138  0.1234  0.7403 -0.2365
 4995TIP3    H236477   0.833   2.293  14.187 -0.2489  0.3622 -1.2091
 4996TIP3   OH236478   4.926   3.532   4.450 -0.0839  0.0581 -0.0405
 4996TIP3    H136479   4.984   3.560   4.521  1.1866  3.1139 -2.0490
 4996TIP3    H236480   4.976   3.463   4.405  1.2669  1.3745 -0.6498
 4997TIP3   OH236481   2.094   2.562  16.537  0.0631 -0.1879  0.6780
 4997TIP3    H136482   2.118   2.516  16.457 -1.6160 -0.8859  0.5272
 4997TIP3    H236483   2.084   2.494  16.603  0.4263  0.2747  1.2220
 4998TIP3   OH236484   5.363   2.246   4.781  0.0814 -0.6860  0.2556
 4998TIP3    H136485   5.343   2.336   4.755  0.6864 -0.6922 -0.2807
 4998TIP3    H236486   5.404   2.254   4.867 -1.2700 -0.5959  0.9222
 4999TIP3   OH236487   2.159   2.851  13.291 -0.1988  0.3415 -0.2588
 4999TIP3    H136488   2.131   2.899  13.212 -0.5767 -0.1425 -0.4211
 4999TIP3    H236489   2.252   2.872  13.299  1.0087 -2.8155 -3.2567
 5000TIP3   OH236490   5.153   4.911  15.648 -0.0901  0.0524 -0.2509
 5000TIP3    H136491   5.149   4.817  15.665 -0.0943  0.0013 -0.5341
 5000TIP3    H236492   5.133   4.920  15.555 -0.1158  0.3363 -0.2203
 5001TIP3   OH236493   2.499   6.662  16.852 -0.4776 -0.2779 -0.1344
 5001TIP3    H136494   2.518   6.601  16.781  2.5799  0.9521 -0.5529
 5001TIP3    H236495   2.429   6.620  16.902  0.8980 -3.7520 -0.8204
 5002TIP3   OH236496   2.961   2.551  17.181 -1.1155 -0.4078 -0.3084
 5002TIP3    H136497   2.930   2.481  17.238 -2.2962  1.1577  1.0950
 5002TIP3    H236498   2.971   2.626  17.239  5.5806 -0.5910 -0.4713
 5003TIP3   OH236499   2.321   5.210   2.081 -0.4290 -0.5611  0.0550
 5003TIP3    H136500   2.354   5.227   1.993  0.9469 -2.1949  0.1965
 5003TIP3    H236501   2.392   5.237   2.139  0.3329 -3.0706  0.4252
 5004TIP3   OH236502   4.515   4.496   1.671  0.3220  0.0612 -0.3465
 5004TIP3    H136503   4.526   4.490   1.576 -0.7856  0.9987 -0.5514
 5004TIP3    H236504   4.437   4.444   1.689 -0.6808  1.5470 -0.2414
 5005TIP3   OH236505   2.243   3.993  15.973 -0.3427 -0.4606 -0.0752
 5005TIP3    H136506   2.181   3.920  15.964 -0.4444 -0.2248 -1.6121
 5005TIP3    H236507   2.220   4.053  15.902  1.7951 -0.4920 -0.8683
 5006TIP3   OH236508   2.921   6.756  11.429  0.5044  0.0979  0.4596
 5006TIP3    H136509   3.016   6.746  11.425  0.4607 -1.2714  1.8260
 5006TIP3    H236510   2.887   6.673  11.397 -0.1782 -0.0221  1.4282
 5007TIP3   OH236511   0.091   5.138  11.753  0.0857 -0.1991 -0.2230
 5007TIP3    H136512   0.059   5.048  11.741  2.2049 -1.0760  0.1109
 5007TIP3    H236513   0.136   5.158  11.671  0.5761  0.1066  0.1107
 5008TIP3   OH236514   0.826   5.173   3.549 -0.3558  0.4237 -0.1349
 5008TIP3    H136515   0.797   5.107   3.611  0.7692  0.0147 -0.0100
 5008TIP3    H236516   0.791   5.145   3.464 -0.6437  0.1701  0.0671
 5009TIP3   OH236517   1.605   3.492   4.918 -0.3720 -0.2936 -0.0010
 5009TIP3    H136518   1.634   3.401   4.921 -2.2938 -0.9208  2.1078
 5009TIP3    H236519   1.595   3.511   4.825  1.2368 -1.7995 -0.5337
 5010TIP3   OH236520   0.393   3.043  12.010  0.1096  0.0293  0.2004
 5010TIP3    H136521   0.418   3.065  11.921 -0.5785 -0.4555 -0.1257
 5010TIP3    H236522   0.473   3.008  12.050  0.4040  0.1864 -0.2489
 5011TIP3   OH236523   4.877   6.397  13.266 -0.3835  0.1272 -0.3595
 5011TIP3    H136524   4.971   6.397  13.245 -0.3406 -0.3875 -0.1837
 5011TIP3    H236525   4.834   6.403  13.181 -0.1849  1.0082 -0.3997
 5012TIP3   OH236526   5.410   6.432  11.688 -0.5641 -0.3935  0.3887
 5012TIP3    H136527   5.333   6.488  11.687 -0.7475 -0.6473  0.3921
 5012TIP3    H236528   5.483   6.493  11.703 -0.6078  0.0371 -1.0501
 5013TIP3   OH236529   2.186   3.094  14.318  0.1565 -0.1314  0.2612
 5013TIP3    H136530   2.243   3.027  14.357 -0.5206 -0.6685  0.3532
 5013TIP3    H236531   2.114   3.103  14.380  0.1852  0.6074  0.1898
 5014TIP3   OH236532   6.260   0.968  17.433  0.0114  0.1541 -0.1157
 5014TIP3    H136533   6.251   0.997  17.524  1.5992 -0.3824  0.2314
 5014TIP3    H236534   6.239   1.046  17.382  1.8604  1.3123  0.7703
 5015TIP3   OH236535   0.891   2.202   1.099  0.4912 -0.4026  0.1325
 5015TIP3    H136536   0.846   2.286   1.107  0.3328 -0.2448 -1.8917
 5015TIP3    H236537   0.821   2.140   1.075  0.8892 -0.7459 -0.1448
 5016TIP3   OH236538   5.144   4.518   0.424  0.1159  0.1620  0.4577
 5016TIP3    H136539   5.216   4.561   0.378  0.4259 -0.6882  0.1296
 5016TIP3    H236540   5.102   4.589   0.473  0.0138  1.0280 -0.8135
 5017TIP3   OH236541   1.399   4.468   1.422 -0.4027  0.7631  0.0335
 5017TIP3    H136542   1.394   4.564   1.421 -0.8587  0.8745  2.9836
 5017TIP3    H236543   1.347   4.443   1.499  1.9806 -1.6500  1.0172
 5018TIP3   OH236544   1.736   0.805  15.899  0.1789 -0.0122  0.0174
 5018TIP3    H136545   1.804   0.845  15.955 -0.1883  0.4208  0.1592
 5018TIP3    H236546   1.770   0.815  15.810 -0.8092  2.5132 -0.1556
 5019TIP3   OH236547   1.985   3.667   0.749  0.3678 -0.1785  0.2980
 5019TIP3    H136548   2.063   3.681   0.803 -0.1618 -0.5677  1.1853
 5019TIP3    H236549   1.999   3.581   0.709  0.9125  0.2526 -0.4742
 5020TIP3   OH236550   4.662   2.379  16.501  0.5893 -0.7910  0.4337
 5020TIP3    H136551   4.707   2.323  16.438 -3.6107 -3.0071 -0.9529
 5020TIP3    H236552   4.638   2.457  16.452 -1.1906 -1.7601 -0.2898
 5021TIP3   OH236553   1.348   1.016   2.894 -0.4115 -0.0294 -0.3892
 5021TIP3    H136554   1.379   0.943   2.840  0.8102  2.5090 -3.5241
 5021TIP3    H236555   1.408   1.017   2.969  1.0551 -0.9032 -1.4742
 5022TIP3   OH236556   6.717   3.892  15.037  0.2319  0.3695  0.1211
 5022TIP3    H136557   6.692   3.896  15.129  0.3063 -0.1366  0.1665
 5022TIP3    H236558   6.692   3.977  15.001 -0.2534  0.3855  0.4931
 5023TIP3   OH236559   4.619   0.248   5.994 -1.1821  0.3116  0.0389
 5023TIP3    H136560   4.710   0.252   6.021 -1.2128 -1.4329  0.5478
 5023TIP3    H236561   4.573   0.304   6.056 -0.6354  0.0691  0.6730
 5024TIP3   OH236562   6.524   1.714  11.678 -0.2462 -0.0838 -0.2122
 5024TIP3    H136563   6.474   1.782  11.724 -0.2360 -0.8827  1.0284
 5024TIP3    H236564   6.459   1.649  11.653 -0.0357 -0.4155  0.0927
 5025TIP3   OH236565   2.027   3.806   1.061 -0.1363  0.4496 -0.4201
 5025TIP3    H136566   2.044   3.736   1.124  0.1581 -0.7792 -1.8233
 5025TIP3    H236567   2.099   3.800   0.999 -1.4133  0.3891 -1.9409
 5026TIP3   OH236568   1.926   6.227  13.142  0.3339  0.4414  0.4707
 5026TIP3    H136569   1.893   6.183  13.221  0.7162 -0.7374  0.0043
 5026TIP3    H236570   2.000   6.279  13.173 -0.6263  1.4241  1.1749
 5027TIP3   OH236571   0.592   0.809  17.320 -0.2757  0.4350 -0.6875
 5027TIP3    H136572   0.515   0.758  17.295 -1.8736  1.1898  2.1678
 5027TIP3    H236573   0.557   0.895  17.345  1.8910  1.7616 -1.8905
 5028TIP3   OH236574   6.561   5.630  14.155  0.1237  0.1776  0.7190
 5028TIP3    H136575   6.517   5.714  14.167  1.5495  1.1029 -0.1007
 5028TIP3    H236576   6.602   5.637  14.069  0.3125 -1.3507  0.6576
 5029TIP3   OH236577   2.914   4.911  12.636 -0.1497  0.1657 -0.2564
 5029TIP3    H136578   2.837   4.865  12.604 -0.3334 -0.8901  1.5477
 5029TIP3    H236579   2.891   4.938  12.725  1.6799 -0.5888  0.5022
 5030TIP3   OH236580   1.388   2.571   5.771 -0.6189 -0.7036 -0.1564
 5030TIP3    H136581   1.362   2.497   5.716 -0.5204 -1.7604  1.1592
 5030TIP3    H236582   1.483   2.561   5.781 -0.8164 -1.4254  1.3874
 5031TIP3   OH236583   0.760   6.338   2.673  0.1270  0.4804  0.3406
 5031TIP3    H136584   0.805   6.272   2.726 -0.4655 -3.6723 -3.6095
 5031TIP3    H236585   0.830   6.394   2.639  1.8666 -2.4851 -1.4291
 5032TIP3   OH236586   0.489   1.463  13.577  0.3815  0.2065  0.2332
 5032TIP3    H136587   0.546   1.505  13.642  0.5947 -0.8492  0.7464
 5032TIP3    H236588   0.400   1.485  13.605  0.4851  0.1118  0.6444
 5033TIP3   OH236589   4.284   6.472  12.587 -0.0449  0.1396  0.2246
 5033TIP3    H136590   4.356   6.461  12.525 -0.5355  0.8810 -0.5007
 5033TIP3    H236591   4.313   6.426  12.665  1.3859  0.7132  0.0787
 5034TIP3   OH236592   2.904   2.493  13.931  0.1511 -0.0359  0.3985
 5034TIP3    H136593   2.869   2.565  13.879 -1.5098  0.4757  2.1342
 5034TIP3    H236594   2.834   2.471  13.992  1.8214 -0.9430  2.0848
 5035TIP3   OH236595   5.724   0.224  11.775  0.3800  0.1465 -0.2901
 5035TIP3    H136596   5.665   0.159  11.813 -0.1988  1.1673  0.6532
 5035TIP3    H236597   5.812   0.192  11.794  0.1799 -1.5133 -1.9021
 5036TIP3   OH236598   6.257   4.675   4.504  0.4864  0.1420  0.0516
 5036TIP3    H136599   6.317   4.682   4.429  0.3515 -0.7612 -0.1489
 5036TIP3    H236600   6.170   4.672   4.464  0.4893 -2.1090  0.1051
 5037TIP3   OH236601   4.452   2.014  16.940  0.4518  0.3159 -0.0646
 5037TIP3    H136602   4.376   2.030  16.996  0.0541 -1.9421  0.1316
 5037TIP3    H236603   4.417   2.018  16.850  0.4210  0.7829 -0.0324
 5038TIP3   OH236604   5.354   3.835   0.299  0.0440 -0.1191 -0.2134
 5038TIP3    H136605   5.314   3.789   0.372  2.5333  0.8383  1.9185
 5038TIP3    H236606   5.280   3.871   0.250 -1.7531 -0.1582  2.2820
 5039TIP3   OH236607   0.055   2.795   2.648 -0.3647 -0.1671  0.3035
 5039TIP3    H136608   0.099   2.774   2.566 -0.6100 -1.8086  0.5610
 5039TIP3    H236609  -0.037   2.809   2.622 -0.5043 -0.9993  0.3272
 5040TIP3   OH236610   2.143   6.448   6.050 -0.0845 -0.2355 -0.1639
 5040TIP3    H136611   2.195   6.392   6.108 -2.1417 -1.0147  1.0204
 5040TIP3    H236612   2.052   6.425   6.070 -0.9100  1.3128 -1.9159
 5041TIP3   OH236613   0.951   6.708  16.414  0.0814 -0.0380  0.4119
 5041TIP3    H136614   0.937   6.775  16.482 -2.0975  0.2513 -0.2532
 5041TIP3    H236615   1.026   6.740  16.364  0.2547  0.9356  1.2628
 5042TIP3   OH236616   2.733   0.310   1.799  0.6618  0.3556  0.2889
 5042TIP3    H136617   2.726   0.265   1.716 -0.7155  0.6222  0.2242
 5042TIP3    H236618   2.658   0.370   1.800  1.7449  1.7577  0.8854
 5043TIP3   OH236619   3.175   3.013   0.790  0.2340  0.3286  0.4257
 5043TIP3    H136620   3.145   2.996   0.701  0.8695 -0.4072  0.3465
 5043TIP3    H236621   3.244   3.079   0.780  1.3156 -0.8094  0.2143
 5044TIP3   OH236622   5.275   2.025  15.332 -0.1347 -0.7782 -0.0486
 5044TIP3    H136623   5.243   2.041  15.243 -0.3790 -1.2346 -0.0426
 5044TIP3    H236624   5.313   1.938  15.328  2.4680  0.2835 -0.4346
 5045TIP3   OH236625   4.188   4.682  15.655  0.6517  0.1109 -0.2613
 5045TIP3    H136626   4.167   4.625  15.729 -1.6991  2.0923  0.7276
 5045TIP3    H236627   4.104   4.696  15.611  1.6933  0.4804 -2.2085
 5046TIP3   OH236628   5.122   1.967  14.767  0.0505 -0.9117  0.2789
 5046TIP3    H136629   5.068   2.038  14.801  0.8103 -0.9857  1.7113
 5046TIP3    H236630   5.167   2.006  14.691 -1.0900 -0.5095 -0.2203
 5047TIP3   OH236631   5.460   2.667   2.540  0.4758  0.4397  0.0933
 5047TIP3    H136632   5.467   2.679   2.635  1.3566 -2.6194  0.5200
 5047TIP3    H236633   5.484   2.575   2.526 -0.3657  0.5992 -3.0303
 5048TIP3   OH236634   5.169   1.764  13.022 -0.2397  0.2690  0.0633
 5048TIP3    H136635   5.245   1.754  12.964  0.8698  0.5440  1.4359
 5048TIP3    H236636   5.183   1.848  13.065 -1.6304  0.5860 -0.0645
 5049TIP3   OH236637   1.510   5.254   1.222 -0.4212 -0.5974  0.8593
 5049TIP3    H136638   1.490   5.174   1.271 -1.3573 -1.5869 -1.0356
 5049TIP3    H236639   1.501   5.229   1.130  0.2229  1.4570  0.1855
 5050TIP3   OH236640   6.073   3.523  11.381  0.7919  0.2237  0.0907
 5050TIP3    H136641   5.983   3.551  11.369  0.9824  0.2207 -1.7404
 5050TIP3    H236642   6.087   3.459  11.311  1.8892 -0.6248  1.0377
 5051TIP3   OH236643   1.477   3.790  14.978  0.0506  0.4279  0.4425
 5051TIP3    H136644   1.563   3.752  14.992 -1.1642 -1.4605  4.1748
 5051TIP3    H236645   1.494   3.872  14.932  3.8116  0.2318  1.1565
 5052TIP3   OH236646   4.412   6.708   5.497  0.2210  0.7778  0.2058
 5052TIP3    H136647   4.338   6.660   5.535 -0.1103 -0.3217 -1.7138
 5052TIP3    H236648   4.377   6.795   5.479 -0.5406  0.3461 -0.4486
 5053TIP3   OH236649   3.438   1.258   4.807 -0.2674 -0.3362 -0.2984
 5053TIP3    H136650   3.508   1.240   4.744 -2.2528  1.4451 -3.2825
 5053TIP3    H236651   3.461   1.343   4.844  1.4107 -1.8216  2.3159
 5054TIP3   OH236652   0.988   6.235   6.011  0.0362 -0.3823 -0.3498
 5054TIP3    H136653   1.029   6.296   5.951 -0.3073 -0.0946 -0.2918
 5054TIP3    H236654   0.963   6.288   6.086 -0.0065 -0.6461 -0.1745
 5055TIP3   OH236655   2.739   2.805   1.056 -0.3037 -0.0343 -0.3473
 5055TIP3    H136656   2.647   2.786   1.036 -0.2653  0.6747 -1.2774
 5055TIP3    H236657   2.740   2.820   1.150 -1.1604  0.0174 -0.3323
 5056TIP3   OH236658   3.246   3.291   0.708 -0.3117 -0.6147  0.5157
 5056TIP3    H136659   3.338   3.276   0.731  0.2744 -1.0890 -1.9071
 5056TIP3    H236660   3.247   3.368   0.651 -1.2452 -1.3029 -0.4641
 5057TIP3   OH236661   0.708   1.436   4.068  0.4971  0.9300  0.0376
 5057TIP3    H136662   0.627   1.385   4.056 -0.3632  2.3949 -0.6823
 5057TIP3    H236663   0.692   1.518   4.021  2.3671  1.3229  0.0073
 5058TIP3   OH236664   3.985   1.486   1.782  0.2375 -0.1645 -0.1119
 5058TIP3    H136665   4.060   1.545   1.787 -0.4147  0.5669  1.6275
 5058TIP3    H236666   3.931   1.509   1.857 -0.7487 -2.0276 -0.1949
 5059TIP3   OH236667   3.195   4.691   1.114  0.3125  0.1971 -0.1990
 5059TIP3    H136668   3.242   4.766   1.150 -0.0984  0.9147 -1.1077
 5059TIP3    H236669   3.259   4.647   1.058  0.0761  0.8404 -0.9816
 5060TIP3   OH236670   2.667   6.396  15.925 -0.2351  0.3826 -0.6650
 5060TIP3    H136671   2.759   6.377  15.905  0.0588  0.5793  0.4119
 5060TIP3    H236672   2.669   6.431  16.014 -1.4796 -0.8240 -0.1188
 5061TIP3   OH236673   4.644   5.368   3.756 -0.2823 -0.3694  0.1883
 5061TIP3    H136674   4.697   5.402   3.683  1.5930  1.1242  2.1208
 5061TIP3    H236675   4.614   5.446   3.802  0.4927 -1.2423  2.2951
 5062TIP3   OH236676   6.687   5.686  14.679 -0.5864 -0.4580 -0.2918
 5062TIP3    H136677   6.639   5.755  14.633 -0.2267  0.7323  1.0640
 5062TIP3    H236678   6.766   5.729  14.712 -0.5586 -1.4052  0.9561
 5063TIP3   OH236679   2.258   1.268  15.706  0.0095  0.0364  0.3797
 5063TIP3    H136680   2.277   1.276  15.800 -1.7543 -1.5919  0.9333
 5063TIP3    H236681   2.344   1.258  15.665  1.1654  4.1958  1.2911
 5064TIP3   OH236682   5.740   0.295  17.215 -0.4898  0.7843 -0.2978
 5064TIP3    H136683   5.647   0.318  17.223 -0.6816 -0.3375  1.0590
 5064TIP3    H236684   5.786   0.376  17.236 -1.1590  1.0633  0.1449
 5065TIP3   OH236685   2.947   1.159   4.609  0.3273 -0.4512  0.1883
 5065TIP3    H136686   2.892   1.176   4.685 -0.4501 -4.2348  0.6479
 5065TIP3    H236687   3.037   1.158   4.643  0.3978  1.7388  0.2009
 5066TIP3   OH236688   1.010   1.143  14.611  0.2071 -0.2393 -0.3516
 5066TIP3    H136689   0.998   1.073  14.676  1.6519 -0.4567 -0.2850
 5066TIP3    H236690   0.985   1.223  14.657 -0.6755 -0.6044 -0.1689
 5067TIP3   OH236691   4.117   1.183  13.284 -0.1037 -0.1217 -0.1696
 5067TIP3    H136692   4.048   1.248  13.301 -1.3490 -1.5671  0.5173
 5067TIP3    H236693   4.198   1.233  13.291 -1.0366  1.4950 -0.3082
 5068TIP3   OH236694   2.861   1.986  12.813  0.5937  0.0620 -0.2383
 5068TIP3    H136695   2.896   1.897  12.810  1.0883  0.0867  2.1440
 5068TIP3    H236696   2.825   2.002  12.726 -0.5838 -2.9075 -0.4118
 5069TIP3   OH236697   3.524   5.161  16.775 -0.0696 -0.5414  0.4717
 5069TIP3    H136698   3.575   5.148  16.695 -0.5967 -1.0095  0.2112
 5069TIP3    H236699   3.551   5.248  16.805 -1.3089  0.5114 -1.2911
 5070TIP3   OH236700   2.204   1.745  13.326  0.4931  0.1967 -0.3078
 5070TIP3    H136701   2.188   1.780  13.414 -0.5152  1.2802 -0.8932
 5070TIP3    H236702   2.123   1.702  13.302  0.4247  0.7222 -1.0641
 5071TIP3   OH236703   4.690   2.593  10.912  0.3987  0.0574  0.2188
 5071TIP3    H136704   4.719   2.674  10.954  0.0567  0.3452 -0.0907
 5071TIP3    H236705   4.687   2.614  10.818  2.1174 -0.8725 -0.0710
 5072TIP3   OH236706   4.415   6.161   4.284 -0.1467  0.0755  0.2927
 5072TIP3    H136707   4.478   6.122   4.223  0.7569  0.4555  0.9543
 5072TIP3    H236708   4.450   6.249   4.301 -0.7179  0.1971  0.8735
 5073TIP3   OH236709   3.506   1.069  13.814  0.7858 -0.5485  0.2451
 5073TIP3    H136710   3.455   1.110  13.884 -0.6951  1.4019 -1.8320
 5073TIP3    H236711   3.558   1.003  13.859 -1.2449 -0.5088  2.9587
 5074TIP3   OH236712   4.680   5.263  10.684  0.1011 -0.0133  0.2654
 5074TIP3    H136713   4.651   5.176  10.712  0.0854 -0.3078 -0.6429
 5074TIP3    H236714   4.715   5.303  10.764 -4.6732  1.1915  2.1021
 5075TIP3   OH236715   1.241   3.700   4.673 -0.2580  0.0828 -0.6450
 5075TIP3    H136716   1.184   3.774   4.693 -1.3416 -0.8974  0.0181
 5075TIP3    H236717   1.325   3.740   4.650 -0.8726  1.5135 -0.4990
 5076TIP3   OH236718   2.033   1.781   3.118 -0.2703  0.1239  0.0769
 5076TIP3    H136719   1.988   1.808   3.038  1.8679  2.5941 -0.4223
 5076TIP3    H236720   2.121   1.817   3.109  0.6807 -1.3093  2.6632
 5077TIP3   OH236721   0.154   2.360  11.600 -0.3518 -0.2588 -0.3658
 5077TIP3    H136722   0.249   2.371  11.594 -0.3677  0.2529  0.2262
 5077TIP3    H236723   0.143   2.281  11.652 -0.2527 -0.3887 -0.5387
 5078TIP3   OH236724   6.187   5.151   0.992  0.2167  0.1909 -0.0985
 5078TIP3    H136725   6.201   5.246   0.984  1.8422  0.2319  2.1354
 5078TIP3    H236726   6.093   5.142   1.004  0.1796  1.7506  1.2820
 5079TIP3   OH236727   2.350   2.826  12.905  0.2661  0.2096 -0.3437
 5079TIP3    H136728   2.394   2.781  12.833  2.4688 -0.0050  1.0146
 5079TIP3    H236729   2.367   2.919  12.889 -1.4074  0.3782 -1.3713
 5080TIP3   OH236730   1.184   0.926   0.677 -0.2398  0.4839  0.2855
 5080TIP3    H136731   1.263   0.898   0.722 -0.0784  1.8104  0.8793
 5080TIP3    H236732   1.124   0.852   0.685 -0.1154  0.5776  2.4660
 5081TIP3   OH236733   2.645   6.575  15.647 -0.6463  0.0490 -0.3250
 5081TIP3    H136734   2.591   6.565  15.726 -0.3713 -0.4712 -0.2012
 5081TIP3    H236735   2.599   6.641  15.595 -1.2768 -0.2095 -0.1066
 5082TIP3   OH236736   0.847   4.745  13.969 -0.1128  0.1242  0.3005
 5082TIP3    H136737   0.783   4.760  13.899 -1.0616 -0.1345  1.0890
 5082TIP3    H236738   0.914   4.689  13.929 -0.2848  0.5357 -0.5854
 5083TIP3   OH236739   1.799   1.778  11.574 -0.3709  0.3982  0.0532
 5083TIP3    H136740   1.840   1.836  11.638  1.3064  0.0524 -0.6740
 5083TIP3    H236741   1.802   1.691  11.614  1.7861 -0.0366 -0.9202
 5084TIP3   OH236742   4.738   0.833   0.883 -0.0473  0.3529  0.1289
 5084TIP3    H136743   4.764   0.760   0.828 -1.2718  0.3172 -0.4267
 5084TIP3    H236744   4.732   0.795   0.971  2.0801  0.4513  0.3737
 5085TIP3   OH236745   1.123   3.649   1.295 -0.4840  0.3229  0.2438
 5085TIP3    H136746   1.046   3.704   1.293  1.1032  2.6520 -0.6099
 5085TIP3    H236747   1.181   3.691   1.359  1.5498  0.8525 -1.8118
 5086TIP3   OH236748   5.553   4.554  11.878 -0.6762  0.2338 -0.0560
 5086TIP3    H136749   5.563   4.617  11.806 -3.7649 -0.1067 -0.9011
 5086TIP3    H236750   5.587   4.472  11.842  0.4547  0.6835 -0.0640
 5087TIP3   OH236751   4.900   3.913  12.169 -0.4896 -0.2661  0.2918
 5087TIP3    H136752   4.873   3.821  12.180 -1.4741  0.2368  2.8351
 5087TIP3    H236753   4.831   3.951  12.115  0.4300 -1.1638 -1.6334
 5088TIP3   OH236754   3.871   2.934  16.922  0.4093  0.3046  0.0000
 5088TIP3    H136755   3.900   2.843  16.928 -1.4014 -0.3011  0.1193
 5088TIP3    H236756   3.818   2.937  16.842  0.6399  1.3231 -0.1252
 5089TIP3   OH236757   4.423   6.415   1.416 -0.3056 -0.0750  0.2776
 5089TIP3    H136758   4.460   6.327   1.414 -0.5504 -0.2222  1.4380
 5089TIP3    H236759   4.370   6.420   1.337 -0.8564 -1.2425  0.5433
 5090TIP3   OH236760   5.676   1.942   2.256 -0.1142  0.7280  0.0946
 5090TIP3    H136761   5.623   1.959   2.334  0.3508 -1.5863  1.0151
 5090TIP3    H236762   5.674   2.024   2.206 -2.3308  1.5459  1.3974
 5091TIP3   OH236763   0.219   5.357   6.176 -0.3843  0.6283 -0.0767
 5091TIP3    H136764   0.156   5.372   6.246 -2.1960  2.0274 -1.8801
 5091TIP3    H236765   0.263   5.441   6.165  1.2508 -0.1045  0.5880
 5092TIP3   OH236766   3.848   5.765   4.295  0.0585 -0.2274  0.0200
 5092TIP3    H136767   3.927   5.744   4.344 -0.1023  0.3675  0.5356
 5092TIP3    H236768   3.788   5.692   4.314  0.6369 -0.9363 -0.7639
 5093TIP3   OH236769   4.127   5.495  16.041 -0.1903 -0.3890  0.0950
 5093TIP3    H136770   4.136   5.545  15.960 -1.0516  0.5063  0.5293
 5093TIP3    H236771   4.168   5.410  16.022  1.6660  0.5964 -0.5404
 5094TIP3   OH236772   4.244   0.100  14.151  0.6037  0.2663 -0.7778
 5094TIP3    H136773   4.338   0.109  14.166  0.7283 -1.5047 -0.3263
 5094TIP3    H236774   4.233   0.120  14.058  1.4607  0.2328 -0.8976
 5095TIP3   OH236775   2.438   4.536   2.551 -0.1349 -0.0689 -0.0719
 5095TIP3    H136776   2.491   4.474   2.602  1.5607  0.5326 -0.9997
 5095TIP3    H236777   2.426   4.493   2.467 -1.4115 -0.3178  0.2253
 5096TIP3   OH236778   0.679   5.469  14.610  0.2746  0.1627  0.4319
 5096TIP3    H136779   0.628   5.388  14.611  0.4893  0.0263  0.5577
 5096TIP3    H236780   0.770   5.440  14.624  0.3876  0.3983  0.2006
 5097TIP3   OH236781   0.970   6.517   3.189 -0.1261 -0.3558  0.1531
 5097TIP3    H136782   1.007   6.561   3.266 -1.7075  2.1158 -0.3741
 5097TIP3    H236783   1.045   6.500   3.133  0.5498  3.2525 -0.3108
 5098TIP3   OH236784   0.811   0.795   1.121  0.3443 -0.3025  0.1906
 5098TIP3    H136785   0.859   0.713   1.133  0.4336 -0.4167 -0.8391
 5098TIP3    H236786   0.878   0.859   1.097  0.4787  0.4379  2.3486
 5099TIP3   OH236787   6.003   0.704   5.695 -0.4311  0.4647  0.5222
 5099TIP3    H136788   6.001   0.795   5.667 -0.6673  0.3027 -0.0140
 5099TIP3    H236789   6.072   0.700   5.761  0.0170  0.9023  0.0841
 5100TIP3   OH236790   1.446   5.244   0.157 -0.0254  0.7926 -0.3738
 5100TIP3    H136791   1.472   5.335   0.173 -0.9313  0.8075  1.1252
 5100TIP3    H236792   1.529   5.197   0.143  0.5809  1.4732  0.8411
 5101TIP3   OH236793   3.943   3.352   0.500  0.6318 -0.5801  0.3478
 5101TIP3    H136794   4.023   3.335   0.549 -0.5584  0.2644  2.7561
 5101TIP3    H236795   3.875   3.306   0.548 -0.4226 -1.0076 -1.4499
 5102TIP3   OH236796   4.012   6.669  16.038 -0.0919  0.4318  1.2127
 5102TIP3    H136797   4.096   6.696  16.001  0.5767 -1.2582  1.3936
 5102TIP3    H236798   3.955   6.657  15.962 -0.0989  1.3452  1.0710
 5103TIP3   OH236799   3.093   6.253   0.022  0.0305  0.5306 -0.3072
 5103TIP3    H136800   3.100   6.208   0.106 -0.0997 -0.0177 -0.5843
 5103TIP3    H236801   3.091   6.182  -0.043 -0.4143  0.9264 -0.7345
 5104TIP3   OH236802   2.161   5.800  17.196 -0.2844 -0.6190  0.1551
 5104TIP3    H136803   2.091   5.809  17.132  1.1789  0.7339 -1.3475
 5104TIP3    H236804   2.121   5.754  17.270 -2.6517 -0.1110 -0.7459
 5105TIP3   OH236805   2.433   5.525  15.351 -0.0352  1.3492 -0.6518
 5105TIP3    H136806   2.425   5.602  15.407  0.2432  1.7891 -1.2027
 5105TIP3    H236807   2.381   5.546  15.273 -0.9486  0.4843 -0.2974
 5106TIP3   OH236808   3.703   5.599  14.376 -0.0499 -0.9002 -0.0347
 5106TIP3    H136809   3.616   5.638  14.387 -0.9143 -2.5122 -0.8123
 5106TIP3    H236810   3.758   5.672  14.347 -1.1221  0.1644  0.4982
 5107TIP3   OH236811   3.186   3.456  16.898  0.2180  0.6378  0.1977
 5107TIP3    H136812   3.120   3.413  16.845 -0.1324  0.8839  0.4245
 5107TIP3    H236813   3.225   3.522  16.840  1.4261 -0.5988 -0.4479
 5108TIP3   OH236814   2.633   2.038  15.443 -0.1711 -0.1460  0.2588
 5108TIP3    H136815   2.642   1.945  15.422  2.0155 -0.0259  0.3664
 5108TIP3    H236816   2.669   2.084  15.367 -0.2081  0.5757  0.6658
 5109TIP3   OH236817   2.882   1.037  12.635 -0.1504 -0.2390  0.1974
 5109TIP3    H136818   2.931   0.967  12.678  2.0684  0.2171 -1.4341
 5109TIP3    H236819   2.858   1.096  12.706  2.6024  0.0418  0.9902
 5110TIP3   OH236820   6.238   4.484  13.187 -0.4630  0.6495  0.2210
 5110TIP3    H136821   6.298   4.490  13.113 -0.8816  0.9651 -0.0984
 5110TIP3    H236822   6.204   4.394  13.183  0.9901  0.0174  1.2070
 5111TIP3   OH236823   2.154   2.661   1.818  0.0118 -0.2435  0.6834
 5111TIP3    H136824   2.100   2.713   1.877 -0.2238  0.6810 -0.3153
 5111TIP3    H236825   2.212   2.724   1.776 -1.6933 -0.3565 -2.1203
 5112TIP3   OH236826   2.361   5.640  12.220 -0.9403  0.3042 -0.1068
 5112TIP3    H136827   2.425   5.671  12.284  1.9092  0.1086 -2.6333
 5112TIP3    H236828   2.406   5.570  12.173 -3.6191 -0.9373 -1.0553
 5113TIP3   OH236829   2.166   2.369   5.418  0.1480  0.7823 -0.0353
 5113TIP3    H136830   2.163   2.275   5.406  0.4133  0.4193  2.2550
 5113TIP3    H236831   2.254   2.395   5.391 -0.3471  0.6274 -1.9243
 5114TIP3   OH236832   1.277   2.456   1.415  0.3407  0.1738 -0.0877
 5114TIP3    H136833   1.301   2.364   1.429 -0.7444 -0.3688 -1.5845
 5114TIP3    H236834   1.293   2.498   1.499  0.0694 -1.5573  0.8684
 5115TIP3   OH236835   1.733   3.866   0.006  0.1759  0.4198  0.2369
 5115TIP3    H136836   1.759   3.836   0.093 -1.5311  0.3273  0.7655
 5115TIP3    H236837   1.748   3.790  -0.050 -1.7448 -0.6800  1.0986
 5116TIP3   OH236838   4.627   0.724   5.660 -0.7774  0.8407  0.3676
 5116TIP3    H136839   4.718   0.717   5.689 -0.7461  2.3844  0.7224
 5116TIP3    H236840   4.634   0.762   5.572 -0.9307 -2.6661 -1.3380
 5117TIP3   OH236841   6.562   5.125   2.221 -0.0386  0.7356 -0.2428
 5117TIP3    H136842   6.492   5.151   2.281 -0.8354  3.5850 -2.2161
 5117TIP3    H236843   6.642   5.153   2.265  0.0614 -2.4256  1.9705
 5118TIP3   OH236844   1.660   4.605  14.240  0.1293  0.1667  0.2534
 5118TIP3    H136845   1.594   4.626  14.174 -0.3714 -1.7253  0.0995
 5118TIP3    H236846   1.743   4.616  14.195 -0.1405  0.5857 -0.1576
 5119TIP3   OH236847   2.582   3.901  13.926  0.4734 -0.1385  0.0420
 5119TIP3    H136848   2.587   3.892  13.831 -1.6305  0.1970 -0.1444
 5119TIP3    H236849   2.632   3.980  13.945  2.3612 -1.1359 -0.5475
 5120TIP3   OH236850   4.556   6.524  16.825 -0.6010  1.0768 -0.6577
 5120TIP3    H136851   4.628   6.483  16.779 -1.1759  0.5659 -1.1124
 5120TIP3    H236852   4.596   6.561  16.904 -0.1567 -0.9280  0.1279
 5121TIP3   OH236853   4.637   1.451   1.179 -0.0681  0.3540  0.5064
 5121TIP3    H136854   4.601   1.531   1.140 -1.2028 -0.5263 -0.3341
 5121TIP3    H236855   4.699   1.419   1.114  0.7497  0.7690  1.0532
 5122TIP3   OH236856   4.357   0.142  14.763  0.3943  0.1709  0.2952
 5122TIP3    H136857   4.380   0.088  14.838 -1.4885  0.1152  0.8849
 5122TIP3    H236858   4.292   0.091  14.715  0.2669  0.9553 -0.3991
 5123TIP3   OH236859   1.124   0.604  13.886 -0.2315  0.2338  0.3367
 5123TIP3    H136860   1.035   0.625  13.858  0.1531 -0.5034 -1.5815
 5123TIP3    H236861   1.156   0.541  13.821  1.0697 -0.9198  1.9927
 5124TIP3   OH236862   0.922   0.184   2.624 -0.2310 -0.7284 -0.1440
 5124TIP3    H136863   0.975   0.244   2.677 -1.4621 -2.0223  2.7198
 5124TIP3    H236864   0.839   0.229   2.613  0.1071 -0.3417 -1.3495
 5125TIP3   OH236865   1.336   0.201  14.901 -0.5257 -0.3158 -0.3457
 5125TIP3    H136866   1.260   0.257  14.916 -0.1630 -0.1511  0.9969
 5125TIP3    H236867   1.411   0.261  14.900 -0.4735 -0.2851 -3.0402
 5126TIP3   OH236868   3.820   0.907   2.946  0.4518 -0.0737 -0.1915
 5126TIP3    H136869   3.831   0.897   2.852 -1.2272 -3.0266 -0.1973
 5126TIP3    H236870   3.761   0.982   2.955  1.7572  1.1442 -1.3501
 5127TIP3   OH236871   0.891   6.592  17.321  0.4163  0.2485 -0.2143
 5127TIP3    H136872   0.799   6.589  17.297 -0.3256 -1.9049  2.4595
 5127TIP3    H236873   0.927   6.663  17.268 -2.4966  0.4531 -2.1318
 5128TIP3   OH236874   3.660   0.669   0.759  0.0725  0.4073  0.5198
 5128TIP3    H136875   3.619   0.629   0.682  0.3312 -0.4423  0.8086
 5128TIP3    H236876   3.587   0.702   0.811 -0.0392  3.8236 -1.5109
 5129TIP3   OH236877   3.662   2.677   5.436 -0.6324 -0.4707 -0.0609
 5129TIP3    H136878   3.731   2.647   5.377  0.4736  1.5148  0.1524
 5129TIP3    H236879   3.667   2.619   5.512  1.0985 -0.1093  0.1345
 5130TIP3   OH236880   5.798   6.506  13.602  0.5958  0.2916 -0.2004
 5130TIP3    H136881   5.771   6.450  13.530  0.0382 -0.8230  0.8380
 5130TIP3    H236882   5.825   6.445  13.671  0.9281  1.3218  0.6048
 5131TIP3   OH236883   3.697   1.243   5.294 -0.4877  0.1368  0.1502
 5131TIP3    H136884   3.643   1.245   5.373  1.0202  0.1742  1.2266
 5131TIP3    H236885   3.662   1.170   5.243 -2.4568  1.0542  0.1120
 5132TIP3   OH236886   3.269   3.749   5.188  0.2359 -0.2533 -0.2510
 5132TIP3    H136887   3.186   3.796   5.181  0.0682 -0.2679  1.2122
 5132TIP3    H236888   3.260   3.674   5.130 -0.2619  0.4450 -1.0912
 5133TIP3   OH236889   0.877   2.894  17.089  1.1822 -0.3584 -0.1160
 5133TIP3    H136890   0.829   2.834  17.146  2.5752 -2.0616 -0.6511
 5133TIP3    H236891   0.823   2.901  17.011 -1.0426  2.4532  1.4632
 5134TIP3   OH236892   4.674   4.519  13.070 -0.1474 -0.0214  0.0896
 5134TIP3    H136893   4.762   4.549  13.089 -1.4172  3.4784  1.2155
 5134TIP3    H236894   4.647   4.572  12.995 -2.4897  1.8210  2.0775
 5135TIP3   OH236895   6.491   4.031   2.855 -0.2541 -0.5162 -0.0629
 5135TIP3    H136896   6.572   4.077   2.832  0.0858 -0.3371  1.3799
 5135TIP3    H236897   6.440   4.095   2.906 -0.5770 -1.1409  0.4223
 5136TIP3   OH236898   1.057   1.161   3.296 -0.4726  0.1061 -0.3911
 5136TIP3    H136899   1.129   1.098   3.290 -0.1609  0.1232  2.0181
 5136TIP3    H236900   1.005   1.144   3.218  0.4110 -2.1177 -0.6051
 5137TIP3   OH236901   2.984   0.572  16.594 -0.2492  0.2136 -0.6986
 5137TIP3    H136902   2.976   0.660  16.555 -0.2256  1.0916  1.1776
 5137TIP3    H236903   2.895   0.537  16.592 -0.4638  0.7294 -0.4701
 5138TIP3   OH236904   3.533   5.834   2.919 -0.7553 -0.4084  0.2203
 5138TIP3    H136905   3.443   5.819   2.946 -1.4021  0.3145 -1.3685
 5138TIP3    H236906   3.531   5.920   2.877  0.5527 -0.6465 -0.3858
 5139TIP3   OH236907   2.775   6.209  13.789  0.7050  0.7126  0.3497
 5139TIP3    H136908   2.869   6.197  13.800  0.5384 -0.3296  0.7280
 5139TIP3    H236909   2.742   6.123  13.765 -0.7184 -0.1062  4.3741
 5140TIP3   OH236910   2.316   5.233   4.630  0.4191  0.1925 -0.1103
 5140TIP3    H136911   2.231   5.200   4.601 -1.6805  1.6045  3.7013
 5140TIP3    H236912   2.318   5.324   4.602  1.3928 -0.1862 -1.3780
 5141TIP3   OH236913   4.221   6.271  15.286 -0.0255 -0.1859  0.1359
 5141TIP3    H136914   4.315   6.270  15.268  0.4416 -3.2675  2.0778
 5141TIP3    H236915   4.210   6.216  15.363 -3.3058  1.3818  0.9856
 5142TIP3   OH236916   3.839   6.388  11.192 -0.1335  0.0581  0.2612
 5142TIP3    H136917   3.818   6.480  11.175 -1.1802 -0.3429 -0.7223
 5142TIP3    H236918   3.765   6.357  11.244 -0.2413 -0.4677 -0.2073
 5143TIP3   OH236919   1.754   2.175   4.089 -0.2723  0.6763 -0.0097
 5143TIP3    H136920   1.820   2.113   4.121 -1.0565  0.1952  0.7026
 5143TIP3    H236921   1.806   2.244   4.047  0.6159 -0.4002 -0.7297
 5144TIP3   OH236922   2.875   6.521   1.911 -0.5893  0.0218  0.2054
 5144TIP3    H136923   2.812   6.449   1.914  0.4308 -0.8820  0.8023
 5144TIP3    H236924   2.960   6.478   1.903 -0.0703  1.2347 -1.3058
 5145TIP3   OH236925   3.550   0.624  14.438  0.4273 -0.7619 -0.4423
 5145TIP3    H136926   3.512   0.546  14.397 -0.5019 -1.5010  1.6769
 5145TIP3    H236927   3.478   0.686  14.442  0.1930 -1.0936  0.9585
 5146TIP3   OH236928   6.188   2.335   2.747 -0.3525 -0.2289 -0.3305
 5146TIP3    H136929   6.274   2.300   2.725  1.1028  1.7533  1.7781
 5146TIP3    H236930   6.178   2.316   2.841  0.1763  3.9176  0.7585
 5147TIP3   OH236931   5.435   2.255   5.047 -0.3432  0.1229 -0.3144
 5147TIP3    H136932   5.521   2.262   5.090  0.3343 -0.7831 -1.4492
 5147TIP3    H236933   5.386   2.193   5.101 -0.3742  0.8202  0.4714
 5148TIP3   OH236934   2.529   6.058  11.892  0.5568 -0.0946 -0.0812
 5148TIP3    H136935   2.611   6.039  11.937 -0.0123 -2.0554  0.2481
 5148TIP3    H236936   2.461   6.027  11.952 -0.4616  1.7089 -0.2428
 5149TIP3   OH236937   6.623   3.614  15.028 -0.2411  0.2595  0.2868
 5149TIP3    H136938   6.641   3.708  15.038  1.9764  0.0558 -1.0314
 5149TIP3    H236939   6.528   3.607  15.033 -0.5476  2.7199 -0.5981
 5150TIP3   OH236940   0.558   1.196   4.275 -0.3725 -0.1250 -0.2832
 5150TIP3    H136941   0.650   1.215   4.294 -0.8866  2.3802  0.1191
 5150TIP3    H236942   0.560   1.141   4.197  1.4849 -1.6918  0.7787
 5151TIP3   OH236943   0.445   2.477  12.407 -0.1120  0.1731 -0.2069
 5151TIP3    H136944   0.492   2.472  12.490  0.3874  0.9175 -0.4352
 5151TIP3    H236945   0.399   2.394  12.401 -0.8727  0.4542  1.2360
 5152TIP3   OH236946   2.328   6.097   4.761 -0.9369 -0.0513 -0.0462
 5152TIP3    H136947   2.365   6.139   4.839  1.3352  1.7789 -1.9280
 5152TIP3    H236948   2.307   6.170   4.702 -1.2979 -1.3896 -1.6600
 5153TIP3   OH236949   2.977   4.781   1.425  0.2953 -0.2405  0.0654
 5153TIP3    H136950   3.072   4.767   1.419  0.2585 -0.0012 -1.4934
 5153TIP3    H236951   2.962   4.863   1.378 -0.5665  0.3455  1.3102
 5154TIP3   OH236952   4.028   2.212  11.558  0.2271  0.4552  0.0170
 5154TIP3    H136953   3.935   2.194  11.569 -0.3594  2.1916 -1.5099
 5154TIP3    H236954   4.068   2.184  11.640 -1.5568 -0.7515  0.5348
 5155TIP3   OH236955   5.735   4.309   3.526 -0.1236 -0.7029 -0.1866
 5155TIP3    H136956   5.822   4.325   3.490 -0.2013 -2.0072 -1.0215
 5155TIP3    H236957   5.697   4.242   3.468 -1.7978  0.0569 -0.0336
 5156TIP3   OH236958   0.571   5.087   1.520  0.6705 -0.0652  0.1753
 5156TIP3    H136959   0.594   5.037   1.598  0.9346 -0.3162 -0.0637
 5156TIP3    H236960   0.653   5.099   1.473  0.3284 -1.0239 -0.7108
 5157TIP3   OH236961   4.614   3.064   1.382  0.6698  0.3355  0.1284
 5157TIP3    H136962   4.707   3.044   1.396  0.5829 -0.0805  0.1050
 5157TIP3    H236963   4.592   3.019   1.301  0.5208  0.6723 -0.0181
 5158TIP3   OH236964   1.824   3.419  16.465 -0.7780 -0.5553 -0.0750
 5158TIP3    H136965   1.741   3.374  16.447 -0.1421 -1.5230 -0.6132
 5158TIP3    H236966   1.810   3.461  16.550 -1.3962 -1.7564  0.4446
 5159TIP3   OH236967   5.950   4.882  13.125 -1.0128 -0.9023 -0.0474
 5159TIP3    H136968   5.930   4.919  13.040 -2.0612 -0.8368  0.2229
 5159TIP3    H236969   5.944   4.787  13.113 -1.9838 -0.8686  0.1512
 5160TIP3   OH236970   1.803   0.482   0.674  0.0580 -0.0560 -0.6695
 5160TIP3    H136971   1.816   0.400   0.626 -1.6984 -0.3550 -0.6823
 5160TIP3    H236972   1.773   0.455   0.761 -1.2857  0.5744 -0.9169
 5161TIP3   OH236973   2.775   0.034   3.037  0.3548  0.4232  1.0172
 5161TIP3    H136974   2.766   0.020   3.131  0.4403 -0.6085  0.8805
 5161TIP3    H236975   2.685   0.043   3.005  0.2098 -1.0441  0.9469
 5162TIP3   OH236976   5.713   2.504  13.159  0.0079 -0.1951  0.4405
 5162TIP3    H136977   5.723   2.413  13.186  0.1398  0.2888  2.1461
 5162TIP3    H236978   5.648   2.539  13.220  0.1196  0.9086 -0.0616
 5163TIP3   OH236979   5.506   6.070   3.725  0.0497  0.3774  0.0214
 5163TIP3    H136980   5.414   6.044   3.717 -0.2198  1.0079  0.8409
 5163TIP3    H236981   5.524   6.064   3.819  0.2262  2.1691  0.1534
 5164TIP3   OH236982   1.760   0.326  11.475  0.7420  0.0177  0.3136
 5164TIP3    H136983   1.819   0.340  11.549  1.2846  1.0406 -0.2990
 5164TIP3    H236984   1.713   0.408  11.466 -1.6665 -1.1209  1.5007
 5165TIP3   OH236985   4.746   5.686  13.383 -0.3014  0.5010  0.4494
 5165TIP3    H136986   4.681   5.616  13.375 -0.1419  0.1879  1.7470
 5165TIP3    H236987   4.797   5.663  13.460  2.2673  0.0057 -1.2700
 5166TIP3   OH236988   4.145   4.122  15.811  0.0218 -0.2318  0.6379
 5166TIP3    H136989   4.088   4.124  15.734  0.6084 -1.2852  0.1594
 5166TIP3    H236990   4.155   4.030  15.832  0.2801  0.0188  1.6839
 5167TIP3   OH236991   3.186   2.859  16.316 -0.2425  0.4748 -0.6419
 5167TIP3    H136992   3.115   2.922  16.326 -0.8399  0.3441 -3.3472
 5167TIP3    H236993   3.266   2.910  16.327 -0.5286  0.3256  4.2630
 5168TIP3   OH236994   4.557   1.556   3.544  0.3568  0.4355 -0.3930
 5168TIP3    H136995   4.553   1.580   3.451  2.7340  0.3890 -0.5558
 5168TIP3    H236996   4.583   1.464   3.545 -0.5426  0.1671  0.3431
 5169TIP3   OH236997   3.768   5.535  12.330  0.1110 -0.5215 -0.2621
 5169TIP3    H136998   3.740   5.589  12.256 -2.1578 -1.1848  0.0347
 5169TIP3    H236999   3.687   5.515  12.377  0.9486 -3.4440  0.1301
 5170TIP3   OH237000   0.426   6.477   3.708 -0.1161  0.8256 -0.2441
 5170TIP3    H137001   0.475   6.449   3.631  1.1619 -0.4289  0.9750
 5170TIP3    H237002   0.366   6.405   3.727 -1.2332  1.5980 -0.6649
 5171TIP3   OH237003   0.285   2.679  11.693 -0.2522  0.0386  0.2167
 5171TIP3    H137004   0.305   2.676  11.599 -0.4057 -0.2934  0.1911
 5171TIP3    H237005   0.370   2.689  11.736 -0.0636 -0.9795  0.0955
 5172TIP3   OH237006   6.202   2.660  17.249 -0.6371  0.3609 -0.5411
 5172TIP3    H137007   6.276   2.600  17.249 -1.0958 -0.2489 -2.0432
 5172TIP3    H237008   6.204   2.701  17.163 -2.1163  0.2297 -0.6669
 5173TIP3   OH237009   2.173   2.425  16.307 -0.1973 -0.3849  0.1510
 5173TIP3    H137010   2.206   2.336  16.317  0.0060 -0.3074  0.1693
 5173TIP3    H237011   2.240   2.470  16.256 -0.4781 -0.3452 -0.1895
 5174TIP3   OH237012   2.104   0.521  14.715 -0.5543  0.4805  0.1950
 5174TIP3    H137013   2.062   0.503  14.630  0.2252 -1.4127  0.1771
 5174TIP3    H237014   2.196   0.534  14.693 -0.4851  0.8061  0.6760
 5175TIP3   OH237015   1.505   4.746   2.902  0.7644 -0.3788 -1.0014
 5175TIP3    H137016   1.455   4.669   2.875  0.5579 -0.1394 -1.3074
 5175TIP3    H237017   1.580   4.710   2.949 -0.7112 -0.7149  1.2866
 5176TIP3   OH237018   0.467   2.789  17.165 -0.3366  0.6349  0.4325
 5176TIP3    H137019   0.529   2.830  17.225 -0.5798  1.3082  0.2318
 5176TIP3    H237020   0.408   2.859  17.139  1.6081  1.2377 -3.0431
 5177TIP3   OH237021   0.891   6.134  15.032 -0.1922 -0.2132  0.0266
 5177TIP3    H137022   0.829   6.200  15.061  0.6569  0.8927 -0.5825
 5177TIP3    H237023   0.870   6.119  14.940 -1.8538 -2.5338  0.6937
 5178TIP3   OH237024   3.272   3.836  14.113 -0.3957  0.3754  0.1320
 5178TIP3    H137025   3.191   3.856  14.066 -1.6221 -0.4312  1.8144
 5178TIP3    H237026   3.252   3.757  14.163  1.9098 -0.6913 -0.5206
 5179TIP3   OH237027   6.609   6.554   2.102 -0.5050 -0.0556  0.3546
 5179TIP3    H137028   6.547   6.526   2.169 -0.6940  0.1391  0.2600
 5179TIP3    H237029   6.671   6.482   2.095  0.1064  0.3311  1.4639
 5180TIP3   OH237030   3.380   0.246  13.180  0.0436 -0.3071  0.1944
 5180TIP3    H137031   3.473   0.267  13.178 -0.2604  1.1784  0.5678
 5180TIP3    H237032   3.343   0.288  13.103 -0.4002 -0.4667  0.3127
 5181TIP3   OH237033   1.682   0.253  10.841 -0.3524  0.5802 -1.1001
 5181TIP3    H137034   1.688   0.262  10.746 -2.1383 -2.3526 -1.6189
 5181TIP3    H237035   1.590   0.275  10.861 -0.3425 -0.0956 -0.2564
 5182TIP3   OH237036   5.623   5.363  17.051  0.5428  0.4154 -0.0576
 5182TIP3    H137037   5.657   5.295  16.993 -0.0249  1.4036 -1.6224
 5182TIP3    H237038   5.538   5.385  17.015  0.7179  1.9515  0.3976
 5183TIP3   OH237039   6.380   4.104  15.849 -0.3403 -0.0302  0.0805
 5183TIP3    H137040   6.436   4.086  15.925 -0.1644 -2.9367 -0.6015
 5183TIP3    H237041   6.435   4.155  15.790  0.6039 -0.3978  0.6237
 5184TIP3   OH237042   3.207   0.995   4.536 -0.2557 -0.3708  0.3178
 5184TIP3    H137043   3.233   0.913   4.495 -1.2866 -1.2856  1.4318
 5184TIP3    H237044   3.289   1.043   4.548 -0.0154  1.1816 -5.0987
 5185TIP3   OH237045   5.023   3.241  15.780 -0.9309 -0.0568  0.3010
 5185TIP3    H137046   5.062   3.286  15.855 -2.0176  1.2367  0.1201
 5185TIP3    H237047   4.980   3.164  15.818 -0.3035 -0.1560  0.8142
 5186TIP3   OH237048   1.538   2.107  11.426 -0.2913  0.2871  0.4986
 5186TIP3    H137049   1.459   2.116  11.373 -0.7398 -1.0535  0.9004
 5186TIP3    H237050   1.564   2.015  11.414  1.1456  0.6855  0.4538
 5187TIP3   OH237051   0.883   2.936   1.194  0.1183 -0.2114  0.0077
 5187TIP3    H137052   0.878   2.850   1.236 -2.7598 -0.4882 -0.6847
 5187TIP3    H237053   0.976   2.950   1.178  0.9068 -2.0527  2.3960
 5188TIP3   OH237054   6.291   4.882   2.259 -0.2622  0.0545 -0.2120
 5188TIP3    H137055   6.332   4.960   2.297 -0.7908  0.0419  0.4035
 5188TIP3    H237056   6.209   4.872   2.308 -1.7844  0.9867 -2.3993
 5189TIP3   OH237057   0.796   3.672   4.042 -0.2061  0.5288 -0.1403
 5189TIP3    H137058   0.798   3.766   4.025  2.1126  0.4614 -0.6132
 5189TIP3    H237059   0.845   3.662   4.124 -2.0443 -0.1487  0.9539
 5190TIP3   OH237060   1.654   3.353   2.804  0.4472 -0.0442  0.0250
 5190TIP3    H137061   1.706   3.326   2.729 -0.0269  0.2731 -0.4222
 5190TIP3    H237062   1.632   3.272   2.849  1.7979 -0.1501  0.5404
 5191TIP3   OH237063   3.538   3.927  16.950  0.6724  0.2873 -0.0955
 5191TIP3    H137064   3.632   3.909  16.949  1.0586  1.4172  2.9111
 5191TIP3    H237065   3.499   3.852  16.994  0.2025 -0.0166 -1.0136
 5192TIP3   OH237066   4.868   2.971  15.593  0.3537 -0.2056  0.1086
 5192TIP3    H137067   4.857   3.054  15.639  2.2449  0.7430 -1.0421
 5192TIP3    H237068   4.961   2.949  15.602  0.0748 -1.7601 -0.3567
 5193TIP3   OH237069   4.691   0.871  11.716 -0.2134 -0.2185 -0.0829
 5193TIP3    H137070   4.739   0.906  11.640 -0.4304 -0.5316 -0.3686
 5193TIP3    H237071   4.610   0.836  11.679  0.7264 -2.5496 -0.0773
 5194TIP3   OH237072   6.461   1.193  17.326 -0.2807 -0.2163 -0.1471
 5194TIP3    H137073   6.409   1.166  17.250 -1.1766 -0.2020  0.4366
 5194TIP3    H237074   6.448   1.122  17.389 -2.7185  1.4928  1.4418
 5195TIP3   OH237075   4.621   6.523   5.047  0.3292  0.7280  0.0896
 5195TIP3    H137076   4.541   6.484   5.081 -0.2982  0.4535 -1.6002
 5195TIP3    H237077   4.623   6.611   5.084 -1.0194  0.9106 -0.2233
 5196TIP3   OH237078   0.225   1.444  10.495 -0.8142  0.5897 -0.1103
 5196TIP3    H137079   0.290   1.374  10.483  1.5360  2.1133  2.4901
 5196TIP3    H237080   0.267   1.521  10.458 -1.7757  1.3368  0.3417
 5197TIP3   OH237081   6.575   1.398  15.132  0.6843 -0.4590  0.1590
 5197TIP3    H137082   6.510   1.390  15.202  0.4860  1.0900  0.1984
 5197TIP3    H237083   6.526   1.436  15.059  1.3240 -0.2080 -0.1412
 5198TIP3   OH237084   3.336   3.307   8.557 -0.4392 -0.4322  0.2079
 5198TIP3    H137085   3.344   3.266   8.471 -0.3377  0.1221 -0.0521
 5198TIP3    H237086   3.306   3.237   8.615 -1.5104 -0.5619 -0.4829
 5199TIP3   OH237087   4.184   4.167   0.819  0.1783 -0.1874  0.3154
 5199TIP3    H137088   4.123   4.166   0.745 -3.1481 -1.4668  2.8446
 5199TIP3    H237089   4.201   4.075   0.838 -0.3554  0.0515  2.1101
 5200TIP3   OH237090   5.977   4.847  15.067  0.0954  0.5676  0.8846
 5200TIP3    H137091   5.894   4.841  15.116 -0.9929 -0.9260 -0.9626
 5200TIP3    H237092   5.993   4.757  15.037  2.4400  0.8174  1.2119
 5201TIP3   OH237093   4.718   5.614  17.415  0.7589 -0.0816 -0.1032
 5201TIP3    H137094   4.697   5.602  17.508  1.9463  0.4615  0.2559
 5201TIP3    H237095   4.632   5.619  17.372  0.1712 -2.3453  0.6608
 5202TIP3   OH237096   5.837   1.323   5.462 -0.6097  0.0880  0.1351
 5202TIP3    H137097   5.841   1.335   5.367 -1.2395  1.8010  0.2878
 5202TIP3    H237098   5.745   1.301   5.478 -0.0437 -2.5170  0.1605
 5203TIP3   OH237099   5.762   5.873   3.141  0.0089 -0.4371 -0.1455
 5203TIP3    H137100   5.852   5.892   3.168 -0.5114  1.9067  0.1426
 5203TIP3    H237101   5.750   5.924   3.061 -1.4596  0.3561  0.5554
 5204TIP3   OH237102   4.462   0.247   0.875 -0.3242  0.1570 -0.6287
 5204TIP3    H137103   4.494   0.292   0.954 -2.3840  0.5631  0.0432
 5204TIP3    H237104   4.397   0.185   0.908 -0.0926 -0.7923 -1.8901
 5205TIP3   OH237105   1.302   5.308  15.624 -0.0098 -0.4508 -0.2854
 5205TIP3    H137106   1.250   5.309  15.704 -0.4182 -0.3467 -0.5489
 5205TIP3    H237107   1.340   5.220  15.622  1.3630  0.0650  0.8709
 5206TIP3   OH237108   0.416   2.277  17.010 -0.3035 -0.1665  0.2828
 5206TIP3    H137109   0.441   2.230  17.089 -0.1484 -0.4558  0.0648
 5206TIP3    H237110   0.411   2.368  17.037 -0.4982 -0.2937  0.6846
 5207TIP3   OH237111   4.255   5.588   3.636  0.1053  0.1369 -0.0412
 5207TIP3    H137112   4.213   5.541   3.708 -0.7297  0.3685 -0.3564
 5207TIP3    H237113   4.260   5.524   3.565  0.3864  0.0747  0.0374
 5208TIP3   OH237114   1.571   0.657   2.822 -0.4982  0.1840  0.5789
 5208TIP3    H137115   1.594   0.749   2.835  0.9295 -0.0634  0.0446
 5208TIP3    H237116   1.625   0.630   2.747 -1.8748 -0.7401 -0.1158
 5209TIP3   OH237117   1.008   2.866  15.291  0.3765 -0.1187 -0.2282
 5209TIP3    H137118   1.057   2.784  15.294  1.5793  0.6004  0.7388
 5209TIP3    H237119   1.037   2.914  15.369  0.0660  1.4237 -1.0222
 5210TIP3   OH237120   2.836   1.278   4.405  0.1027  0.3030  0.0179
 5210TIP3    H137121   2.885   1.240   4.477  1.9181  1.3725 -0.5958
 5210TIP3    H237122   2.822   1.369   4.430  2.2028  1.1549 -1.5907
 5211TIP3   OH237123   3.664   3.268  11.555 -0.2033 -0.0122  0.3487
 5211TIP3    H137124   3.593   3.277  11.619 -0.7506 -0.6179 -0.1517
 5211TIP3    H237125   3.635   3.197  11.497 -0.6501  1.7784 -1.7740
 5212TIP3   OH237126   4.422   2.259  14.191  0.5914  0.6975 -0.0566
 5212TIP3    H137127   4.433   2.261  14.286 -0.5493  1.7966  0.0895
 5212TIP3    H237128   4.330   2.284  14.178  0.9348  1.2781 -1.4772
 5213TIP3   OH237129   4.438   6.406  16.302  0.8962  0.3476  0.1584
 5213TIP3    H137130   4.414   6.488  16.346  1.4016  0.8570 -0.4989
 5213TIP3    H237131   4.487   6.434  16.224  1.2737 -0.5904  0.0511
 5214TIP3   OH237132   3.560   4.467   3.021  0.3041 -0.3463  0.0761
 5214TIP3    H137133   3.636   4.419   2.987  0.6406 -1.1118  1.7948
 5214TIP3    H237134   3.491   4.402   3.028 -0.0072 -0.0212  0.0841
 5215TIP3   OH237135   2.737   0.828   1.462 -0.2858 -0.3083  0.4099
 5215TIP3    H137136   2.822   0.863   1.433  1.5053 -3.5124  1.3064
 5215TIP3    H237137   2.680   0.838   1.387  1.8010 -0.7992 -1.3458
 5216TIP3   OH237138   6.227   3.156  17.018  0.1282  0.1556  0.0044
 5216TIP3    H137139   6.239   3.202  16.935 -0.5760 -0.4389 -0.4400
 5216TIP3    H237140   6.309   3.172  17.065  0.4064  0.7908 -0.6533
 5217TIP3   OH237141   1.604   0.568  14.512 -0.3778 -0.1641 -0.9248
 5217TIP3    H137142   1.528   0.613  14.476 -1.1397 -1.1042 -0.5277
 5217TIP3    H237143   1.657   0.637  14.552 -0.1941  0.7167 -2.6066
 5218TIP3   OH237144   2.051   2.017   3.624  0.2705  0.0008 -0.5131
 5218TIP3    H137145   1.981   1.971   3.669  0.3768 -0.2056 -0.5585
 5218TIP3    H237146   2.030   2.007   3.531  1.6313 -2.1281 -0.6513
 5219TIP3   OH237147   5.702   2.390  10.771  0.0493  0.6546 -0.5176
 5219TIP3    H137148   5.694   2.317  10.710  0.1463  0.8038 -0.7072
 5219TIP3    H237149   5.794   2.415  10.767  0.1197  0.4679 -0.0862
 5220TIP3   OH237150   1.830   1.159   3.936  0.0981  0.2263  0.1432
 5220TIP3    H137151   1.826   1.067   3.963  0.2375 -0.1151 -0.9347
 5220TIP3    H237152   1.771   1.205   3.996 -1.2777 -0.8332 -0.3432
 5221TIP3   OH237153   1.267   3.436   3.115  0.4045 -0.4870  0.1952
 5221TIP3    H137154   1.172   3.440   3.110  0.4056 -0.6382 -0.0025
 5221TIP3    H237155   1.296   3.447   3.024  0.5873 -0.1264  0.2964
 5222TIP3   OH237156   4.510   4.380  11.563 -0.4304 -0.3841  0.2434
 5222TIP3    H137157   4.450   4.436  11.513 -3.0217  0.8047  4.2204
 5222TIP3    H237158   4.584   4.437  11.585 -0.9168  0.1230  0.5718
 5223TIP3   OH237159   4.234   4.578   2.771  0.3338 -0.3142 -0.1424
 5223TIP3    H137160   4.160   4.599   2.828 -0.0841  1.1725 -1.1793
 5223TIP3    H237161   4.254   4.486   2.791 -0.6309 -0.2230  1.4293
 5224TIP3   OH237162   6.628   5.741   4.858 -0.0710  0.4010 -0.0931
 5224TIP3    H137163   6.560   5.759   4.923  2.0632 -1.0722  2.7890
 5224TIP3    H237164   6.658   5.652   4.879 -1.1830 -1.5017 -5.0932
 5225TIP3   OH237165   6.318   3.572  16.915 -0.5690  0.4880 -0.0056
 5225TIP3    H137166   6.311   3.516  16.838 -0.5006 -2.2025  1.8125
 5225TIP3    H237167   6.236   3.557  16.963 -0.6622  2.2012  0.4330
 5226TIP3   OH237168   2.162   0.161  11.572 -0.1593  0.2469  0.3970
 5226TIP3    H137169   2.225   0.109  11.622 -1.8899 -0.9852  1.4065
 5226TIP3    H237170   2.112   0.097  11.522 -0.7054  1.1760 -0.2801
 5227TIP3   OH237171   1.367   3.478   4.243 -0.0244  0.3958 -0.1794
 5227TIP3    H137172   1.294   3.471   4.303 -0.1378 -0.9896 -0.4239
 5227TIP3    H237173   1.431   3.533   4.287 -0.4061 -0.0068  0.8940
 5228TIP3   OH237174   4.698   5.014  15.034 -0.0826 -0.5885  0.6225
 5228TIP3    H137175   4.738   5.101  15.025  0.6399 -0.7704  1.8394
 5228TIP3    H237176   4.619   5.019  14.980  1.5453 -0.2334 -1.9426
 5229TIP3   OH237177   5.874   3.961  16.548 -0.0181  0.3983 -0.0271
 5229TIP3    H137178   5.848   4.010  16.626  1.1418  2.2827 -0.7491
 5229TIP3    H237179   5.932   3.893  16.580 -0.4511  0.4301  0.8509
 5230TIP3   OH237180   3.827   0.900  15.433 -0.1604 -0.6475 -0.1205
 5230TIP3    H137181   3.810   0.810  15.404 -1.2510 -0.6070  0.3387
 5230TIP3    H237182   3.880   0.938  15.363  0.0076 -1.5412 -0.4941
 5231TIP3   OH237183   2.569   3.726  12.163  0.5626 -0.3325  0.4908
 5231TIP3    H137184   2.532   3.804  12.204  0.2638 -0.7722  1.0639
 5231TIP3    H237185   2.648   3.707  12.214  0.8289 -0.2126  0.1358
 5232TIP3   OH237186   4.628   3.840  14.704  0.2614  0.0035  0.7269
 5232TIP3    H137187   4.536   3.841  14.729  0.1104 -1.4111  0.3599
 5232TIP3    H237188   4.670   3.781  14.767  0.6896 -0.2616  0.2058
 5233TIP3   OH237189   3.935   4.614   5.395  0.1328  0.2700 -0.2168
 5233TIP3    H137190   3.869   4.658   5.449 -0.6286 -0.0380 -0.8694
 5233TIP3    H237191   3.917   4.520   5.408  0.0376  0.1911 -0.8749
 5234TIP3   OH237192   6.317   6.570   0.036 -1.0629 -0.8893 -0.0405
 5234TIP3    H137193   6.319   6.490   0.090  1.4406 -0.9683 -0.1113
 5234TIP3    H237194   6.393   6.561  -0.021 -2.2243  0.3844 -1.8764
 5235TIP3   OH237195   5.434   1.914  16.749 -0.3184  0.4018 -0.8731
 5235TIP3    H137196   5.507   1.852  16.758  0.7090  1.3936 -1.8770
 5235TIP3    H237197   5.355   1.860  16.757  0.2976 -0.1786  4.3655
 5236TIP3   OH237198   0.666   6.633   4.747 -0.1046 -0.1886 -0.1752
 5236TIP3    H137199   0.721   6.670   4.678  0.3252 -1.3520 -0.4706
 5236TIP3    H237200   0.711   6.656   4.828 -1.0329  1.9046 -0.1779
 5237TIP3   OH237201   4.960   6.485  14.960 -0.5934 -0.2035 -0.5430
 5237TIP3    H137202   4.874   6.495  15.000 -1.2212  1.1400 -2.0709
 5237TIP3    H237203   5.010   6.561  14.991  0.6838 -1.8423  1.6775
 5238TIP3   OH237204   6.705   4.453  15.348 -0.4143  0.7636 -0.2882
 5238TIP3    H137205   6.628   4.415  15.305 -0.8779 -0.3304  1.4223
 5238TIP3    H237206   6.688   4.547  15.345 -2.7205  0.5014  1.5295
 5239TIP3   OH237207   1.054   0.039   4.952 -0.4518 -0.0920 -0.3902
 5239TIP3    H137208   1.081  -0.016   5.025  0.4409  0.9915  0.1280
 5239TIP3    H237209   1.072   0.128   4.981 -2.1709  0.5197 -1.0794
 5240TIP3   OH237210   4.829   5.067   2.461  0.4343 -0.4408  0.2148
 5240TIP3    H137211   4.862   5.126   2.393  0.4499  1.5190  1.8224
 5240TIP3    H237212   4.739   5.096   2.476  0.0164 -1.6641  0.1953
 5241TIP3   OH237213   1.094   2.011  12.668 -0.1458  0.0064 -0.0684
 5241TIP3    H137214   1.124   1.929  12.628 -1.8241 -0.0998 -1.2197
 5241TIP3    H237215   1.163   2.075  12.647  0.6955 -0.8607 -0.0206
 5242TIP3   OH237216   1.184   6.474   3.459 -0.0801  0.3135 -0.7101
 5242TIP3    H137217   1.180   6.541   3.391 -2.7206 -0.2603 -1.2388
 5242TIP3    H237218   1.266   6.428   3.442  0.6665  1.9403 -1.7669
 5243TIP3   OH237219   3.373   6.364   0.761  0.0013 -0.0177  0.6869
 5243TIP3    H137220   3.359   6.271   0.745  0.7749 -0.1828  0.9414
 5243TIP3    H237221   3.458   6.383   0.721 -0.1791  0.5950  0.5796
 5244TIP3   OH237222   1.695   4.264   5.840 -0.0589  0.5388  0.6712
 5244TIP3    H137223   1.643   4.263   5.759  1.2408  1.1246 -0.2171
 5244TIP3    H237224   1.720   4.173   5.853 -0.3923  0.4183  0.4928
 5245TIP3   OH237225   4.478   2.819   5.629 -0.5522 -0.2555  0.0167
 5245TIP3    H137226   4.457   2.737   5.584 -0.9905 -0.5523  0.7538
 5245TIP3    H237227   4.549   2.797   5.688 -0.9594 -0.2108  0.5304
 5246TIP3   OH237228   3.330   5.448  12.722  0.5439 -0.2503  0.4757
 5246TIP3    H137229   3.250   5.452  12.774 -0.0621 -2.2372 -0.2070
 5246TIP3    H237230   3.321   5.368  12.670  2.1199  0.5012 -1.0545
 5247TIP3   OH237231   0.320   2.777   4.931 -0.1987 -0.4209  0.0327
 5247TIP3    H137232   0.398   2.768   4.877 -0.2477  1.4150 -0.4133
 5247TIP3    H237233   0.289   2.688   4.943  1.5277 -1.1288 -0.4143
 5248TIP3   OH237234   3.521   4.935  15.955  0.3253  0.3130 -0.0655
 5248TIP3    H137235   3.484   4.961  16.039  1.6251 -1.5504  1.1696
 5248TIP3    H237236   3.544   4.843  15.967  1.5838  0.3048 -2.0954
 5249TIP3   OH237237   0.706   5.500  13.724 -0.3187 -0.0341 -0.4633
 5249TIP3    H137238   0.692   5.576  13.781 -0.6916 -0.2528 -0.2627
 5249TIP3    H237239   0.645   5.514  13.651  1.8292  1.5159 -2.1211
 5250TIP3   OH237240   2.475   2.912   5.058  0.3784  0.0562  0.2434
 5250TIP3    H137241   2.430   2.935   5.139 -0.4588 -0.3784 -0.0944
 5250TIP3    H237242   2.565   2.894   5.085 -0.4456 -2.5900  1.4800
 5251TIP3   OH237243   3.457   6.065  12.492 -0.5275 -0.2067 -0.5020
 5251TIP3    H137244   3.535   6.011  12.498 -0.0804  0.4025 -0.7671
 5251TIP3    H237245   3.434   6.084  12.584  1.4988  2.2253 -0.3784
 5252TIP3   OH237246   6.184   1.638   1.264  0.5649  0.5587 -0.1142
 5252TIP3    H137247   6.120   1.692   1.218  2.4508  1.5424 -1.7361
 5252TIP3    H237248   6.262   1.694   1.273  1.7939 -1.1116  0.2462
 5253TIP3   OH237249   1.005   5.362   1.303 -0.1923 -0.2217 -0.0288
 5253TIP3    H137250   0.918   5.402   1.294 -0.3658  0.4632  3.5193
 5253TIP3    H237251   0.992   5.272   1.272 -1.7879  0.2373 -0.8245
 5254TIP3   OH237252   3.920   1.725  14.801  0.1593  0.0438 -0.7966
 5254TIP3    H137253   4.000   1.772  14.824 -0.3545  1.0150 -0.9314
 5254TIP3    H237254   3.942   1.633  14.812  0.3010  0.3671  2.5357
 5255TIP3   OH237255   0.382   1.961  12.580  0.4593 -0.1840 -0.0592
 5255TIP3    H137256   0.328   2.017  12.637  0.9520 -3.1805  3.7538
 5255TIP3    H237257   0.468   1.962  12.621  0.6349 -3.1403 -0.1608
 5256TIP3   OH237258   4.536   0.717   3.577 -0.3287  0.7761  0.0454
 5256TIP3    H137259   4.477   0.642   3.566 -1.0198  0.9679  2.0022
 5256TIP3    H237260   4.612   0.680   3.622 -0.0961  1.0138 -0.1530
 5257TIP3   OH237261   2.982   3.962  11.988  0.1630  0.0903  0.0168
 5257TIP3    H137262   3.075   3.973  12.007  0.6242 -3.2327  0.2309
 5257TIP3    H237263   2.957   4.043  11.944  3.1824  1.0101 -0.2389
 5258TIP3   OH237264   2.482   5.468  15.642  0.4374 -0.1000  0.3513
 5258TIP3    H137265   2.414   5.400  15.640 -1.5056  1.7510  0.7523
 5258TIP3    H237266   2.496   5.489  15.550  0.4912 -0.4930  0.2645
 5259TIP3   OH237267   6.306   3.141   0.030 -0.0747  0.0179  0.4070
 5259TIP3    H137268   6.390   3.134   0.076  2.0692  2.0920 -2.8073
 5259TIP3    H237269   6.313   3.079  -0.043 -1.6042 -0.1727  0.3905
 5260TIP3   OH237270   1.171   4.014  15.515 -0.0737  0.1144 -0.6138
 5260TIP3    H137271   1.265   4.033  15.514 -0.0830  0.2309  0.3499
 5260TIP3    H237272   1.136   4.067  15.443  0.5253  0.4301 -0.6805
 5261TIP3   OH237273   6.489   1.669  15.003 -0.1897  0.4639 -0.3803
 5261TIP3    H137274   6.395   1.654  15.003 -0.3538  1.0682  1.6520
 5261TIP3    H237275   6.499   1.754  15.047  1.3173  0.2183 -0.2063
 5262TIP3   OH237276   5.296   2.229   3.948  0.1428 -0.1380 -0.5239
 5262TIP3    H137277   5.300   2.306   3.891  2.0304  0.1771 -0.0378
 5262TIP3    H237278   5.218   2.243   4.001  1.3555  2.4167  0.7927
 5263TIP3   OH237279   2.443   1.751   5.747 -0.6960  0.1095 -0.4120
 5263TIP3    H137280   2.409   1.789   5.828  0.5635 -0.5881  0.4959
 5263TIP3    H237281   2.476   1.826   5.697  1.5561  0.3278  1.2522
 5264TIP3   OH237282   0.658   6.564  16.983  0.4503 -0.1228 -0.2439
 5264TIP3    H137283   0.741   6.522  17.007  0.3790  0.4579  1.1011
 5264TIP3    H237284   0.665   6.653  17.019 -0.3696  0.2456 -0.9659
 5265TIP3   OH237285   0.665   0.369  17.102  0.2962  0.0106 -0.1593
 5265TIP3    H137286   0.597   0.367  17.170  1.1931  0.0720  0.7710
 5265TIP3    H237287   0.663   0.282  17.063 -0.1777 -0.0544  0.0000
 5266TIP3   OH237288   2.745   3.111   3.023 -0.2465  0.2691  0.2234
 5266TIP3    H137289   2.822   3.168   3.017 -0.2486  0.1806 -1.0374
 5266TIP3    H237290   2.684   3.159   3.079 -0.4644  1.8122 -1.2431
 5267TIP3   OH237291   6.120   3.125  16.719  0.0171 -0.0440 -0.3649
 5267TIP3    H137292   6.111   3.055  16.783  0.1492  0.5474  0.3194
 5267TIP3    H237293   6.195   3.099  16.665 -1.4890 -1.6870 -1.7923
 5268TIP3   OH237294   2.709   3.106   4.319 -0.0903  0.3236 -0.6457
 5268TIP3    H137295   2.718   3.197   4.292 -2.4789  0.5560 -0.9265
 5268TIP3    H237296   2.693   3.110   4.413  2.2457 -0.0468 -0.1733
 5269TIP3   OH237297   1.871   0.632  15.051  0.0446 -0.2117  0.0207
 5269TIP3    H137298   1.958   0.620  15.091  0.0488 -1.6532 -0.3380
 5269TIP3    H237299   1.810   0.608  15.121  0.0069 -1.0430 -0.2816
 5270TIP3   OH237300   2.674   1.124  16.767  0.4279  0.2366  0.3963
 5270TIP3    H137301   2.766   1.100  16.762  0.9656  1.7872  2.0734
 5270TIP3    H237302   2.641   1.109  16.678  2.5004  0.4884 -0.4747
 5271TIP3   OH237303   3.816   6.019   1.021 -0.3272  0.2234 -0.3713
 5271TIP3    H137304   3.839   5.994   0.931  0.4992 -0.6444  0.0665
 5271TIP3    H237305   3.835   5.942   1.073 -0.1657  0.9435  0.6628
 5272TIP3   OH237306   1.723   5.307   4.719 -0.2627 -0.1090 -0.0814
 5272TIP3    H137307   1.780   5.357   4.662 -0.7476  1.9249  1.1374
 5272TIP3    H237308   1.636   5.346   4.707 -0.4914 -0.0689  1.5405
 5273TIP3   OH237309   5.073   3.189   2.955  0.0832  0.2633 -1.1088
 5273TIP3    H137310   5.082   3.189   2.859 -0.3038 -1.5868 -1.1882
 5273TIP3    H237311   5.133   3.121   2.984  1.3149  1.8064  0.1441
 5274TIP3   OH237312   6.288   2.436   0.800 -0.9432 -0.0002 -0.0674
 5274TIP3    H137313   6.209   2.440   0.854 -0.5962  0.5863  0.4083
 5274TIP3    H237314   6.258   2.461   0.713 -1.0376  1.6745  0.4011
 5275TIP3   OH237315   5.705   4.655   0.503 -0.7419 -0.1261  0.7710
 5275TIP3    H137316   5.754   4.656   0.585  2.7581  0.3697 -1.1209
 5275TIP3    H237317   5.732   4.735   0.458 -1.2915 -1.1387 -1.5060
 5276TIP3   OH237318   1.543   1.596  12.142 -0.3355 -0.2579  0.1778
 5276TIP3    H137319   1.606   1.550  12.087 -0.0892 -0.8125  0.9075
 5276TIP3    H237320   1.494   1.651  12.081  0.7152  0.0372 -0.4311
 5277TIP3   OH237321   4.440   3.382  15.263 -1.0528 -0.3255  0.3769
 5277TIP3    H137322   4.429   3.341  15.177  0.4231  0.4549 -0.2304
 5277TIP3    H237323   4.448   3.475  15.244 -0.7565 -0.1359  1.3693
 5278TIP3   OH237324   5.195   2.416  13.553 -0.5342 -0.3221  0.1705
 5278TIP3    H137325   5.262   2.475  13.587 -1.6070  1.1611 -0.2287
 5278TIP3    H237326   5.191   2.345  13.617  1.1742 -0.2868  0.3739
 5279TIP3   OH237327   0.786   2.117  13.570 -0.4565 -0.0876 -0.1357
 5279TIP3    H137328   0.877   2.121  13.539 -0.2235  1.3467  0.6211
 5279TIP3    H237329   0.793   2.130  13.665 -1.4446 -0.1486 -0.0434
 5280TIP3   OH237330   0.143   3.602   3.024  0.3516 -0.3851 -0.0764
 5280TIP3    H137331   0.099   3.687   3.025 -1.6145 -1.3476 -0.1026
 5280TIP3    H237332   0.232   3.621   3.053 -0.1410  1.6205  0.2899
 5281TIP3   OH237333   4.188   6.176  13.073 -0.4369  0.1294  0.0105
 5281TIP3    H137334   4.227   6.112  13.133  0.0822  2.7182  2.6633
 5281TIP3    H237335   4.106   6.202  13.116  0.0389  2.2174 -0.2567
 5282TIP3   OH237336   6.490   2.273  15.682 -0.3701  0.0713  0.3536
 5282TIP3    H137337   6.514   2.337  15.615 -1.9285  0.0769 -0.2500
 5282TIP3    H237338   6.450   2.325  15.752  2.9604  0.3187  2.3039
 5283TIP3   OH237339   1.678   5.588  14.228 -0.0497  0.1237 -0.0147
 5283TIP3    H137340   1.607   5.630  14.179  1.3797  0.7323 -1.6676
 5283TIP3    H237341   1.749   5.579  14.164  0.2154 -3.6937  0.5671
 5284TIP3   OH237342   1.895   1.476   1.013 -0.4056 -0.3116 -0.3141
 5284TIP3    H137343   1.828   1.526   0.967 -0.5088 -0.4372 -0.3009
 5284TIP3    H237344   1.847   1.426   1.079 -0.8148 -3.0824 -2.5093
 5285TIP3   OH237345   1.410   1.730  16.325  0.6401 -0.5958  0.0332
 5285TIP3    H137346   1.352   1.743  16.250 -0.0586 -1.0212  0.4862
 5285TIP3    H237347   1.480   1.795  16.313 -0.5714  0.7768  0.1031
 5286TIP3   OH237348   6.124   6.034   0.252 -0.1189 -0.3032  0.7028
 5286TIP3    H137349   6.037   6.070   0.236 -1.1330 -2.6329  0.4782
 5286TIP3    H237350   6.156   6.080   0.330 -2.2993 -0.5765  1.8271
 5287TIP3   OH237351   2.551   2.540  11.474  0.0690 -0.2395 -0.2628
 5287TIP3    H137352   2.530   2.490  11.395  1.1564 -0.8799 -0.1610
 5287TIP3    H237353   2.485   2.609  11.477 -0.6159 -0.8323 -1.1655
 5288TIP3   OH237354   0.468   6.462   0.242  0.4893 -0.1801 -0.5357
 5288TIP3    H137355   0.546   6.447   0.188 -0.2303 -0.9360 -1.4086
 5288TIP3    H237356   0.413   6.386   0.226  0.3494 -0.5366  1.5011
 5289TIP3   OH237357   0.997   6.553   1.439 -0.0743 -0.0641  0.1122
 5289TIP3    H137358   0.974   6.484   1.502  2.9547  0.1581  1.6239
 5289TIP3    H237359   0.913   6.580   1.402 -1.8442 -1.3714  2.8397
 5290TIP3   OH237360   3.957   5.763   4.032 -0.4228 -0.1575  0.4293
 5290TIP3    H137361   3.959   5.673   3.999  1.4475 -0.1499  0.4192
 5290TIP3    H237362   3.914   5.756   4.118 -2.3124 -0.6786 -0.4946
 5291TIP3   OH237363   2.634   2.327  11.678  0.3545  0.2107  0.0475
 5291TIP3    H137364   2.716   2.374  11.693  0.7929  0.3422 -2.2859
 5291TIP3    H237365   2.597   2.369  11.600 -1.0581 -0.9755  0.0447
 5292TIP3   OH237366   0.953   2.177  13.229 -0.0600  0.0432  0.0097
 5292TIP3    H137367   0.968   2.135  13.313  0.3006 -2.4776 -1.2199
 5292TIP3    H237368   0.858   2.184  13.221 -0.2557 -2.2856 -0.4650
 5293TIP3   OH237369   2.896   2.089  15.721 -0.1869 -0.0304  0.6076
 5293TIP3    H137370   2.920   2.177  15.751  2.6653  0.0146 -1.3898
 5293TIP3    H237371   2.936   2.030  15.785 -0.0187  0.0972  0.6193
 5294TIP3   OH237372   3.280   2.871   3.887  0.7195 -0.3105  0.1360
 5294TIP3    H137373   3.336   2.822   3.948 -1.2261 -0.7211  1.6899
 5294TIP3    H237374   3.269   2.957   3.928 -0.0888 -0.3745  0.0728
 5295TIP3   OH237375   5.255   2.129  14.553 -0.5910  0.0046  0.1865
 5295TIP3    H137376   5.330   2.179  14.583 -0.9952 -0.1709  1.5403
 5295TIP3    H237377   5.221   2.179  14.479  0.9965 -0.0558 -0.6385
 5296TIP3   OH237378   5.784   3.037  17.418  0.1599  0.1637 -0.1849
 5296TIP3    H137379   5.735   3.051  17.499 -0.1924  1.2713 -0.5669
 5296TIP3    H237380   5.729   2.978  17.367 -0.5444  0.9928 -0.3991
 5297TIP3   OH237381   2.458   2.255  17.284  0.6605  0.5183  0.4294
 5297TIP3    H137382   2.494   2.342  17.266  0.7723  0.2471 -0.7407
 5297TIP3    H237383   2.365   2.271  17.301  0.8560  0.9588  1.1235
 5298TIP3   OH237384   0.913   1.273  15.771  0.5660 -0.4003 -0.0572
 5298TIP3    H137385   0.907   1.183  15.803  1.5710 -0.3601  0.3043
 5298TIP3    H237386   0.837   1.317  15.807  1.1478 -0.5980  1.5221
 5299TIP3   OH237387   6.167   3.324   1.912  0.2733  0.3661 -0.8200
 5299TIP3    H137388   6.103   3.266   1.870 -0.0408 -0.9844  1.3709
 5299TIP3    H237389   6.228   3.347   1.842  0.4713 -2.7016 -1.8259
 5300TIP3   OH237390   5.123   0.292  11.362 -0.3956  0.0111 -0.6117
 5300TIP3    H137391   5.206   0.328  11.332 -0.9930  0.4354 -1.7959
 5300TIP3    H237392   5.105   0.338  11.444 -0.6889  1.7934 -1.6224
 5301TIP3   OH237393   0.024   0.500   1.791  0.2234 -0.7390 -0.1215
 5301TIP3    H137394  -0.003   0.411   1.767 -2.0301  0.2890 -1.7347
 5301TIP3    H237395  -0.050   0.555   1.765  1.6754  1.6622  0.5691
 5302TIP3   OH237396   5.445   4.147  17.014 -0.3433  0.0381  0.1536
 5302TIP3    H137397   5.352   4.124  17.021 -0.6611  1.2827  0.3051
 5302TIP3    H237398   5.460   4.205  17.089  0.2954  0.6600 -0.4430
 5303TIP3   OH237399   1.349   1.872  16.030 -0.3777  0.3680  0.3165
 5303TIP3    H137400   1.278   1.920  16.072 -0.7687  1.8816 -1.8920
 5303TIP3    H237401   1.326   1.873  15.937  1.7397 -0.5208 -0.2684
 5304TIP3   OH237402   6.462   2.288   2.462  0.5101 -0.9252  0.2337
 5304TIP3    H137403   6.502   2.375   2.461 -0.3589 -0.5159 -0.7742
 5304TIP3    H237404   6.532   2.229   2.436  1.6560 -0.8176  2.8191
 5305TIP3   OH237405   1.578   2.163   1.529  0.4265  0.0314 -0.1806
 5305TIP3    H137406   1.637   2.238   1.521  1.0249 -0.3159  0.7625
 5305TIP3    H237407   1.614   2.097   1.470  0.0431  0.3819 -0.8203
 5306TIP3   OH237408   4.106   3.268   4.237 -0.1767  0.0198  0.0216
 5306TIP3    H137409   4.097   3.347   4.291  0.1190  0.3753 -0.4385
 5306TIP3    H237410   4.131   3.199   4.298  0.3302  0.4594  0.3124
 5307TIP3   OH237411   5.725   5.390   0.401  0.1306 -0.6528  0.0579
 5307TIP3    H137412   5.807   5.371   0.447  0.0880  0.2650  0.5334
 5307TIP3    H237413   5.739   5.356   0.312  0.1887 -2.5068  0.7354
 5308TIP3   OH237414   3.834   1.768   5.454 -0.2824 -0.3111 -0.0129
 5308TIP3    H137415   3.748   1.783   5.415 -0.4523 -1.0034  0.0830
 5308TIP3    H237416   3.891   1.749   5.380 -0.3181 -0.3369 -0.0338
 5309TIP3   OH237417   4.991   0.037   5.046  0.8593  0.7196 -0.2342
 5309TIP3    H137418   4.941   0.045   4.965  1.2031 -0.3363 -0.5705
 5309TIP3    H237419   4.994  -0.057   5.063  1.6653  0.8574  0.4473
 5310TIP3   OH237420   5.015   3.819   1.284 -0.2592 -0.2694  0.5340
 5310TIP3    H137421   4.971   3.895   1.243  0.6982 -0.0700 -0.1596
 5310TIP3    H237422   4.949   3.782   1.342 -0.8354  0.9457  0.6893
 5311TIP3   OH237423   5.193   2.662  14.730 -0.1436 -0.5693 -0.0228
 5311TIP3    H137424   5.139   2.669  14.809  0.5720  1.4205  0.3364
 5311TIP3    H237425   5.251   2.738  14.734 -1.5720  0.9136 -3.5547
 5312TIP3   OH237426   1.554   3.318  16.530 -0.0787  0.0246  0.2720
 5312TIP3    H137427   1.574   3.225  16.542 -0.4525  0.1464  2.0968
 5312TIP3    H237428   1.482   3.319  16.468 -0.6283 -0.9724  0.8643
 5313TIP3   OH237429   2.169   0.709  12.084 -0.1014 -0.1792 -0.0476
 5313TIP3    H137430   2.088   0.658  12.088  0.1034 -0.4187  1.8457
 5313TIP3    H237431   2.155   0.783  12.142  1.5140 -1.0198  1.5274
 5314TIP3   OH237432   1.969   0.093  11.795  0.2127 -0.3897  0.1742
 5314TIP3    H137433   1.986   0.072  11.887  0.8008 -0.9019 -0.0505
 5314TIP3    H237434   2.055   0.095  11.754 -0.1089 -1.0841 -0.5647
 5315TIP3   OH237435   1.044   3.935   1.695  0.7356 -0.2439 -0.2025
 5315TIP3    H137436   0.962   3.947   1.743  0.5726  0.8747 -0.7211
 5315TIP3    H237437   1.081   4.023   1.689  0.5919 -0.2757 -2.3546
 5316TIP3   OH237438   5.322   4.521  16.197  0.3068  0.1217 -0.0468
 5316TIP3    H137439   5.230   4.515  16.221  0.5317 -1.2673  0.5801
 5316TIP3    H237440   5.326   4.593  16.134 -1.1405  0.4221  0.1678
 5317TIP3   OH237441   3.489   1.068   1.764  0.2938 -0.2084 -0.8304
 5317TIP3    H137442   3.452   1.120   1.693  1.2720  1.0001 -0.4843
 5317TIP3    H237443   3.574   1.108   1.781  0.8348 -1.5818 -0.1662
 5318TIP3   OH237444   4.469   0.556   3.815 -0.4689 -0.1610 -0.2825
 5318TIP3    H137445   4.525   0.633   3.827  0.0622 -0.5353 -0.3582
 5318TIP3    H237446   4.416   0.577   3.738 -0.3341  0.1308 -0.2976
 5319TIP3   OH237447   5.336   1.020   2.482 -0.4787  0.1329 -0.0012
 5319TIP3    H137448   5.396   1.080   2.527 -0.2393 -0.0602 -0.0651
 5319TIP3    H237449   5.254   1.070   2.475 -0.0814  0.7233 -0.6648
 5320TIP3   OH237450   4.578   6.280   2.121  0.5121  0.1201  0.3232
 5320TIP3    H137451   4.539   6.195   2.141 -0.5117  0.5319  0.1509
 5320TIP3    H237452   4.661   6.259   2.079 -0.1953 -0.8401 -0.6742
 5321TIP3   OH237453   5.144   5.533  17.470 -0.5190 -0.5415  0.2714
 5321TIP3    H137454   5.108   5.616  17.502 -0.4483 -1.0443  1.7156
 5321TIP3    H237455   5.080   5.502  17.406 -1.1510  0.0310  0.6176
 5322TIP3   OH237456   1.503   6.433  13.906  0.5985  0.4445 -0.3988
 5322TIP3    H137457   1.497   6.402  13.996  1.7163  0.4194 -0.3163
 5322TIP3    H237458   1.468   6.362  13.853  1.1698 -0.0900 -0.0681
 5323TIP3   OH237459   6.328   5.587  13.917  0.7455 -0.3564 -0.0083
 5323TIP3    H137460   6.410   5.543  13.896  1.1486  0.0741  0.6164
 5323TIP3    H237461   6.265   5.553  13.853  1.6320  0.0397 -1.1134
 5324TIP3   OH237462   2.277   4.440   0.149  0.0699  0.4904 -0.3030
 5324TIP3    H137463   2.185   4.467   0.158 -0.4152 -1.3281  0.6535
 5324TIP3    H237464   2.316   4.459   0.234  0.4654  0.7719 -0.5403
 5325TIP3   OH237465   2.082   3.512   2.252  0.0330 -0.2241  0.8655
 5325TIP3    H137466   2.008   3.538   2.197  0.6226  0.9369  0.5822
 5325TIP3    H237467   2.054   3.532   2.341  0.1307  0.5511  0.7272
 5326TIP3   OH237468   1.619   3.651  17.057  0.4281  0.0706  0.1003
 5326TIP3    H137469   1.590   3.695  16.977  2.4360  0.9734 -0.2086
 5326TIP3    H237470   1.561   3.576  17.066 -0.4368  0.4668 -1.7002
 5327TIP3   OH237471   2.044   4.687  12.799  0.2762  0.2735  0.0311
 5327TIP3    H137472   1.968   4.731  12.762 -1.1161 -1.6306  0.4756
 5327TIP3    H237473   2.008   4.626  12.863  2.2469 -0.1870  0.7830
 5328TIP3   OH237474   4.914   5.600  14.707  0.1382  0.1046 -0.4010
 5328TIP3    H137475   4.979   5.665  14.736 -0.3205 -0.3508  1.8432
 5328TIP3    H237476   4.965   5.526  14.676  0.6671  1.3101 -2.6164
 5329TIP3   OH237477   3.784   2.226  13.504 -0.5643  0.0821 -0.4443
 5329TIP3    H137478   3.861   2.230  13.560 -0.3601 -2.0671 -0.4882
 5329TIP3    H237479   3.815   2.184  13.424 -2.0956 -2.5990  0.2414
 5330TIP3   OH237480   1.618   6.175  11.089  0.5852  0.8639  0.4448
 5330TIP3    H137481   1.712   6.162  11.097  0.4329 -0.4541  0.1743
 5330TIP3    H237482   1.607   6.217  11.004  0.8870  0.5339  0.2408
 5331TIP3   OH237483   5.422   2.479  14.691 -0.2586  0.3149  0.4442
 5331TIP3    H137484   5.403   2.573  14.682 -0.8805  0.4502  2.6220
 5331TIP3    H237485   5.338   2.439  14.713  0.0308 -0.7485 -0.2974
 5332TIP3   OH237486   3.661   0.323   3.706  0.1446  0.2975 -0.1972
 5332TIP3    H137487   3.626   0.241   3.671 -0.1290  0.5718 -0.5758
 5332TIP3    H237488   3.753   0.323   3.680 -0.0240  0.4324 -0.7973
 5333TIP3   OH237489   3.301   6.378  16.219 -0.8320 -0.1080 -0.4155
 5333TIP3    H137490   3.245   6.454  16.233 -1.9032 -1.0327  0.5961
 5333TIP3    H237491   3.250   6.321  16.160  0.0125 -0.0059 -1.2767
 5334TIP3   OH237492   6.538   6.693   4.997  0.3916  0.8362 -0.7383
 5334TIP3    H137493   6.534   6.753   5.071  1.0997 -0.5102  0.4503
 5334TIP3    H237494   6.549   6.606   5.037 -0.0823 -0.0312 -2.4000
 5335TIP3   OH237495   3.096   0.653   2.029 -0.5840  0.0061  0.2786
 5335TIP3    H137496   3.064   0.573   1.987  0.3910 -0.2454 -0.0029
 5335TIP3    H237497   3.063   0.647   2.119 -0.2085 -0.8942  0.3627
 5336TIP3   OH237498   5.491   1.769  11.875 -0.3584  0.2172  0.0132
 5336TIP3    H137499   5.556   1.725  11.820  0.3595 -0.2692  1.2221
 5336TIP3    H237500   5.407   1.750  11.832  0.1763 -0.1608 -0.8985
 5337TIP3   OH237501   5.380   3.451  15.200  0.3665  0.8620  0.5473
 5337TIP3    H137502   5.342   3.470  15.114 -1.0961 -0.2401  0.8926
 5337TIP3    H237503   5.446   3.384  15.182 -0.1788  0.3737  0.2888
 5338TIP3   OH237504   2.224   4.040   2.017 -0.1145 -0.6631 -0.4387
 5338TIP3    H137505   2.312   4.018   2.047  0.0249 -2.1795 -1.7908
 5338TIP3    H237506   2.166   3.990   2.074 -0.0353 -0.6407 -0.3395
 5339TIP3   OH237507   2.393   4.006  13.563  0.2318 -0.3002  0.5005
 5339TIP3    H137508   2.385   4.102  13.557  0.3237 -0.2901  0.5453
 5339TIP3    H237509   2.318   3.973  13.514  1.4055 -0.2243 -1.4244
 5340TIP3   OH237510   5.205   6.085  13.949 -0.6918  0.0626 -0.2195
 5340TIP3    H137511   5.159   6.046  13.875  0.5945 -0.0023 -1.0002
 5340TIP3    H237512   5.234   6.011  14.002  1.0050 -0.0422 -1.2525
 5341TIP3   OH237513   1.710   6.228   3.357 -0.4498  0.5267 -0.9198
 5341TIP3    H137514   1.796   6.245   3.396 -0.8376  0.2398  0.1147
 5341TIP3    H237515   1.667   6.314   3.356 -1.7236  0.1186  2.6021
 5342TIP3   OH237516   5.391   5.733  13.093  0.0791 -0.7308  0.3759
 5342TIP3    H137517   5.438   5.686  13.024 -0.9402  0.7235 -1.3803
 5342TIP3    H237518   5.316   5.677  13.113 -0.0406 -0.8038 -0.2557
 5343TIP3   OH237519   6.268   1.252  16.626  0.3792 -0.4200  0.0401
 5343TIP3    H137520   6.334   1.316  16.600  0.8208 -0.1891  1.6096
 5343TIP3    H237521   6.207   1.301  16.681  0.5031 -1.2253  0.9309
 5344TIP3   OH237522   2.799   4.557   6.308 -0.3232  0.3151  0.5633
 5344TIP3    H137523   2.894   4.555   6.303 -0.2798  0.4132  1.2334
 5344TIP3    H237524   2.780   4.601   6.391 -0.9064 -2.4327  1.9942
 5345TIP3   OH237525   4.267   0.616   1.280  0.5408 -0.4094 -0.6104
 5345TIP3    H137526   4.342   0.674   1.263  0.7143 -0.7215 -0.9293
 5345TIP3    H237527   4.299   0.556   1.348  0.9159 -1.1600 -1.4352
 5346TIP3   OH237528   2.157   3.490  13.147 -0.4592  0.2062 -0.2470
 5346TIP3    H137529   2.161   3.544  13.068 -0.3400  0.2903 -0.1841
 5346TIP3    H237530   2.079   3.435  13.135 -1.0457  0.9550  0.0449
 5347TIP3   OH237531   6.500   3.838  12.373 -0.4709  0.2074 -0.4353
 5347TIP3    H137532   6.513   3.905  12.441  0.9252  0.1954 -0.6497
 5347TIP3    H237533   6.533   3.757  12.412 -1.4913 -0.2198 -0.4364
 5348TIP3   OH237534   3.573   4.602   3.491  0.0781 -0.0074 -0.3826
 5348TIP3    H137535   3.608   4.601   3.401 -0.7213 -1.5369 -0.7056
 5348TIP3    H237536   3.483   4.571   3.482 -0.7275  1.8692  0.6994
 5349TIP3   OH237537   0.954   2.763  12.009  0.1565 -0.0471 -0.6351
 5349TIP3    H137538   0.866   2.728  11.991  0.8640 -1.8530 -0.8250
 5349TIP3    H237539   0.998   2.761  11.924  0.2852  1.2333 -0.6211
 5350TIP3   OH237540   0.033   4.425  16.379 -0.2591 -0.2417 -0.5344
 5350TIP3    H137541   0.061   4.516  16.370  2.4367 -0.8010  1.0655
 5350TIP3    H237542  -0.038   4.429  16.444 -0.6064  0.7427 -0.9431
 5351TIP3   OH237543   4.793   0.852  14.950 -0.0851  0.5127  0.2741
 5351TIP3    H137544   4.867   0.812  14.903  0.6002 -0.5326  2.1723
 5351TIP3    H237545   4.716   0.814  14.909  0.5240 -1.3478  0.7524
 5352TIP3   OH237546   6.717   5.430  11.599 -0.0877 -0.2912 -0.0007
 5352TIP3    H137547   6.628   5.439  11.565 -0.0929 -1.3205 -0.3203
 5352TIP3    H237548   6.769   5.403  11.523  0.5584  0.5825  0.1216
 5353TIP3   OH237549   0.613   4.103   3.347 -0.0472  0.7458 -0.1972
 5353TIP3    H137550   0.631   4.192   3.315  2.6917  0.7224  0.9900
 5353TIP3    H237551   0.686   4.051   3.314  0.0316 -0.3984  1.6672
 5354TIP3   OH237552   4.342   2.742  16.398  0.0233  0.0935 -0.0291
 5354TIP3    H137553   4.349   2.836  16.414  0.4902 -0.0674  0.7437
 5354TIP3    H237554   4.342   2.702  16.486 -0.1596 -0.6251 -0.3458
 5355TIP3   OH237555   4.350   1.830   3.174 -0.3690  0.0267 -0.3318
 5355TIP3    H137556   4.267   1.787   3.193 -1.4622  1.0639 -2.3719
 5355TIP3    H237557   4.405   1.761   3.136  0.1816 -0.9292  2.0238
 5356TIP3   OH237558   6.232   3.521  12.628  0.2977  0.0986 -0.1367
 5356TIP3    H137559   6.313   3.472  12.610  0.3628  0.3377 -0.5004
 5356TIP3    H237560   6.209   3.497  12.718  0.5904 -0.2307 -0.1474
 5357TIP3   OH237561   4.260   2.543   0.783 -0.2601 -0.3033  0.1462
 5357TIP3    H137562   4.344   2.560   0.826 -0.0446 -2.3138  0.6041
 5357TIP3    H237563   4.280   2.543   0.689 -0.4153  2.3971  0.0258
 5358TIP3   OH237564   4.140   2.855  13.908  0.0609  0.0291 -0.0333
 5358TIP3    H137565   4.188   2.798  13.969 -0.1090  1.0450  1.1028
 5358TIP3    H237566   4.179   2.941  13.921 -1.1676  0.6121 -0.0718
 5359TIP3   OH237567   3.652   3.155  14.175  0.4384 -0.1924  0.0109
 5359TIP3    H137568   3.730   3.116  14.214  0.0963 -0.6629  0.2438
 5359TIP3    H237569   3.629   3.095  14.103  0.6042  0.2369 -0.4015
 5360TIP3   OH237570   2.063   3.724  16.722 -0.6734 -0.7169  0.4264
 5360TIP3    H137571   1.973   3.757  16.715 -1.1816 -1.9672  0.8286
 5360TIP3    H237572   2.055   3.629  16.710  0.6923 -0.7704 -0.2332
 5361TIP3   OH237573   3.512   5.217  13.740 -0.2352  0.4475 -0.4343
 5361TIP3    H137574   3.544   5.148  13.683 -0.3418 -0.4483  0.5595
 5361TIP3    H237575   3.418   5.223  13.720 -0.5406 -0.7545  0.5139
 5362TIP3   OH237576   3.609   3.050  17.274 -0.1948 -0.3303 -0.2931
 5362TIP3    H137577   3.592   3.038  17.181  0.2050  2.2027 -0.7745
 5362TIP3    H237578   3.701   3.028  17.285  0.3647  1.4752 -1.0048
 5363TIP3   OH237579   5.397   6.126   2.063 -0.6284  0.5375 -0.3428
 5363TIP3    H137580   5.385   6.044   2.014  2.4707  0.2403 -0.8262
 5363TIP3    H237581   5.367   6.194   2.003 -0.6813 -0.0969 -1.0513
 5364TIP3   OH237582   4.070   0.425  15.424 -0.7065 -0.0785  0.2399
 5364TIP3    H137583   4.163   0.413  15.405 -0.6542  1.1062 -0.3471
 5364TIP3    H237584   4.025   0.385  15.350 -0.5901  1.4037 -0.6559
 5365TIP3   OH237585   2.848   1.442  15.725  0.0021  0.2033 -0.3791
 5365TIP3    H137586   2.893   1.425  15.642  2.6536 -0.7274  1.1132
 5365TIP3    H237587   2.904   1.506  15.770 -0.0276 -1.1094  1.6523
 5366TIP3   OH237588   0.196   5.074   4.281 -0.2961  0.7993  0.3827
 5366TIP3    H137589   0.108   5.066   4.242  0.4758 -1.6621 -1.1283
 5366TIP3    H237590   0.244   5.129   4.219 -0.5102  1.3794  0.7259
 5367TIP3   OH237591   5.353   6.770   4.488 -0.2684  0.8524  0.7544
 5367TIP3    H137592   5.317   6.760   4.400  0.4383  0.2080  0.5282
 5367TIP3    H237593   5.444   6.742   4.480 -0.6033 -0.7807  2.0082
 5368TIP3   OH237594   3.552   4.757   2.992  0.7773  0.2027 -0.0909
 5368TIP3    H137595   3.644   4.768   2.967  1.0371 -1.3148  0.0815
 5368TIP3    H237596   3.535   4.663   2.979 -1.4680  0.8469 -2.4243
 5369TIP3   OH237597   4.145   0.940   4.250 -0.5235 -0.4427  0.2224
 5369TIP3    H137598   4.054   0.946   4.281 -0.3763 -0.9913  0.7795
 5369TIP3    H237599   4.198   0.947   4.330 -0.1077 -0.9488 -0.0066
 5370TIP3   OH237600   0.955   2.318   4.717 -0.0541 -0.0489 -0.3224
 5370TIP3    H137601   0.986   2.278   4.635  1.6995 -0.5831  0.5556
 5370TIP3    H237602   0.891   2.255   4.751  0.3887 -0.5936 -0.4894
 5371TIP3   OH237603   5.020   4.088  14.685  0.3236 -0.2649 -0.2222
 5371TIP3    H137604   5.026   4.005  14.637  1.1763 -0.5758  0.4035
 5371TIP3    H237605   5.111   4.114  14.698  0.0682  0.4957  0.0648
 5372TIP3   OH237606   3.467   3.027  13.988  0.4465  0.0672  0.5494
 5372TIP3    H137607   3.463   3.097  13.923  0.7768  0.8235  1.3266
 5372TIP3    H237608   3.376   3.012  14.013  0.0438 -1.7737 -1.6496
 5373TIP3   OH237609   2.173   2.246   4.350  0.1666  0.5467 -0.3083
 5373TIP3    H137610   2.080   2.226   4.343  0.1135  0.4118  0.6487
 5373TIP3    H237611   2.216   2.182   4.294 -0.0953 -1.4976  1.6752
 5374TIP3   OH237612   3.142   0.093   0.995 -0.0921 -0.4919  0.3639
 5374TIP3    H137613   3.073   0.057   1.050 -1.4312 -0.5649 -1.3023
 5374TIP3    H237614   3.101   0.166   0.949  0.1606 -1.9713 -2.4290
 5375TIP3   OH237615   0.350   2.041   0.984  0.3050 -0.2194 -0.0602
 5375TIP3    H137616   0.391   1.990   1.053 -0.7211 -1.1620 -0.1145
 5375TIP3    H237617   0.295   1.978   0.937 -0.0085  0.6729 -0.9348
 5376TIP3   OH237618   0.753   2.437   2.052 -0.7345 -0.4477  0.3842
 5376TIP3    H137619   0.770   2.488   1.973 -0.8074  0.3772  0.8888
 5376TIP3    H237620   0.772   2.347   2.027  1.2457  0.0433  0.0062
 5377TIP3   OH237621   3.866   2.026  16.589  0.0844  0.3758 -0.3559
 5377TIP3    H137622   3.857   1.942  16.544 -1.3873 -0.0844  0.6965
 5377TIP3    H237623   3.948   2.020  16.637  0.0513 -0.4150 -0.3917
 5378TIP3   OH237624   0.506   6.111  16.414 -0.3366 -0.0056  0.1998
 5378TIP3    H137625   0.416   6.122  16.444 -0.5724  0.6879 -0.6939
 5378TIP3    H237626   0.552   6.189  16.447 -0.7810  1.1799 -1.7787
 5379TIP3   OH237627   3.469   2.646   0.568 -0.0191 -0.3073  0.7492
 5379TIP3    H137628   3.542   2.690   0.612  2.1369 -4.4923  1.9345
 5379TIP3    H237629   3.463   2.690   0.483  0.9967  2.8901  2.1739
 5380TIP3   OH237630   6.205   2.979   4.436 -0.5851  0.1103 -0.4628
 5380TIP3    H137631   6.145   2.908   4.413  1.7107 -1.5426 -1.8359
 5380TIP3    H237632   6.203   2.982   4.532 -1.4850 -1.1495 -0.4245
 5381TIP3   OH237633   0.956   5.400  11.654 -0.6154  0.5298  0.8006
 5381TIP3    H137634   0.889   5.369  11.594  0.1851  1.0262 -0.3874
 5381TIP3    H237635   1.007   5.463  11.603  0.3011  0.7165  1.8974
 5382TIP3   OH237636   0.298   4.286  15.458 -0.8310 -0.5170  0.5832
 5382TIP3    H137637   0.370   4.340  15.427  0.1439 -1.5720  0.9605
 5382TIP3    H237638   0.240   4.348  15.503 -0.7839  0.5367 -0.7186
 5383TIP3   OH237639   6.609   5.247   0.656 -0.0570 -0.0346  0.2486
 5383TIP3    H137640   6.595   5.302   0.579 -1.1935 -1.4763 -0.6181
 5383TIP3    H237641   6.523   5.241   0.698  0.1225 -0.8515  0.5215
 5384TIP3   OH237642   1.191   0.747   1.021  0.0588  0.4170 -0.1964
 5384TIP3    H137643   1.179   0.744   0.926 -1.0264  2.5363 -0.1727
 5384TIP3    H237644   1.147   0.827   1.048  0.4260 -0.1072  2.1059
 5385TIP3   OH237645   1.406   5.047  15.638 -0.0746 -0.4851 -0.2183
 5385TIP3    H137646   1.458   5.003  15.570 -0.0413 -0.9912  0.1264
 5385TIP3    H237647   1.466   5.055  15.712  0.4434  1.6298 -0.7990
 5386TIP3   OH237648   6.034   1.588  15.528  0.2294  0.1479  0.2865
 5386TIP3    H137649   6.031   1.533  15.450 -0.3898 -1.2259  1.2360
 5386TIP3    H237650   6.122   1.577  15.562  0.5048  0.7596 -0.1934
 5387TIP3   OH237651   3.421   0.301  16.132 -0.3153  0.0618  0.0024
 5387TIP3    H137652   3.498   0.350  16.101 -0.0034  1.1716  2.3018
 5387TIP3    H237653   3.455   0.244  16.202 -1.5490  0.5900  1.0785
 5388TIP3   OH237654   3.602   4.629  14.511 -0.3373  0.2153 -0.3599
 5388TIP3    H137655   3.625   4.684  14.586 -0.8921  0.6290 -0.4907
 5388TIP3    H237656   3.512   4.653  14.490 -0.6627 -0.8743 -0.3007
 5389TIP3   OH237657   1.275   4.033   0.673  0.1809 -0.1565 -0.3293
 5389TIP3    H137658   1.247   3.951   0.632  1.2296 -0.4681 -0.4606
 5389TIP3    H237659   1.198   4.090   0.669 -0.3741 -0.9209 -0.7880
 5390TIP3   OH237660   5.003   1.913  11.350  0.1535 -0.3370 -0.1014
 5390TIP3    H137661   4.913   1.915  11.382  0.2166  1.1643  0.0835
 5390TIP3    H237662   5.005   1.841  11.287 -1.1749 -0.3996 -0.0924
 5391TIP3   OH237663   2.320   5.084  13.320  0.1484 -0.4584 -0.2466
 5391TIP3    H137664   2.374   5.037  13.384  0.0509 -1.4570 -0.8760
 5391TIP3    H237665   2.232   5.085  13.358 -0.1370 -1.9466 -0.7725
 5392TIP3   OH237666   1.307   0.088   5.824 -0.1708 -0.3805  0.2149
 5392TIP3    H137667   1.315   0.174   5.784  3.0074 -0.6717 -0.1001
 5392TIP3    H237668   1.309   0.105   5.919 -0.5870 -0.0582  0.1649
 5393TIP3   OH237669   0.482   1.277  17.038  0.0279  0.1301 -0.8551
 5393TIP3    H137670   0.410   1.301  17.096  0.6148  1.2116 -0.5503
 5393TIP3    H237671   0.465   1.327  16.958 -1.3295 -2.1051 -2.0630
 5394TIP3   OH237672   6.058   6.709   6.736  0.2460 -0.3980  0.0205
 5394TIP3    H137673   6.047   6.721   6.830  0.7218 -1.3112  0.2072
 5394TIP3    H237674   6.132   6.766   6.713  1.1331 -1.3137  0.5043
 5395TIP3   OH237675   5.411   6.368  12.308 -0.7502  0.6429  0.0085
 5395TIP3    H137676   5.498   6.345  12.340 -1.2067 -0.5013  0.4657
 5395TIP3    H237677   5.427   6.435  12.242  0.3366  1.9049  1.4682
 5396TIP3   OH237678   2.315   3.784  16.798 -0.0781 -0.4502 -0.0641
 5396TIP3    H137679   2.295   3.869  16.837 -0.4216  0.3903 -1.9387
 5396TIP3    H237680   2.230   3.749  16.771  0.2201 -0.4101 -1.1386
 5397TIP3   OH237681   4.626   0.934  11.383  0.5191 -0.3156  0.2471
 5397TIP3    H137682   4.678   0.866  11.339  0.4156  0.5778 -1.3323
 5397TIP3    H237683   4.690   0.984  11.434  0.9561 -0.2377 -0.3683
 5398TIP3   OH237684   1.016   4.302  14.540  0.6314  0.2197  0.8310
 5398TIP3    H137685   1.086   4.259  14.492  0.4065  0.2107  0.5069
 5398TIP3    H237686   0.987   4.373  14.483 -0.4514 -0.5368  0.4170
 5399TIP3   OH237687   1.227   5.528  13.513 -0.5245 -0.2718  0.8524
 5399TIP3    H137688   1.320   5.546  13.511  0.0573 -2.6651 -1.9145
 5399TIP3    H237689   1.190   5.582  13.443 -0.5522 -1.7272 -0.3195
 5400TIP3   OH237690   4.562   2.994   5.444 -0.0186  0.2191  0.2760
 5400TIP3    H137691   4.518   2.973   5.362  0.4144  0.4998 -0.0360
 5400TIP3    H237692   4.530   2.929   5.507 -0.6725  0.2687 -0.0089
 5401TIP3   OH237693   5.707   3.222   2.157 -0.1729 -0.4007  0.6508
 5401TIP3    H137694   5.722   3.171   2.236 -2.9818  0.6067  1.9556
 5401TIP3    H237695   5.700   3.312   2.187  0.1230  0.1962 -0.9630
 5402TIP3   OH237696   0.818   1.628   4.617  0.7282 -0.2216 -0.2399
 5402TIP3    H137697   0.841   1.632   4.524  1.0759 -0.0931 -0.1502
 5402TIP3    H237698   0.755   1.557   4.622 -1.3035  1.4369 -0.9855
 5403TIP3   OH237699   4.548   0.317   1.760  0.0736  0.2622 -0.2629
 5403TIP3    H137700   4.473   0.277   1.716  0.3247  1.0052 -1.3981
 5403TIP3    H237701   4.573   0.390   1.704 -0.7657  2.4798  2.0449
 5404TIP3   OH237702   3.491   5.918  14.573  0.2186 -1.0334  1.0452
 5404TIP3    H137703   3.577   5.951  14.547 -0.3332 -1.6363 -2.0090
 5404TIP3    H237704   3.453   5.989  14.625  0.9080  1.2142 -1.2654
 5405TIP3   OH237705   5.289   6.256   2.735  1.0028  0.2779  0.1806
 5405TIP3    H137706   5.271   6.162   2.740 -2.5070  0.7675 -0.3421
 5405TIP3    H237707   5.379   6.265   2.765  0.9788 -3.0909  1.7651
 5406TIP3   OH237708   0.796   3.879  14.439  0.1939 -0.7633 -0.4068
 5406TIP3    H137709   0.816   3.885  14.345 -1.0835  1.8534 -0.5934
 5406TIP3    H237710   0.713   3.926  14.449  0.3885 -0.8233  2.0602
 5407TIP3   OH237711   0.957   0.040   1.501  0.3025 -0.0553  0.1546
 5407TIP3    H137712   0.994   0.096   1.433  1.9207 -1.7749 -0.4732
 5407TIP3    H237713   0.984  -0.049   1.476  0.4806 -0.8012  2.7450
 5408TIP3   OH237714   3.929   1.049   4.007  0.0455  0.1649  0.0429
 5408TIP3    H137715   4.017   1.084   4.018  0.2713 -0.5232  0.4529
 5408TIP3    H237716   3.933   0.961   4.044 -1.3714  0.9086  2.1147
 5409TIP3   OH237717   0.965   6.358  16.031 -0.1758  0.0063  0.1353
 5409TIP3    H137718   0.893   6.378  16.091 -0.0023 -0.2082  0.4153
 5409TIP3    H237719   1.006   6.442  16.014 -0.0479  0.0289  0.5455
 5410TIP3   OH237720   3.989   6.185  11.296 -0.3311 -0.2403 -0.0888
 5410TIP3    H137721   3.931   6.238  11.241 -0.7508  0.8466  1.3315
 5410TIP3    H237722   3.932   6.117  11.332 -0.0925 -0.8560 -0.8731
 5411TIP3   OH237723   4.918   0.947  13.918  0.5853  0.1524  0.2984
 5411TIP3    H137724   4.918   0.851  13.917  2.2499  0.1134  1.2741
 5411TIP3    H237725   4.891   0.971  13.829  0.0790 -1.2084  0.0547
 5412TIP3   OH237726   5.466   6.311   0.850 -0.0079 -0.3580 -0.2218
 5412TIP3    H137727   5.537   6.371   0.873 -0.7789  0.5535 -0.1724
 5412TIP3    H237728   5.510   6.229   0.829  1.3374  0.9330 -2.9725
 5413TIP3   OH237729   1.116   3.505   4.838 -0.3641 -0.0493 -0.0692
 5413TIP3    H137730   1.158   3.572   4.783  0.4428 -0.3891  0.1145
 5413TIP3    H237731   1.052   3.463   4.780 -2.2321  2.0669  0.3063
 5414TIP3   OH237732   0.479   3.451   6.878 -0.2056  0.5372 -0.1918
 5414TIP3    H137733   0.552   3.391   6.863 -1.0462  0.0979 -3.1382
 5414TIP3    H237734   0.403   3.394   6.893 -0.2518  0.9761  1.4424
 5415TIP3   OH237735   0.916   6.657  14.248 -0.0161  0.1300  0.3780
 5415TIP3    H137736   0.944   6.675  14.338  0.6111  0.9996  0.0221
 5415TIP3    H237737   0.828   6.694  14.243 -0.2949 -0.4602  0.8055
 5416TIP3   OH237738   0.329   1.687  13.076 -0.2853 -0.0776  0.3818
 5416TIP3    H137739   0.288   1.773  13.088  0.8322  0.2541  2.4141
 5416TIP3    H237740   0.297   1.656  12.992 -1.1371  2.1016 -0.1610
 5417TIP3   OH237741   3.494   5.790  13.431 -0.0794  0.8409  0.0516
 5417TIP3    H137742   3.424   5.725  13.437  0.8363 -0.5147 -2.4265
 5417TIP3    H237743   3.542   5.781  13.513 -1.6471  0.3926  0.9443
 5418TIP3   OH237744   2.325   3.919   2.694 -0.0214 -0.1952  0.3477
 5418TIP3    H137745   2.354   3.853   2.629  0.2579 -1.4174  1.6563
 5418TIP3    H237746   2.291   3.991   2.641 -2.2374 -2.1989 -1.1842
 5419TIP3   OH237747   6.344   2.184  12.825  0.6173 -0.1784  0.2633
 5419TIP3    H137748   6.337   2.250  12.894 -0.5405  1.2849 -1.1426
 5419TIP3    H237749   6.438   2.180  12.806  0.8260  0.2510  1.1336
 5420TIP3   OH237750   6.645   2.950  11.882 -0.1823 -0.3446  0.2527
 5420TIP3    H137751   6.632   2.902  11.964  0.5498  1.4146  1.4495
 5420TIP3    H237752   6.738   2.974  11.883 -0.2712  0.0858 -0.8787
 5421TIP3   OH237753   2.958   4.037  14.774 -0.2744 -0.4300 -0.5751
 5421TIP3    H137754   2.977   3.944  14.761 -0.7868 -0.8286  1.2091
 5421TIP3    H237755   3.014   4.082  14.710 -0.2084 -1.9548 -1.6486
 5422TIP3   OH237756   1.549   4.359  17.054 -0.2336 -0.4648 -0.0724
 5422TIP3    H137757   1.475   4.420  17.048  0.4187  0.2576 -1.0212
 5422TIP3    H237758   1.593   4.383  17.136 -0.0801  0.2254 -0.3515
 5423TIP3   OH237759   3.576   0.078   5.535 -0.0930 -0.0748  0.3405
 5423TIP3    H137760   3.481   0.077   5.523 -0.0946  1.4330  0.1094
 5423TIP3    H237761   3.608   0.142   5.472  1.0821 -0.4897  0.4864
 5424TIP3   OH237762   0.640   0.798  12.474  0.3623 -0.2899 -0.0262
 5424TIP3    H137763   0.689   0.822  12.553 -2.3181 -2.1896  2.4410
 5424TIP3    H237764   0.578   0.871  12.461  0.2156 -0.3762  0.1814
 5425TIP3   OH237765   1.388   5.598   4.963  0.1372  0.0549  0.1830
 5425TIP3    H137766   1.399   5.507   4.992  1.4377  0.0479 -0.2614
 5425TIP3    H237767   1.328   5.637   5.027  0.4688 -0.8124  1.0357
 5426TIP3   OH237768   3.874   6.121   1.310  0.1794  0.0533  0.3585
 5426TIP3    H137769   3.853   6.079   1.227 -1.3887  1.5963 -0.0903
 5426TIP3    H237770   3.804   6.184   1.323  0.5349  0.0375  2.7505
 5427TIP3   OH237771   3.536   4.644   5.022  0.4434 -0.4702  0.4570
 5427TIP3    H137772   3.476   4.718   5.030 -0.7270 -1.4848  1.5676
 5427TIP3    H237773   3.614   4.680   4.980  0.1842  1.5386  1.5960
 5428TIP3   OH237774   1.149   4.858  15.189  0.2595  0.5060 -0.1605
 5428TIP3    H137775   1.109   4.837  15.273  1.3835 -1.7835 -0.1140
 5428TIP3    H237776   1.172   4.950  15.195 -0.0220  0.4787  1.9009
 5429TIP3   OH237777   6.378   5.613   5.847 -0.1222  0.4484 -0.9338
 5429TIP3    H137778   6.299   5.640   5.893  0.5102  0.6015  0.0988
 5429TIP3    H237779   6.360   5.523   5.819 -0.7909  0.6078 -1.0333
 5430TIP3   OH237780   3.732   6.513   1.087 -0.5811 -0.0143  0.7435
 5430TIP3    H137781   3.661   6.572   1.061  0.6729  0.5864 -1.6211
 5430TIP3    H237782   3.775   6.557   1.160 -1.5261  0.5086  0.9912
 5431TIP3   OH237783   0.655   2.882  17.366 -0.1119  0.1367 -0.2190
 5431TIP3    H137784   0.727   2.932  17.328 -0.4772 -0.2354 -1.4530
 5431TIP3    H237785   0.622   2.937  17.437  0.1958  1.1459 -0.8379
 5432TIP3   OH237786   6.590   4.331  15.824 -0.1987 -0.1283  0.6049
 5432TIP3    H137787   6.588   4.310  15.731 -1.1180  1.5090  0.2191
 5432TIP3    H237788   6.681   4.320  15.850  0.3229  0.6414 -0.7995
 5433TIP3   OH237789   1.198   3.027  13.512  0.6612 -0.3868  0.4075
 5433TIP3    H137790   1.189   2.953  13.572 -0.3414 -0.0711  0.6710
 5433TIP3    H237791   1.227   2.989  13.430  2.0485 -0.8340  1.0807
 5434TIP3   OH237792   5.983   2.639   4.995  0.1663  0.0391 -0.1085
 5434TIP3    H137793   6.002   2.731   4.978  0.2344  0.3411  1.4756
 5434TIP3    H237794   5.997   2.596   4.911 -1.0606  1.6450 -1.2091
 5435TIP3   OH237795   3.110   2.961   0.534 -0.2941 -0.0488  0.0413
 5435TIP3    H137796   3.087   2.893   0.471 -2.2226 -0.1162  0.7365
 5435TIP3    H237797   3.169   3.019   0.486 -1.2181 -0.4164 -1.6277
 5436TIP3   OH237798   6.249   1.545  12.936 -0.0420 -0.4424 -0.2073
 5436TIP3    H137799   6.219   1.566  13.024  1.3686  1.7486 -0.1547
 5436TIP3    H237800   6.334   1.504  12.949  0.4689  0.4760 -0.5178
 5437TIP3   OH237801   4.251   4.286  14.679  0.6638  0.2930  0.1040
 5437TIP3    H137802   4.295   4.324  14.755  0.6058  1.3543 -0.3715
 5437TIP3    H237803   4.317   4.230  14.639  0.6271 -0.4433  1.0417
 5438TIP3   OH237804   5.992   0.633   4.940 -0.0149 -0.1511 -0.7628
 5438TIP3    H137805   6.048   0.667   5.010  1.4160 -0.1054 -1.8717
 5438TIP3    H237806   5.964   0.547   4.971  1.0432 -0.3630 -0.3623
 5439TIP3   OH237807   4.150   4.292   2.827 -0.1585  0.2664  0.1552
 5439TIP3    H137808   4.056   4.296   2.841  0.0270  0.0752  1.6419
 5439TIP3    H237809   4.165   4.203   2.793 -0.2724 -0.6672  2.3826
 5440TIP3   OH237810   6.753   2.504  12.022  0.2272 -0.4166  0.0233
 5440TIP3    H137811   6.671   2.553  12.019 -0.1100 -0.9884 -0.4079
 5440TIP3    H237812   6.820   2.567  11.999 -0.1592 -0.0789 -0.1782
 5441TIP3   OH237813   1.163   3.763  12.857 -0.6682 -0.5778  0.0014
 5441TIP3    H137814   1.242   3.762  12.804 -2.1554  0.1029 -2.3931
 5441TIP3    H237815   1.123   3.677  12.842  0.4031 -1.6486  2.6436
 5442TIP3   OH237816   6.263   0.159   6.351 -0.2484  0.7428 -0.4672
 5442TIP3    H137817   6.281   0.126   6.439  0.0768  1.8352 -0.1084
 5442TIP3    H237818   6.349   0.178   6.315 -0.1257 -2.3954 -2.1637
 5443TIP3   OH237819   2.685   3.382  12.911 -0.0833 -0.5064 -0.0865
 5443TIP3    H137820   2.686   3.477  12.912  1.4431 -0.4479 -1.8549
 5443TIP3    H237821   2.647   3.358  12.827 -2.5306 -1.5674  1.2047
 5444TIP3   OH237822   5.921   0.067  16.563  0.6309 -0.2810  0.4422
 5444TIP3    H137823   5.973   0.072  16.643  2.4855 -0.8937 -0.6726
 5444TIP3    H237824   5.969   0.006  16.506 -2.6824 -3.0925  0.3027
 5445TIP3   OH237825   6.769   1.001   5.862 -0.0335 -0.3676  0.4163
 5445TIP3    H137826   6.746   1.094   5.861 -0.3878 -0.4024 -2.7179
 5445TIP3    H237827   6.755   0.974   5.953 -0.7661  2.4121  1.2143
 5446TIP3   OH237828   2.344   1.490  12.487 -0.1829 -0.6207  0.2104
 5446TIP3    H137829   2.268   1.514  12.540  0.1320  1.2329 -0.0873
 5446TIP3    H237830   2.409   1.460  12.551 -0.5694 -0.5610  0.6382
 5447TIP3   OH237831   5.529   2.860   1.544 -0.3677  0.3230 -0.0812
 5447TIP3    H137832   5.602   2.855   1.482 -0.9744  3.3662 -1.2164
 5447TIP3    H237833   5.516   2.769   1.572  3.1218 -0.4990 -0.6052
 5448TIP3   OH237834   2.682   4.641  12.140 -0.8906  0.4471  0.5157
 5448TIP3    H137835   2.655   4.565  12.192 -0.3700 -0.4947 -0.5557
 5448TIP3    H237836   2.695   4.607  12.052 -0.9503  1.8545 -0.0648
 5449TIP3   OH237837   4.449   2.872   1.796 -0.4576 -0.6795  0.0128
 5449TIP3    H137838   4.367   2.841   1.834  0.3032 -1.6168  0.9613
 5449TIP3    H237839   4.515   2.809   1.826  0.5079 -0.3322 -1.2726
 5450TIP3   OH237840   2.900   4.382   6.074 -0.1884 -0.2008 -0.4882
 5450TIP3    H137841   2.915   4.339   6.158  1.2912 -0.0046 -0.6141
 5450TIP3    H237842   2.936   4.470   6.085  0.1689 -0.2204 -1.3554
 5451TIP3   OH237843   6.358   6.317  13.732  0.7637 -0.2738 -0.7845
 5451TIP3    H137844   6.391   6.386  13.790 -2.2496 -0.2046  1.0590
 5451TIP3    H237845   6.318   6.364  13.659  1.9846 -0.2612 -1.4710
 5452TIP3   OH237846   4.340   5.602   0.980  0.0414 -0.4495 -0.0636
 5452TIP3    H137847   4.370   5.662   0.912  1.0897  0.7215  1.3843
 5452TIP3    H237848   4.391   5.522   0.966  0.6845 -0.0063 -0.2911
 5453TIP3   OH237849   4.242   2.094   2.742  0.5278 -0.0825  0.1546
 5453TIP3    H137850   4.266   2.059   2.828 -1.6188  1.0983  1.3270
 5453TIP3    H237851   4.211   2.018   2.694 -0.9974 -0.3721  1.5014
 5454TIP3   OH237852   4.190   0.803  13.753  0.0747  0.3136  0.0745
 5454TIP3    H137853   4.246   0.879  13.737  1.9355 -0.8461  0.6473
 5454TIP3    H237854   4.120   0.810  13.689  0.9846  1.7720 -0.8129
 5455TIP3   OH237855   0.223   1.770   2.577 -0.3543 -0.3627  0.2022
 5455TIP3    H137856   0.196   1.857   2.547  1.1037 -0.2739 -0.9700
 5455TIP3    H237857   0.267   1.786   2.660  1.2898  0.2719 -0.7401
 5456TIP3   OH237858   3.286   2.859  13.852  0.5756  0.5173  0.4180
 5456TIP3    H137859   3.243   2.825  13.931  0.2743  1.4163  0.6620
 5456TIP3    H237860   3.372   2.888  13.883  2.0740 -2.7230 -0.3705
 5457TIP3   OH237861   2.888   4.663  17.182  0.1971  0.0207 -0.0217
 5457TIP3    H137862   2.799   4.684  17.152 -0.4638 -1.3293  0.8639
 5457TIP3    H237863   2.919   4.597  17.120  0.0043 -0.5412  0.4595
 5458TIP3   OH237864   2.302   5.490   4.556 -0.2454  0.0500 -0.3265
 5458TIP3    H137865   2.350   5.557   4.603 -0.2258 -0.1292 -0.0887
 5458TIP3    H237866   2.314   5.512   4.464 -0.4634  0.5295 -0.2452
 5459TIP3   OH237867   3.734   0.708  14.660 -0.1110  0.0004  0.0111
 5459TIP3    H137868   3.800   0.652  14.621 -1.5801 -2.1299  0.4093
 5459TIP3    H237869   3.653   0.684  14.615 -1.1696  0.2096  1.7088
 5460TIP3   OH237870   2.496   0.305  16.324  0.1362 -0.3168  0.0738
 5460TIP3    H137871   2.558   0.378  16.315  0.7098 -0.7286  0.6219
 5460TIP3    H237872   2.438   0.332  16.395  1.0085 -0.8359  1.0119
 5461TIP3   OH237873   3.891   3.265  12.830 -0.5074 -0.4811 -0.0193
 5461TIP3    H137874   3.976   3.252  12.788  0.2408 -0.0131  1.2925
 5461TIP3    H237875   3.911   3.311  12.911 -2.0228 -0.3641  0.3176
 5462TIP3   OH237876   1.381   5.044   4.618  0.4628 -0.3409  0.0212
 5462TIP3    H137877   1.454   5.006   4.570  0.6532  1.2984 -1.0552
 5462TIP3    H237878   1.413   5.051   4.708  1.3700 -0.2981 -0.2933
 5463TIP3   OH237879   0.952   4.447  13.448  0.7624  0.1122  0.3783
 5463TIP3    H137880   0.961   4.479  13.358  0.2350 -0.6497  0.0443
 5463TIP3    H237881   1.033   4.400  13.465  0.0555 -1.4577 -0.4262
 5464TIP3   OH237882   1.677   1.641   0.914  0.3016 -0.5009  0.0094
 5464TIP3    H137883   1.738   1.703   0.954  0.6678 -0.6909 -0.2523
 5464TIP3    H237884   1.603   1.695   0.888  0.5067 -0.2124  0.0166
 5465TIP3   OH237885   0.472   6.352  16.907  0.2808 -0.1938 -0.1449
 5465TIP3    H137886   0.523   6.432  16.918 -0.4509  0.2441  0.0981
 5465TIP3    H237887   0.407   6.374  16.840 -0.1967 -0.4491  0.2294
 5466TIP3   OH237888   0.096   4.794  13.021 -0.4221 -0.1292  0.0199
 5466TIP3    H137889   0.012   4.839  13.035  0.5048  1.2517  1.3939
 5466TIP3    H237890   0.122   4.820  12.932 -1.7957 -1.2518 -0.7688
 5467TIP3   OH237891   3.117   0.638  11.149 -0.3590  0.2799 -0.2698
 5467TIP3    H137892   3.111   0.548  11.116  1.3410  0.4030 -0.9924
 5467TIP3    H237893   3.046   0.645  11.213 -0.7289 -1.4691 -0.4531
 5468TIP3   OH237894   3.359   2.422   4.087  0.6324  1.2399 -0.2555
 5468TIP3    H137895   3.361   2.369   4.166 -2.2530 -0.3592 -1.0984
 5468TIP3    H237896   3.388   2.362   4.017 -1.3669  1.0569 -1.0157
 5469TIP3   OH237897   6.232   1.509  17.253  0.0202 -0.0079  0.2758
 5469TIP3    H137898   6.233   1.595  17.211 -0.3382 -0.2091 -0.1532
 5469TIP3    H237899   6.243   1.447  17.181 -2.5962 -0.4615  0.1872
 5470TIP3   OH237900   2.361   0.949  11.569  0.0895  0.2860  0.5441
 5470TIP3    H137901   2.440   0.931  11.618  0.3821  2.0160  0.7838
 5470TIP3    H237902   2.386   1.018  11.507 -0.9663  0.1225 -0.0948
 5471TIP3   OH237903   4.625   0.625   1.696  0.3091  0.5115  0.3889
 5471TIP3    H137904   4.601   0.647   1.786 -0.5865  1.2568 -0.0179
 5471TIP3    H237905   4.716   0.652   1.688 -0.0176  1.7359  0.6661
 5472TIP3   OH237906   1.068   4.850   2.498  0.0176  0.3136  0.6366
 5472TIP3    H137907   1.060   4.945   2.502 -1.2499  0.1921  1.7343
 5472TIP3    H237908   1.054   4.828   2.406  0.6446  1.2026  0.3161
 5473TIP3   OH237909   3.371   3.929   0.034  0.5677 -0.4339  0.1122
 5473TIP3    H137910   3.438   3.980   0.079 -0.3510  1.2031 -0.3243
 5473TIP3    H237911   3.291   3.946   0.084 -0.1819  0.2806 -1.2897
 5474TIP3   OH237912   5.514   3.955   4.978 -0.0960  0.1034 -0.0425
 5474TIP3    H137913   5.543   3.864   4.974 -0.2705 -0.0018  0.8347
 5474TIP3    H237914   5.581   4.004   4.931  0.5023 -0.3638  0.3183
 5475TIP3   OH237915   5.659   4.899  13.189 -0.2539 -0.0690 -0.2926
 5475TIP3    H137916   5.696   4.939  13.110 -0.9362 -1.9819 -1.6630
 5475TIP3    H237917   5.653   4.806  13.168  0.5972 -0.8374  2.4758
 5476TIP3   OH237918   1.050   0.964   0.210  0.1993  0.2784  0.0810
 5476TIP3    H137919   1.089   0.987   0.294 -1.2346 -1.1162  1.2147
 5476TIP3    H237920   1.054   0.868   0.208 -1.5982  0.1800 -0.4879
 5477TIP3   OH237921   4.766   5.094   3.738  0.3076  0.2125  0.4413
 5477TIP3    H137922   4.695   5.158   3.734 -1.2829 -1.5126 -1.4395
 5477TIP3    H237923   4.732   5.025   3.796 -0.8061 -1.8193 -2.3670
 5478TIP3   OH237924   5.467   0.604  15.496 -0.0679 -0.0925 -0.6355
 5478TIP3    H137925   5.514   0.638  15.572  1.1261  0.8793 -1.7532
 5478TIP3    H237926   5.504   0.517  15.481  0.1790 -0.0081 -0.5139
 5479TIP3   OH237927   6.677   4.491  12.649 -0.1223 -0.0249 -0.5939
 5479TIP3    H137928   6.590   4.522  12.675  0.0896 -0.1410  0.2550
 5479TIP3    H237929   6.703   4.430  12.718  0.0286 -1.1117 -1.5714
 5480TIP3   OH237930   1.991   4.361   0.495  0.1436  0.2525 -0.2068
 5480TIP3    H137931   1.950   4.388   0.413 -0.8678 -0.1950  0.1399
 5480TIP3    H237932   1.996   4.266   0.490 -2.2209 -0.0151  1.2720
 5481TIP3   OH237933   0.407   2.514  10.701  0.3742  0.2659  0.3875
 5481TIP3    H137934   0.368   2.437  10.660 -0.6695 -0.5177  2.7211
 5481TIP3    H237935   0.501   2.494  10.705  0.4894  0.2865 -1.3213
 5482TIP3   OH237936   2.774   4.277   0.484 -0.2853  0.2972  0.2039
 5482TIP3    H137937   2.792   4.260   0.577  2.6676  0.2388 -0.2750
 5482TIP3    H237938   2.797   4.369   0.471  1.8126 -0.3159 -0.9033
 5483TIP3   OH237939   2.295   2.473  12.236  0.4016  0.0906 -0.4367
 5483TIP3    H137940   2.357   2.406  12.266  1.4817  1.1492 -0.2499
 5483TIP3    H237941   2.225   2.471  12.301  0.3033 -1.0167 -0.5604
 5484TIP3   OH237942   5.618   4.187   6.732  0.1989 -0.7477  0.5734
 5484TIP3    H137943   5.611   4.093   6.751 -0.1418 -1.0615 -1.0161
 5484TIP3    H237944   5.707   4.210   6.761  0.5210 -1.7047  0.3906
 5485TIP3   OH237945   1.843   6.621  15.475 -0.1577 -0.5746  0.4828
 5485TIP3    H137946   1.752   6.619  15.506  0.3701 -0.2119  2.1274
 5485TIP3    H237947   1.893   6.578  15.544  1.0982  0.4364  0.2306
 5486TIP3   OH237948   0.139   6.580   2.065 -0.0337 -0.0189 -0.2717
 5486TIP3    H137949   0.095   6.530   2.134 -1.0228 -0.2878 -1.0864
 5486TIP3    H237950   0.155   6.666   2.104 -0.4090 -0.2298  0.3526
 5487TIP3   OH237951   0.359   5.764  13.728  0.2482 -0.4613 -0.0154
 5487TIP3    H137952   0.450   5.786  13.711  0.1709  0.3897  0.6393
 5487TIP3    H237953   0.316   5.776  13.643  0.6264 -0.2273 -0.1770
 5488TIP3   OH237954   5.420   6.717   5.375 -0.0345  0.3583  0.0622
 5488TIP3    H137955   5.390   6.702   5.285  0.9772  1.6519 -0.5328
 5488TIP3    H237956   5.512   6.742   5.365  0.5452 -1.0141  1.6066
 5489TIP3   OH237957   4.994   2.619  16.031  0.0705  0.2493 -0.3393
 5489TIP3    H137958   5.060   2.635  15.964  0.2216 -0.7714 -0.4572
 5489TIP3    H237959   4.910   2.636  15.987  0.0814 -1.7682 -1.2641
 5490TIP3   OH237960   0.734   4.489   3.340  0.3317  0.0204  0.1159
 5490TIP3    H137961   0.643   4.491   3.310  0.7515  2.1028 -1.2370
 5490TIP3    H237962   0.772   4.413   3.297 -0.3857  0.0248 -0.5500
 5491TIP3   OH237963   6.402   1.064   1.728 -0.7059  0.2857 -0.0626
 5491TIP3    H137964   6.368   1.039   1.813 -2.6821 -1.0586 -1.1548
 5491TIP3    H237965   6.333   1.118   1.689  0.2203  1.0060 -0.7541
 5492TIP3   OH237966   2.406   3.020   5.300  0.2014  0.3010  0.5472
 5492TIP3    H137967   2.488   3.019   5.349  1.9257  0.1859 -2.1011
 5492TIP3    H237968   2.393   3.113   5.279  1.4341  0.0658 -1.6020
 5493TIP3   OH237969   3.788   2.109   4.479 -0.1046  0.4419  0.3355
 5493TIP3    H137970   3.790   2.023   4.437  3.0566  0.2640  0.6073
 5493TIP3    H237971   3.811   2.170   4.409  0.4421  0.7081  0.7414
 5494TIP3   OH237972   4.322   0.290  16.338  0.2591 -0.0902 -0.3013
 5494TIP3    H137973   4.235   0.300  16.377  0.5997  1.2099  0.1491
 5494TIP3    H237974   4.320   0.203  16.298 -1.3543  0.0358 -0.5610
 5495TIP3   OH237975   4.153   6.010  16.270  0.4252  0.1708  0.0182
 5495TIP3    H137976   4.200   6.079  16.222  0.8869 -0.3990 -0.3525
 5495TIP3    H237977   4.183   6.018  16.360 -0.8098  1.5718  0.3545
 5496TIP3   OH237978   1.021   5.573   3.639 -0.1580 -0.0190 -0.2057
 5496TIP3    H137979   1.059   5.485   3.639  0.0750  0.0718  0.8146
 5496TIP3    H237980   0.927   5.558   3.629  0.0878 -0.2468 -2.7530
 5497TIP3   OH237981   4.120   4.093   2.647  0.5998 -0.4776 -0.2227
 5497TIP3    H137982   4.086   4.095   2.557  0.9677  0.3892 -0.3549
 5497TIP3    H237983   4.048   4.055   2.698 -0.1361  0.2558 -0.6771
 5498TIP3   OH237984   0.463   2.747   3.935  0.5047  0.4961 -0.7894
 5498TIP3    H137985   0.423   2.794   4.009  1.7270 -0.1258  0.2928
 5498TIP3    H237986   0.536   2.803   3.908  0.2402  0.5760 -1.3614
 5499TIP3   OH237987   0.234   3.008   2.682 -0.8846  0.4269 -0.7662
 5499TIP3    H137988   0.202   3.097   2.695 -0.9784  0.2813  0.0268
 5499TIP3    H237989   0.161   2.963   2.639 -0.9192  0.6673 -0.9636
 5500TIP3   OH237990   4.118   4.530  12.998  0.0529 -0.6532 -0.3288
 5500TIP3    H137991   4.027   4.505  12.983  0.1609 -0.5631 -1.1910
 5500TIP3    H237992   4.137   4.594  12.929  1.0424 -1.3687 -0.7533
 5501TIP3   OH237993   1.078   1.929   0.786  0.3278 -0.4943  0.3167
 5501TIP3    H137994   0.993   1.923   0.828 -0.9116  0.8148 -1.8177
 5501TIP3    H237995   1.139   1.950   0.857 -1.7508  2.4818  1.4331
 5502TIP3   OH237996   0.135   4.271  14.848  0.3325  0.0209  0.2504
 5502TIP3    H137997   0.158   4.350  14.800  0.4345  1.0194  1.8649
 5502TIP3    H237998   0.120   4.301  14.938 -2.5245 -1.3103  0.3296
 5503TIP3   OH237999   2.509   2.331   3.619 -0.1878 -0.0514  0.2235
 5503TIP3    H138000   2.550   2.306   3.702 -0.6597  2.1250  1.2027
 5503TIP3    H238001   2.574   2.312   3.552  0.2359 -1.7739  1.0859
 5504TIP3   OH238002   6.565   2.821   4.409 -0.1731  0.1687  0.3767
 5504TIP3    H138003   6.558   2.817   4.314 -0.3115  0.6792  0.3593
 5504TIP3    H238004   6.486   2.776   4.441 -0.4542  0.5567  0.2393
 5505TIP3   OH238005   0.230   2.463   1.885  0.3709  0.0333 -0.0680
 5505TIP3    H138006   0.226   2.558   1.878 -0.2952 -0.0076 -0.3097
 5505TIP3    H238007   0.215   2.445   1.978  1.6220  0.2072  0.1906
 5506TIP3   OH238008   2.267   1.116   3.396 -0.5317  0.0836 -0.1274
 5506TIP3    H138009   2.271   1.028   3.358  0.2477 -0.1980  0.5752
 5506TIP3    H238010   2.178   1.123   3.431 -0.9706  0.0161 -1.1788
 5507TIP3   OH238011   1.923   1.938  16.359  0.1094  0.2782 -0.6585
 5507TIP3    H138012   1.911   2.033  16.347  0.4233  0.5300  0.8094
 5507TIP3    H238013   1.839   1.900  16.335 -0.0632  0.9437 -1.1421
 5508TIP3   OH238014   5.725   0.011   3.936  0.2597  0.4110  0.4902
 5508TIP3    H138015   5.756  -0.034   3.858  0.7503 -0.4829  1.1788
 5508TIP3    H238016   5.629   0.003   3.932  0.3453 -1.1300  0.8242
 5509TIP3   OH238017   6.417   6.512   1.365  0.4929  0.3415  0.2832
 5509TIP3    H138018   6.359   6.516   1.289  1.1290 -0.2071 -0.2526
 5509TIP3    H238019   6.362   6.480   1.436 -0.6164  2.7883  0.6065
 5510TIP3   OH238020   1.195   0.406   5.404 -0.1723 -0.0768  0.5902
 5510TIP3    H138021   1.219   0.320   5.369  1.1637  1.2162 -1.9667
 5510TIP3    H238022   1.261   0.423   5.472  0.8016 -0.2898 -0.2634
 5511TIP3   OH238023   5.275   1.618   1.184 -0.5882  0.4127 -0.7632
 5511TIP3    H138024   5.258   1.687   1.120  0.6978 -1.0397 -2.7709
 5511TIP3    H238025   5.368   1.625   1.204 -0.3430 -0.9598 -1.3175
 5512TIP3   OH238026   5.426   0.873   2.277 -0.6246 -0.0825  0.1662
 5512TIP3    H138027   5.344   0.854   2.232 -1.1041  0.7051  0.6885
 5512TIP3    H238028   5.400   0.892   2.368  0.4260 -2.7963  1.1181
 5513TIP3   OH238029   6.664   1.115   1.291 -0.7210  0.1126  0.2029
 5513TIP3    H138030   6.658   1.210   1.277 -0.1952  0.3812  1.6078
 5513TIP3    H238031   6.603   1.078   1.228  2.1235  1.0729 -3.4922
 5514TIP3   OH238032   6.648   1.215   1.771 -0.1886  0.0970  0.0005
 5514TIP3    H138033   6.573   1.202   1.713 -0.4175 -1.7771  0.6799
 5514TIP3    H238034   6.723   1.222   1.711 -0.7915  1.4061 -0.6516
 5515TIP3   OH238035   5.002   6.077   1.702 -0.5567  0.2237  0.3585
 5515TIP3    H138036   5.010   5.985   1.680  1.4917  0.1258  1.2640
 5515TIP3    H238037   5.050   6.086   1.785 -1.9126  1.8452  1.0177
 5516TIP3   OH238038   6.575   6.541  16.851 -0.2372 -0.7457  0.1515
 5516TIP3    H138039   6.563   6.555  16.757  1.3262  0.9414  0.1464
 5516TIP3    H238040   6.594   6.447  16.859 -1.4951 -1.1387 -1.0600
 5517TIP3   OH238041   5.105   4.682   5.941  0.8537  0.2128  0.0810
 5517TIP3    H138042   5.135   4.609   5.995  0.9785 -1.2722 -1.8416
 5517TIP3    H238043   5.158   4.675   5.861 -0.4390  1.2461 -0.9175
 5518TIP3   OH238044   4.608   0.962  15.819 -0.3528 -0.0965 -0.2215
 5518TIP3    H138045   4.547   0.892  15.840 -1.0804  0.7392  0.5729
 5518TIP3    H238046   4.606   1.019  15.896  0.6998  0.4607 -0.5822
 5519TIP3   OH238047   1.686   3.393   2.175  0.4498  0.2130 -0.5325
 5519TIP3    H138048   1.717   3.476   2.139 -0.8663  1.4505  1.0424
 5519TIP3    H238049   1.597   3.384   2.143  0.6742 -0.7726 -0.9285
 5520TIP3   OH238050   1.580   4.348  14.358 -0.1674 -0.2567 -0.3909
 5520TIP3    H138051   1.587   4.438  14.327  1.3375  0.1907  1.0853
 5520TIP3    H238052   1.488   4.325  14.346 -0.8086  1.8454  0.1652
 5521TIP3   OH238053   1.282   4.544   3.530  0.1630  0.5460  0.8329
 5521TIP3    H138054   1.200   4.510   3.566 -1.4503  2.4028 -0.8054
 5521TIP3    H238055   1.266   4.638   3.518  2.6146  1.0046  0.5992
 5522TIP3   OH238056   0.722   0.717   3.909  0.1738 -0.1881 -0.5325
 5522TIP3    H138057   0.654   0.655   3.933  0.8826 -0.5082  0.7579
 5522TIP3    H238058   0.741   0.764   3.990  1.5062 -0.1368 -0.8516
 5523TIP3   OH238059   4.774   6.012   0.343 -0.0605 -0.5243 -0.0964
 5523TIP3    H138060   4.736   5.955   0.410  0.2778  0.3129  0.8411
 5523TIP3    H238061   4.766   6.100   0.380 -0.3370  0.0185 -1.3980
 5524TIP3   OH238062   1.281   2.822  10.689 -0.1143  0.9256 -0.2503
 5524TIP3    H138063   1.351   2.765  10.720 -1.0054  0.6047  1.2825
 5524TIP3    H238064   1.289   2.821  10.593  0.2227 -1.3514 -0.2465
 5525TIP3   OH238065   2.806   3.330   2.807  0.1126 -1.1267  0.1772
 5525TIP3    H138066   2.873   3.321   2.875  0.7691 -0.9383 -0.4244
 5525TIP3    H238067   2.839   3.401   2.751 -0.4438 -1.2375 -0.2984
 5526TIP3   OH238068   6.592   5.767   0.751 -0.5288 -0.1443  0.3300
 5526TIP3    H138069   6.635   5.712   0.816 -1.7741 -0.7533  0.6754
 5526TIP3    H238070   6.502   5.733   0.747 -0.4384 -0.2539 -1.8547
 5527TIP3   OH238071   5.943   4.728   0.219 -0.0051  0.4164  0.2994
 5527TIP3    H138072   5.922   4.635   0.224 -0.6225  0.5496  0.3422
 5527TIP3    H238073   6.028   4.732   0.175  0.1239 -0.1750  0.4915
 5528TIP3   OH238074   1.550   5.767  17.401 -0.0587 -0.1351  0.1203
 5528TIP3    H138075   1.553   5.834  17.470 -0.4308  0.9712 -0.8869
 5528TIP3    H238076   1.610   5.801  17.333  0.7416 -1.4804  0.1264
 5529TIP3   OH238077   3.143   2.873  16.665 -0.1836 -0.0091 -0.1539
 5529TIP3    H138078   3.195   2.954  16.669  0.3145  0.1516 -4.8022
 5529TIP3    H238079   3.053   2.904  16.664 -0.0282  0.4507 -0.9912
 5530TIP3   OH238080   2.236   6.468  17.197  0.5247 -0.1168 -0.2098
 5530TIP3    H138081   2.231   6.533  17.127  0.8213 -0.9177 -0.9918
 5530TIP3    H238082   2.160   6.487  17.252  0.2815  0.5224 -0.7488
 5531TIP3   OH238083   6.352   3.970  15.061 -0.0322 -0.4706 -0.2431
 5531TIP3    H138084   6.291   4.033  15.100 -1.0158 -1.2489 -0.4811
 5531TIP3    H238085   6.362   3.902  15.128  0.7857 -0.2305 -0.1084
 5532TIP3   OH238086   1.307   1.223   4.751 -0.7107 -0.2860  0.1036
 5532TIP3    H138087   1.392   1.211   4.709 -0.9711  0.1269 -0.5628
 5532TIP3    H238088   1.320   1.192   4.841  0.0086 -0.6712 -0.1238
 5533TIP3   OH238089   1.036   3.975   1.282 -0.4927  0.2040  0.1516
 5533TIP3    H138090   0.956   3.959   1.232  0.2376 -1.2459 -0.5951
 5533TIP3    H238091   1.013   3.951   1.372 -0.9414 -0.0538 -0.0300
 5534TIP3   OH238092   1.029   2.527   5.833 -0.3552  0.4987  0.1401
 5534TIP3    H138093   0.962   2.473   5.876  0.8950 -0.5003  0.8711
 5534TIP3    H238094   1.070   2.575   5.904  0.2081  0.5473 -0.2173
 5535TIP3   OH238095   2.514   0.047   0.405 -0.1429  0.0325 -0.3796
 5535TIP3    H138096   2.525  -0.016   0.334  2.2230 -0.5407  0.4099
 5535TIP3    H238097   2.481   0.126   0.361  0.5718 -0.5155 -1.9942
 5536TIP3   OH238098   6.036   6.325   4.958  0.0987 -0.1128  0.0216
 5536TIP3    H138099   6.081   6.317   5.042 -0.4028  0.2569  0.3378
 5536TIP3    H238100   6.064   6.410   4.924 -1.6435  0.9313  1.0351
 5537TIP3   OH238101   1.893   5.929  11.278 -0.4044 -0.4034  0.3425
 5537TIP3    H138102   1.898   5.844  11.235 -2.5356 -0.8206  0.8095
 5537TIP3    H238103   1.875   5.991  11.208  0.7536 -0.3722  0.0565
 5538TIP3   OH238104   5.135   1.382  16.513 -0.1045 -0.1578 -0.0696
 5538TIP3    H138105   5.183   1.332  16.579  1.4514  1.0563 -0.2397
 5538TIP3    H238106   5.191   1.382  16.436 -1.9363 -1.6370 -1.5190
 5539TIP3   OH238107   0.950   5.183   0.397 -0.3950 -0.8189  0.4112
 5539TIP3    H138108   0.981   5.262   0.440 -1.4664  1.2136 -2.2819
 5539TIP3    H238109   1.025   5.154   0.344 -0.3409 -1.0216  0.5961
 5540TIP3   OH238110   6.190   6.043   5.728 -0.3708 -0.4016  0.3282
 5540TIP3    H138111   6.219   6.132   5.750  0.8112 -0.3263 -1.3019
 5540TIP3    H238112   6.254   5.986   5.771 -0.3478 -0.4001  0.2964
 5541TIP3   OH238113   4.613   0.447   4.847 -0.0712  0.4239  0.0880
 5541TIP3    H138114   4.595   0.522   4.791  1.3788  0.8949  0.2238
 5541TIP3    H238115   4.704   0.424   4.828 -0.0520 -0.4033  1.0999
 5542TIP3   OH238116   1.366   6.417   3.919 -0.1683  0.4462  0.5116
 5542TIP3    H138117   1.323   6.489   3.872  0.0592 -0.7862 -1.7226
 5542TIP3    H238118   1.391   6.455   4.003 -1.3542  2.5452 -0.0016
 5543TIP3   OH238119   2.176   1.132   4.320  0.1832 -0.7524  0.1743
 5543TIP3    H138120   2.198   1.059   4.262 -1.1900 -1.1206  0.0801
 5543TIP3    H238121   2.205   1.104   4.407  2.6331 -0.0304 -0.3196
 5544TIP3   OH238122   3.675   4.054   4.193 -0.1967 -0.0218  0.4482
 5544TIP3    H138123   3.688   3.986   4.127  2.7526 -0.3096  1.1746
 5544TIP3    H238124   3.636   4.009   4.268 -1.5949 -0.1183 -0.3098
 5545TIP3   OH238125   6.611   3.885   5.573 -0.1693 -0.2963  0.3810
 5545TIP3    H138126   6.652   3.969   5.593 -0.7274  0.0348  0.1294
 5545TIP3    H238127   6.591   3.847   5.658  0.4238 -0.3462  0.5024
 5546TIP3   OH238128   4.134   2.029  15.657  0.3335 -0.2937  0.1868
 5546TIP3    H138129   4.081   1.958  15.694  0.6842 -1.4527 -1.4269
 5546TIP3    H238130   4.085   2.058  15.580  1.1421 -0.1595 -0.2919
 5547TIP3   OH238131   5.792   0.610   6.020 -0.2698 -0.1317 -0.1997
 5547TIP3    H138132   5.754   0.558   6.091  0.4202 -1.3402 -0.6769
 5547TIP3    H238133   5.757   0.698   6.033  0.5977 -0.0728  2.2219
 5548TIP3   OH238134   1.630   0.133   1.408 -0.1709 -0.5812  0.8939
 5548TIP3    H138135   1.646   0.039   1.410 -0.5541 -0.6393  1.5758
 5548TIP3    H238136   1.693   0.169   1.470 -1.2827 -0.6012  2.0760
 5549TIP3   OH238137   2.994   1.198   6.546 -0.0066 -0.1536  0.9222
 5549TIP3    H138138   2.974   1.291   6.561 -1.0769 -0.1283 -0.4228
 5549TIP3    H238139   3.088   1.196   6.526 -0.2643  0.8966 -0.6241
 5550TIP3   OH238140   0.553   5.616   0.513  0.7444 -0.1434 -0.0827
 5550TIP3    H138141   0.499   5.594   0.437  0.6419 -1.1128  0.2531
 5550TIP3    H238142   0.554   5.711   0.515 -1.6216 -0.0638  0.3311
 5551TIP3   OH238143   4.293   6.771  15.189  0.2572  0.1409 -0.5137
 5551TIP3    H138144   4.209   6.736  15.160  0.1526 -0.3048  0.2968
 5551TIP3    H238145   4.356   6.741  15.124  0.1146 -1.2677 -0.0356
 5552TIP3   OH238146   0.918   1.903  14.580 -0.0705 -0.0570 -0.5696
 5552TIP3    H138147   0.840   1.858  14.547  0.3556 -0.6699 -0.7583
 5552TIP3    H238148   0.990   1.871  14.525  0.5905 -0.8099  0.6902
 5553TIP3   OH238149   6.154   2.863  16.846 -0.1647 -0.1662  0.1873
 5553TIP3    H138150   6.222   2.810  16.888  3.2328  1.7447 -2.3306
 5553TIP3    H238151   6.134   2.817  16.764  0.2662  0.6871 -0.4119
 5554TIP3   OH238152   4.047   2.251  13.625  0.7721  0.4419  0.3226
 5554TIP3    H138153   4.042   2.156  13.633 -1.0820  0.4936  0.1188
 5554TIP3    H238154   4.120   2.266  13.565 -0.1294 -0.9675 -1.2123
 5555TIP3   OH238155   0.465   0.692  14.683 -0.2885 -0.1997  0.0899
 5555TIP3    H138156   0.520   0.689  14.761 -2.1098  0.0083  1.4473
 5555TIP3    H238157   0.461   0.601  14.653  0.5389 -0.2575  0.1146
 5556TIP3   OH238158   2.634   5.052   1.956  0.2422  0.0010  0.1519
 5556TIP3    H138159   2.574   5.096   1.895  0.8319  0.3640 -0.1732
 5556TIP3    H238160   2.628   4.959   1.933  1.5133  0.2633 -1.4264
 5557TIP3   OH238161   1.588   2.934   2.305 -0.4646 -0.3148  0.2130
 5557TIP3    H138162   1.554   3.021   2.282  1.5162  0.7586  1.0919
 5557TIP3    H238163   1.658   2.918   2.242  0.6925 -0.2219  1.4346
 5558TIP3   OH238164   1.144   1.709  11.064  0.4218 -0.1156 -0.2211
 5558TIP3    H138165   1.074   1.644  11.067 -0.0241  0.3699  1.7202
 5558TIP3    H238166   1.149   1.736  10.973  0.5239 -2.7373 -1.0762
 5559TIP3   OH238167   6.263   4.857   0.410 -0.6916  0.2417 -0.2810
 5559TIP3    H138168   6.324   4.801   0.363 -0.6614 -0.3610  0.4551
 5559TIP3    H238169   6.318   4.916   0.461 -0.7084 -0.4447  0.5501
 5560TIP3   OH238170   1.036   2.532   4.884 -0.4362 -0.1388  0.7075
 5560TIP3    H138171   1.002   2.500   4.801  0.8287 -0.4029  0.2678
 5560TIP3    H238172   0.983   2.488   4.950  0.3168 -2.0817  0.0842
 5561TIP3   OH238173   0.377   6.199   2.226  0.6652 -0.6851 -0.0587
 5561TIP3    H138174   0.364   6.239   2.140  0.6663 -2.3857 -0.8899
 5561TIP3    H238175   0.471   6.185   2.232  0.9414  1.2486  1.1275
 5562TIP3   OH238176   6.222   6.674  15.437 -0.1252 -0.0263 -0.2508
 5562TIP3    H138177   6.146   6.691  15.493 -1.6836 -0.3696 -2.1556
 5562TIP3    H238178   6.244   6.583  15.455 -0.8160 -0.2324 -0.4201
 5563TIP3   OH238179   1.994   6.145   2.237  0.1826  0.3240 -0.2004
 5563TIP3    H138180   1.937   6.090   2.183  0.7734  1.3288 -1.9496
 5563TIP3    H238181   2.081   6.105   2.227  0.4287  0.9464 -0.6340
 5564TIP3   OH238182   6.591   1.294   3.643 -0.2554  0.7485  0.3488
 5564TIP3    H138183   6.518   1.261   3.590 -0.0911 -0.8765  1.0811
 5564TIP3    H238184   6.659   1.316   3.580 -0.3109 -0.5139 -0.1780
 5565TIP3   OH238185   2.586   0.801  14.453 -0.0020  0.3332 -0.1173
 5565TIP3    H138186   2.606   0.875  14.396 -0.6520 -0.2595 -1.1634
 5565TIP3    H238187   2.523   0.835  14.517 -0.0079  0.7786 -0.3584
 5566TIP3   OH238188   6.724   4.970   5.757  0.0304 -0.1073 -0.0204
 5566TIP3    H138189   6.684   4.888   5.729  0.2878 -0.4301  0.5300
 5566TIP3    H238190   6.709   4.973   5.852 -1.1964  1.1594 -0.2279
 5567TIP3   OH238191   0.959   2.738   2.219 -0.4819 -0.3200  0.7707
 5567TIP3    H138192   1.014   2.696   2.285 -0.1595 -0.8650  0.1666
 5567TIP3    H238193   0.870   2.708   2.239 -0.0661 -2.9063 -0.7868
 5568TIP3   OH238194   2.845   4.725  14.194 -0.0936  0.0823  0.3644
 5568TIP3    H138195   2.897   4.797  14.230 -0.3139 -0.1869  1.2181
 5568TIP3    H238196   2.757   4.763  14.183  0.5428  0.9942 -2.4396
 5569TIP3   OH238197   4.518   4.899   5.730  0.4375  0.6064 -0.1661
 5569TIP3    H138198   4.501   4.983   5.772  0.2255  0.0873  0.8181
 5569TIP3    H238199   4.558   4.921   5.646  1.8495  1.6496  0.7427
 5570TIP3   OH238200   3.825   6.115   4.668  0.5540 -0.4254 -0.0359
 5570TIP3    H138201   3.898   6.159   4.712 -0.8870  1.5448  0.5261
 5570TIP3    H238202   3.774   6.186   4.630 -0.4436 -1.8398 -1.4399
 5571TIP3   OH238203   6.580   2.834  12.114 -0.0407  0.2579 -0.1306
 5571TIP3    H138204   6.507   2.786  12.153 -0.9238  0.0012 -2.0066
 5571TIP3    H238205   6.658   2.799  12.158 -0.9804  0.3239  1.6982
 5572TIP3   OH238206   4.965   0.088  16.540 -0.2398 -0.0611 -0.0092
 5572TIP3    H138207   5.016   0.014  16.573 -0.1562 -0.3040 -0.6603
 5572TIP3    H238208   5.029   0.146  16.499 -0.2343  0.6524  0.9679
 5573TIP3   OH238209   1.463   5.490   2.195  0.7364 -0.1000  0.7913
 5573TIP3    H138210   1.497   5.494   2.284  0.7100  0.1321  0.7922
 5573TIP3    H238211   1.394   5.424   2.198 -0.2274  0.8900  1.2704
 5574TIP3   OH238212   1.931   1.396  15.359 -0.8089  0.0434  0.6041
 5574TIP3    H138213   1.968   1.353  15.436 -0.0371 -0.5088 -0.0542
 5574TIP3    H238214   1.898   1.325  15.305 -2.0478  0.4742  0.7575
 5575TIP3   OH238215   3.318   3.714   4.717  0.0822 -0.2955  0.2376
 5575TIP3    H138216   3.248   3.733   4.781 -1.3561  0.7214 -1.5366
 5575TIP3    H238217   3.334   3.620   4.726 -0.8990 -0.3922  1.2829
 5576TIP3   OH238218   6.140   3.954  11.420 -0.2014 -0.4163  0.0981
 5576TIP3    H138219   6.099   3.975  11.504  1.0607 -0.9159  0.8704
 5576TIP3    H238220   6.210   4.018  11.411  0.7902 -1.4331  0.3008
 5577TIP3   OH238221   6.487   5.575   4.532  0.1381  0.5255  0.3582
 5577TIP3    H138222   6.415   5.578   4.469 -0.3228 -0.5299  0.8165
 5577TIP3    H238223   6.554   5.523   4.488  0.6641  1.5496 -0.0881
 5578TIP3   OH238224   3.983   3.419  16.368 -0.1957  0.4107  0.3413
 5578TIP3    H138225   4.047   3.368  16.418 -0.7772 -0.4098  0.2480
 5578TIP3    H238226   3.932   3.465  16.435 -1.3298 -1.1058  0.5625
 5579TIP3   OH238227   2.633   6.570   2.554  0.2051 -0.8271  0.2703
 5579TIP3    H138228   2.727   6.549   2.556 -0.1871 -2.9091 -0.4536
 5579TIP3    H238229   2.613   6.583   2.462 -0.2936 -0.7458  0.3864
 5580TIP3   OH238230   4.424   5.178   5.774 -0.4372  0.3519 -0.0374
 5580TIP3    H138231   4.351   5.128   5.812 -0.0478  0.4396  0.8603
 5580TIP3    H238232   4.466   5.220   5.850  1.5898 -1.0772 -0.2977
 5581TIP3   OH238233   0.909   0.904   5.079  0.0526  0.1490 -0.0303
 5581TIP3    H138234   0.842   0.854   5.033  1.3306 -0.9498 -0.7910
 5581TIP3    H238235   0.890   0.995   5.057 -1.1878 -0.1354 -0.2004
 5582TIP3   OH238236   0.827   1.109   4.402 -0.7340 -0.0292 -0.6661
 5582TIP3    H138237   0.868   1.178   4.349  1.2235 -1.1772 -0.7565
 5582TIP3    H238238   0.885   1.033   4.391 -2.9105 -1.7679 -0.7030
 5583TIP3   OH238239   6.748   5.320  13.037 -0.2980  0.0824 -0.7074
 5583TIP3    H138240   6.664   5.304  13.080  0.7809 -0.2095  1.4152
 5583TIP3    H238241   6.776   5.234  13.006  0.0189 -0.1403  0.1706
 5584TIP3   OH238242   4.703   0.646  15.465  0.7065  0.5026 -0.0092
 5584TIP3    H138243   4.726   0.679  15.378  0.6391 -0.3375 -0.3576
 5584TIP3    H238244   4.611   0.622  15.458  0.4403  1.3084  0.5806
 5585TIP3   OH238245   3.822   4.455  12.075  0.3239  0.6847  0.2370
 5585TIP3    H138246   3.876   4.410  12.010 -2.0281  1.1186 -2.1793
 5585TIP3    H238247   3.862   4.542  12.082  0.9425  0.4452 -0.1605
 5586TIP3   OH238248   0.127   0.966  11.730 -0.2836 -0.3843 -0.5946
 5586TIP3    H138249   0.100   1.029  11.796 -0.3360  1.0377 -1.9182
 5586TIP3    H238250   0.066   0.893  11.740 -1.1497  0.4055  0.0132
 5587TIP3   OH238251   6.058   0.251   0.216  0.3639  0.1313  0.1301
 5587TIP3    H138252   6.097   0.229   0.131  0.6857  0.9445  0.0559
 5587TIP3    H238253   5.964   0.251   0.200  0.4496  1.6990 -0.6198
 5588TIP3   OH238254   6.023   1.771   1.483  0.0201  0.5229  0.6720
 5588TIP3    H138255   6.064   1.698   1.436  1.1189  2.0221 -0.8028
 5588TIP3    H238256   5.936   1.738   1.505 -0.2411 -0.6028 -1.6395
 5589TIP3   OH238257   5.273   3.825  10.541 -0.1840  0.0376 -0.0456
 5589TIP3    H138258   5.234   3.751  10.495  1.4291  0.8331 -2.9285
 5589TIP3    H238259   5.207   3.895  10.534 -0.2620 -0.0768 -0.4583
 5590TIP3   OH238260   2.359   6.348  16.372  0.5304  0.3961 -0.4553
 5590TIP3    H138261   2.300   6.329  16.299 -0.2215  0.7603  0.0557
 5590TIP3    H238262   2.304   6.388  16.439  1.1448 -0.2404  0.4570
 5591TIP3   OH238263   4.031   0.436   6.106 -0.2402 -0.0678  0.2218
 5591TIP3    H138264   3.986   0.424   6.190 -0.9186 -2.3642 -0.3917
 5591TIP3    H238265   4.121   0.410   6.123  0.1063  1.3303  0.6575
 5592TIP3   OH238266   2.608   0.215  13.340  0.2486  0.6011 -0.0896
 5592TIP3    H138267   2.583   0.140  13.286  0.9711 -3.0907  4.1309
 5592TIP3    H238268   2.701   0.229  13.320  0.0993  0.4788 -0.9205
 5593TIP3   OH238269   5.595   2.101  12.348  0.5140 -0.2215 -0.0704
 5593TIP3    H138270   5.670   2.147  12.385 -0.8931  0.9213  1.4869
 5593TIP3    H238271   5.631   2.055  12.272  2.8209  0.0840  0.7548
 5594TIP3   OH238272   3.864   2.896   6.039  0.1344 -0.0504  0.0009
 5594TIP3    H138273   3.828   2.808   6.049 -1.4370  0.1994 -2.5532
 5594TIP3    H238274   3.947   2.883   5.994 -0.9195 -0.1950 -1.9868
 5595TIP3   OH238275   0.119   2.229  17.057  0.2258  0.7473 -0.0756
 5595TIP3    H138276   0.214   2.235  17.045  0.2072  1.2817 -0.0191
 5595TIP3    H238277   0.084   2.230  16.968  0.3928 -2.7718 -0.2949
 5596TIP3   OH238278   0.684   3.350   3.283 -0.3575  0.1601  0.0525
 5596TIP3    H138279   0.770   3.307   3.287 -0.1916  0.4192 -0.6003
 5596TIP3    H238280   0.663   3.371   3.374 -0.4123 -1.2498  0.3905
 5597TIP3   OH238281   1.717   4.506   1.404 -0.2354 -0.1417 -0.4786
 5597TIP3    H138282   1.638   4.485   1.453 -1.1828  2.5842 -0.6558
 5597TIP3    H238283   1.733   4.430   1.349 -0.2171 -2.5449  2.5981
 5598TIP3   OH238284   6.330   3.834  15.293 -0.0870  0.1247 -0.0345
 5598TIP3    H138285   6.330   3.909  15.352 -2.1358  1.2330 -1.3089
 5598TIP3    H238286   6.246   3.790  15.310 -0.0803 -0.3452 -1.1102
 5599TIP3   OH238287   3.642   1.673  14.678 -0.5137  0.0379  0.4209
 5599TIP3    H138288   3.664   1.580  14.689  0.8233 -0.0299 -2.1183
 5599TIP3    H238289   3.701   1.718  14.739  1.8985 -0.5912 -1.3000
 5600TIP3   OH238290   2.619   5.873   6.519  0.4403 -0.4465 -0.2375
 5600TIP3    H138291   2.660   5.812   6.580 -0.0072 -0.5274 -0.0142
 5600TIP3    H238292   2.535   5.895   6.559 -0.6577 -1.8475 -1.5944
 5601TIP3   OH238293   1.772   1.409  17.207 -0.2315  0.5764 -0.2923
 5601TIP3    H138294   1.677   1.397  17.214 -0.5172  2.6539 -0.0607
 5601TIP3    H238295   1.807   1.377  17.290 -0.6758 -0.3674 -0.4487
 5602TIP3   OH238296   5.081   2.588   3.888  0.0382 -0.4123 -0.2036
 5602TIP3    H138297   5.167   2.557   3.914  0.1098  0.1001  0.1961
 5602TIP3    H238298   5.078   2.679   3.919  0.0275  0.1468 -1.7615
 5603TIP3   OH238299   6.623   5.572   1.100  0.4960 -0.0051 -0.0691
 5603TIP3    H138300   6.574   5.490   1.094  0.3155  0.1525 -0.8079
 5603TIP3    H238301   6.693   5.553   1.163 -0.8609 -0.0291  1.4887
 5604TIP3   OH238302   3.549   4.584  13.588  0.6324  0.4103  0.4113
 5604TIP3    H138303   3.483   4.551  13.648  0.3216 -1.6004 -0.9499
 5604TIP3    H238304   3.501   4.640  13.527  0.6985  1.2116  1.0703
 5605TIP3   OH238305   6.000   4.575  13.726 -0.2603 -0.0037 -0.1524
 5605TIP3    H138306   6.095   4.572  13.730 -0.2888  0.1767  1.2088
 5605TIP3    H238307   5.980   4.642  13.660  0.5621  0.1973 -0.2010
 5606TIP3   OH238308   1.849   1.796  12.249 -0.7455 -0.1203  0.2082
 5606TIP3    H138309   1.858   1.877  12.199  0.0842  0.4239  1.2225
 5606TIP3    H238310   1.872   1.819  12.338 -0.8149 -1.4066  0.5833
 5607TIP3   OH238311   4.826   6.163   4.247 -0.3563  0.3866  0.1697
 5607TIP3    H138312   4.880   6.105   4.300 -0.3502 -0.1250 -0.3961
 5607TIP3    H238313   4.738   6.125   4.251 -0.4365  0.5623  0.1220
 5608TIP3   OH238314   4.475   5.225   3.197  0.5252 -0.4393  0.1687
 5608TIP3    H138315   4.454   5.132   3.207 -1.7744  0.0069  0.1675
 5608TIP3    H238316   4.418   5.255   3.126 -0.4488  1.4109  1.6141
 5609TIP3   OH238317   3.685   0.231   6.662 -0.2893  0.3334 -0.2966
 5609TIP3    H138318   3.600   0.209   6.622 -1.1135 -0.6042  1.8111
 5609TIP3    H238319   3.689   0.327   6.657 -1.8303  0.4607  0.1436
 5610TIP3   OH238320   6.282   0.511  16.379  0.0328  0.6439  0.3651
 5610TIP3    H138321   6.311   0.548  16.296  1.1584 -1.2530 -0.1575
 5610TIP3    H238322   6.363   0.493  16.427 -0.4791 -0.4849  0.8525
 5611TIP3   OH238323   4.057   3.962   0.140  0.3037 -0.0084 -0.0415
 5611TIP3    H138324   4.034   3.902   0.211 -0.4107 -0.3374 -0.5322
 5611TIP3    H238325   3.973   3.998   0.112  0.6893  0.9227 -0.0196
 5612TIP3   OH238326   3.328   4.468  15.825 -0.0913 -0.1046 -0.2275
 5612TIP3    H138327   3.296   4.484  15.914  0.1229 -0.2721 -0.1224
 5612TIP3    H238328   3.409   4.419  15.836  1.1685  1.8133 -0.4212
 5613TIP3   OH238329   2.843   5.059  15.579  0.8431 -0.4150  0.1007
 5613TIP3    H138330   2.823   5.150  15.601 -0.6105 -0.8485  0.6974
 5613TIP3    H238331   2.877   5.022  15.661 -2.7399 -1.5150  1.2883
 5614TIP3   OH238332   2.930   1.439   5.364 -0.4648  0.4539  0.2418
 5614TIP3    H138333   2.947   1.366   5.304 -1.1410  0.0883  0.4860
 5614TIP3    H238334   2.928   1.398   5.451 -1.5769  0.6313  0.3164
 5615TIP3   OH238335   1.721   3.986   4.601 -0.1027  0.6804  0.9804
 5615TIP3    H138336   1.729   4.071   4.558 -1.4428  0.9696  1.2592
 5615TIP3    H238337   1.696   4.007   4.691  2.8248  0.0946  2.0233
 5616TIP3   OH238338   4.717   0.074  14.652 -0.3742  0.5869  0.4736
 5616TIP3    H138339   4.657   0.149  14.647  0.8021  1.4678 -1.1903
 5616TIP3    H238340   4.705   0.028  14.569  0.5773  0.2524  0.5160
 5617TIP3   OH238341   6.281   3.624  15.961  0.6866  0.2664  0.0476
 5617TIP3    H138342   6.329   3.666  15.889  2.9112 -2.7525 -0.4089
 5617TIP3    H238343   6.210   3.577  15.917  2.9605 -2.8799 -0.6014
 5618TIP3   OH238344   2.314   3.008  14.703  0.1005 -0.0706 -0.1391
 5618TIP3    H138345   2.401   2.979  14.730  0.0318 -0.6021 -0.4664
 5618TIP3    H238346   2.297   3.086  14.755  0.1410 -0.8358  1.0566
 5619TIP3   OH238347   4.199   5.457  16.298  0.2859  0.5236  0.3902
 5619TIP3    H138348   4.180   5.459  16.204  0.6121 -0.2067  0.2966
 5619TIP3    H238349   4.238   5.542  16.317 -2.7123  1.9935  0.5430
 5620TIP3   OH238350   6.034   6.121   3.472 -0.5314  0.7214  0.1895
 5620TIP3    H138351   5.974   6.058   3.511  1.7713 -1.1643  0.9817
 5620TIP3    H238352   6.121   6.092   3.500  0.8299  2.9610 -1.3117
 5621TIP3   OH238353   2.370   2.791  15.769  0.9659 -0.5104  0.2835
 5621TIP3    H138354   2.434   2.777  15.838  0.6617 -0.5219  0.5689
 5621TIP3    H238355   2.422   2.804  15.690  1.4314  1.9657  0.9157
 5622TIP3   OH238356   5.100   6.506  11.506  0.0784  0.0744  0.9110
 5622TIP3    H138357   5.036   6.514  11.436  0.1781  1.3097  0.9255
 5622TIP3    H238358   5.059   6.450  11.571 -0.2869 -0.5268  0.1664
 5623TIP3   OH238359   6.148   4.251  16.555 -0.5574 -0.7503 -0.0114
 5623TIP3    H138360   6.116   4.206  16.476 -0.4725 -1.1890  0.1995
 5623TIP3    H238361   6.219   4.306  16.524  2.1803 -3.8001  0.2690
 5624TIP3   OH238362   5.564   0.370   4.737 -0.6727  0.3293  0.0579
 5624TIP3    H138363   5.511   0.291   4.734  0.9281 -0.8359  0.8073
 5624TIP3    H238364   5.602   0.377   4.649  1.7082 -1.6364  0.8184
 5625TIP3   OH238365   4.425   2.419  13.625 -0.2277  0.4104  0.3290
 5625TIP3    H138366   4.346   2.454  13.665 -0.0842  0.5368  0.5025
 5625TIP3    H238367   4.483   2.495  13.616  0.1287  0.2046  0.8139
 5626TIP3   OH238368   4.183   4.746  12.785  0.1851 -0.1279  0.4915
 5626TIP3    H138369   4.101   4.794  12.792 -1.0752 -2.0849  0.1554
 5626TIP3    H238370   4.223   4.777  12.704 -0.4598  0.5268  0.4182
 5627TIP3   OH238371   6.027   3.708  15.754 -0.3106  0.0837 -0.1078
 5627TIP3    H138372   6.109   3.752  15.778 -0.1167 -0.0474 -0.5269
 5627TIP3    H238373   6.055   3.633  15.701 -0.7716  0.7480 -1.3143
 5628TIP3   OH238374   1.988   1.219  14.030  0.5287  0.4441  0.1809
 5628TIP3    H138375   2.012   1.276  14.103  2.7200  1.1061 -0.9658
 5628TIP3    H238376   2.001   1.131  14.064  2.3747  0.7545  0.4023
 5629TIP3   OH238377   4.635   0.223  12.973 -0.4737  0.0430 -0.2439
 5629TIP3    H138378   4.729   0.213  12.985 -0.2534  1.4392 -0.5827
 5629TIP3    H238379   4.598   0.223  13.061 -0.2193 -0.9847 -0.1348
 5630TIP3   OH238380   3.561   6.028  17.065 -0.1181 -0.5141  0.1349
 5630TIP3    H138381   3.562   6.080  17.145 -0.3568 -2.5083  1.4977
 5630TIP3    H238382   3.468   6.010  17.050 -0.1551  0.5658 -1.1372
 5631TIP3   OH238383   5.199   2.112  17.290 -0.1556  0.5578  0.0834
 5631TIP3    H138384   5.162   2.084  17.373  1.3431  1.2820  1.0450
 5631TIP3    H238385   5.204   2.032  17.237 -1.6551  0.1991  0.4605
 5632TIP3   OH238386   0.534   1.845  12.810  0.0346 -0.3350 -0.1183
 5632TIP3    H138387   0.464   1.781  12.828 -0.1521 -0.4182 -1.1084
 5632TIP3    H238388   0.595   1.833  12.883 -2.0703  1.3518  2.1006
 5633TIP3   OH238389   0.547   1.697   5.273 -0.0865 -0.0559 -0.4935
 5633TIP3    H138390   0.578   1.656   5.354 -3.4725 -0.8256  0.5481
 5633TIP3    H238391   0.511   1.625   5.222 -0.4312  0.7937 -1.4843
 5634TIP3   OH238392   2.099   6.007  14.688 -0.0854 -0.4298  0.0289
 5634TIP3    H138393   2.039   5.936  14.664  1.2113 -1.9374  1.0793
 5634TIP3    H238394   2.186   5.967  14.688  1.2464  2.0139 -2.8764
 5635TIP3   OH238395   5.153   0.963  14.423  0.3697  0.3115 -0.1870
 5635TIP3    H138396   5.067   0.997  14.396 -0.1922 -0.0608  1.0498
 5635TIP3    H238397   5.198   1.039  14.460 -0.5698 -0.0375  1.8180
 5636TIP3   OH238398   2.263   4.852   4.175 -0.5548  0.4133  0.4762
 5636TIP3    H138399   2.245   4.825   4.085 -0.8906 -1.2408  1.0076
 5636TIP3    H238400   2.294   4.772   4.218 -2.5388  0.5961  2.3951
 5637TIP3   OH238401   3.615   1.320   6.118  0.0776 -0.3091 -0.3262
 5637TIP3    H138402   3.577   1.408   6.118 -1.3177 -0.8494  1.6956
 5637TIP3    H238403   3.680   1.323   6.188  0.2281 -0.8110 -0.4426
 5638TIP3   OH238404   2.595   0.012  11.462  0.1480 -0.3636  0.4548
 5638TIP3    H138405   2.590   0.092  11.411  0.8233  1.0609  2.5047
 5638TIP3    H238406   2.513   0.009  11.511  0.0692 -1.0156  0.2966
 5639TIP3   OH238407   5.511   1.743   3.910 -0.8659 -0.4332  0.3002
 5639TIP3    H138408   5.452   1.816   3.931 -0.0992  0.0852  0.6890
 5639TIP3    H238409   5.495   1.726   3.817 -2.0970 -0.7455  0.5465
 5640TIP3   OH238410   5.049   4.736  16.742 -0.1269 -0.0783 -0.6723
 5640TIP3    H138411   5.083   4.733  16.652 -0.1637 -0.4029 -0.6765
 5640TIP3    H238412   5.006   4.652  16.754  1.0246 -0.5788  0.1004
 5641TIP3   OH238413   3.953   1.422   2.883  0.1144  0.6290 -0.0142
 5641TIP3    H138414   4.026   1.374   2.845 -1.0472 -0.0102 -1.5442
 5641TIP3    H238415   3.890   1.432   2.811 -2.7920 -1.7647  1.9354
 5642TIP3   OH238416   2.045   3.001  12.048 -0.0032  0.7713 -0.0095
 5642TIP3    H138417   2.067   2.967  12.134  1.4209 -1.4046 -1.1534
 5642TIP3    H238418   2.115   3.064  12.029  2.2166 -1.8358 -1.2013
 5643TIP3   OH238419   2.654   3.633  12.968 -0.1390 -0.2801  0.3518
 5643TIP3    H138420   2.724   3.693  12.995  0.3250 -0.5952 -0.1570
 5643TIP3    H238421   2.584   3.648  13.033 -0.7748  2.1179 -0.7714
 5644TIP3   OH238422   4.265   3.221   0.059  0.4340  0.4002 -0.1573
 5644TIP3    H138423   4.288   3.205  -0.032 -2.9425 -1.1587 -0.8906
 5644TIP3    H238424   4.190   3.281   0.054  0.2841  0.4040  1.6098
 5645TIP3   OH238425   0.695   4.723   3.005 -0.3245  0.1756  0.3975
 5645TIP3    H138426   0.763   4.705   3.070 -0.6730 -1.4687  0.3369
 5645TIP3    H238427   0.650   4.640   2.993 -0.8549  0.6594 -1.2885
 5646TIP3   OH238428   5.842   5.954  10.493  0.6974  0.4991 -0.3916
 5646TIP3    H138429   5.747   5.963  10.495  0.5653 -0.7527  0.1624
 5646TIP3    H238430   5.864   5.910  10.576  1.9625  2.3637  0.3238
 5647TIP3   OH238431   2.435   0.438   0.079 -0.5668 -0.3803  0.0659
 5647TIP3    H138432   2.461   0.503   0.145 -1.8328  1.3251 -1.0344
 5647TIP3    H238433   2.436   0.486  -0.003  1.6460 -2.6273 -1.3571
 5648TIP3   OH238434   5.656   0.735  11.452 -0.0366  0.3334  0.8179
 5648TIP3    H138435   5.678   0.646  11.479  1.1544 -0.3372 -1.9622
 5648TIP3    H238436   5.740   0.775  11.431 -0.7473  0.9190 -1.1631
 5649TIP3   OH238437   4.233   4.788  14.021  0.7880 -0.1936  0.0751
 5649TIP3    H138438   4.269   4.865  13.977  1.1986 -0.9488 -0.9591
 5649TIP3    H238439   4.141   4.787  13.995  1.1869 -1.0490 -1.4578
 5650TIP3   OH238440   4.980   0.963  13.651 -0.2601  0.3000  0.1147
 5650TIP3    H138441   5.074   0.943  13.651  0.6271  3.8330 -0.4627
 5650TIP3    H238442   4.957   0.967  13.559 -0.3744  1.6621  0.1845
 5651TIP3   OH238443   4.095   4.685  13.281  0.0396 -0.5819 -0.3751
 5651TIP3    H138444   4.018   4.713  13.231  0.4040 -1.3807 -1.4214
 5651TIP3    H238445   4.109   4.594  13.255 -0.4316 -1.4225  2.0672
 5652TIP3   OH238446   2.522   1.749  16.963 -0.6041 -0.3094 -0.3382
 5652TIP3    H138447   2.541   1.655  16.967 -0.4329 -0.3634 -1.8579
 5652TIP3    H238448   2.478   1.768  17.046  1.7529 -1.1683  1.2103
 5653TIP3   OH238449   3.110   0.746  15.457  0.0182 -0.3967  0.1964
 5653TIP3    H138450   3.076   0.671  15.408 -1.8524  1.4477 -1.5168
 5653TIP3    H238451   3.086   0.822  15.405  1.7031  1.4523  1.9392
 5654TIP3   OH238452   2.863   2.373  12.754  0.0324 -0.4584  0.5703
 5654TIP3    H138453   2.905   2.397  12.837 -1.1178  0.6796  0.8548
 5654TIP3    H238454   2.924   2.403  12.687 -0.1859  0.9910  0.9849
 5655TIP3   OH238455   4.562   5.455  13.401 -0.3910  0.1942  0.6849
 5655TIP3    H138456   4.542   5.391  13.469 -1.5010  0.7465  0.8935
 5655TIP3    H238457   4.591   5.402  13.326 -1.3470 -0.5576  0.8358
 5656TIP3   OH238458   2.374   5.102  12.669 -0.7083  0.3727 -0.7329
 5656TIP3    H138459   2.351   5.183  12.715 -0.8831 -0.7017  1.1547
 5656TIP3    H238460   2.466   5.088  12.692 -0.3774  0.5274 -1.8816
 5657TIP3   OH238461   4.296   1.538   3.656 -0.4940  0.1313 -0.2063
 5657TIP3    H138462   4.297   1.489   3.574  2.0283  1.2703 -0.9824
 5657TIP3    H238463   4.386   1.569   3.666 -0.6042 -0.2168  3.1919
 5658TIP3   OH238464   6.720   4.895   0.853  0.0847 -0.2246  0.4194
 5658TIP3    H138465   6.771   4.973   0.832  0.2753 -0.0623  1.4072
 5658TIP3    H238466   6.700   4.855   0.769  1.8948 -0.3214 -0.0003
 5659TIP3   OH238467   0.207   2.597  14.590 -0.2229  0.3829 -0.4834
 5659TIP3    H138468   0.277   2.597  14.525  1.0768  1.8770  0.8317
 5659TIP3    H238469   0.224   2.674  14.644 -0.8277 -1.1284  2.0434
 5660TIP3   OH238470   5.536   5.987   4.275 -0.2292 -0.1250 -0.2496
 5660TIP3    H138471   5.474   6.051   4.312 -2.7671 -1.7997 -1.3201
 5660TIP3    H238472   5.500   5.902   4.301  3.0073 -1.2360  1.0765
 5661TIP3   OH238473   3.117   3.501   1.600  0.1564  0.1148  0.2736
 5661TIP3    H138474   3.047   3.502   1.666  1.4376  0.9650  1.6892
 5661TIP3    H238475   3.110   3.585   1.556  0.0464  0.0329  0.1325
 5662TIP3   OH238476   6.591   3.183  10.611 -0.1580  0.4258 -0.5102
 5662TIP3    H138477   6.569   3.184  10.704 -0.4888 -0.4922 -0.5600
 5662TIP3    H238478   6.678   3.143  10.607 -0.2613  0.2074 -0.6090
 5663TIP3   OH238479   4.440   0.670   4.494 -0.4094 -0.0394 -0.2832
 5663TIP3    H138480   4.521   0.693   4.448  1.6241 -3.7338  1.0405
 5663TIP3    H238481   4.399   0.603   4.439  0.6138 -2.4631  1.6895
 5664TIP3   OH238482   4.798   5.113   0.978 -0.6025 -0.6770 -0.5886
 5664TIP3    H138483   4.796   5.188   0.918  2.8607  1.2367  1.3863
 5664TIP3    H238484   4.830   5.040   0.925  1.0856  0.6275 -1.4726
 5665TIP3   OH238485   1.753   2.485  14.080 -0.0586  0.1689  0.3658
 5665TIP3    H138486   1.778   2.490  13.987 -0.7068  0.6858  0.2035
 5665TIP3    H238487   1.725   2.395  14.092 -0.3397  0.1941 -0.0514
 5666TIP3   OH238488   1.401   1.812  12.667 -0.2278 -0.0136  0.2386
 5666TIP3    H138489   1.477   1.754  12.674  0.3549  0.4562 -1.7390
 5666TIP3    H238490   1.438   1.900  12.670 -0.4932  0.2247 -2.1647
 5667TIP3   OH238491   1.302   2.381  15.506  0.0210  0.1139 -0.2443
 5667TIP3    H138492   1.234   2.382  15.439  0.0707  0.0626 -0.2952
 5667TIP3    H238493   1.350   2.462  15.493 -0.5040  0.5146  0.2777
 5668TIP3   OH238494   2.308   4.773  12.257  0.3015 -0.4707 -0.5430
 5668TIP3    H138495   2.278   4.684  12.241  0.4842 -0.4002 -1.3400
 5668TIP3    H238496   2.323   4.809  12.169 -0.0224  0.4277 -0.2460
 5669TIP3   OH238497   1.306   5.484  12.108 -0.2192 -0.0449 -0.4475
 5669TIP3    H138498   1.287   5.396  12.140 -0.1825 -0.4009 -1.3796
 5669TIP3    H238499   1.308   5.475  12.012  1.4941  0.6078 -0.5055
 5670TIP3   OH238500   2.233   3.242  10.950 -0.4078 -0.0006 -0.1028
 5670TIP3    H138501   2.228   3.323  11.000 -2.1738 -0.5854  0.7345
 5670TIP3    H238502   2.153   3.241  10.897  0.0556 -0.7505 -0.8148
 5671TIP3   OH238503   1.204   5.265  12.572 -0.8148  0.3013  0.0823
 5671TIP3    H138504   1.266   5.222  12.631 -2.2012  2.1911  3.1571
 5671TIP3    H238505   1.118   5.250  12.612 -2.0181  0.5245 -2.2520
 5672TIP3   OH238506   3.752   2.669   4.225  0.1228 -0.3052  0.0780
 5672TIP3    H138507   3.700   2.747   4.209  2.0713  1.3881  1.4751
 5672TIP3    H238508   3.714   2.603   4.167 -3.5301  0.7393  0.9713
 5673TIP3   OH238509   4.730   5.668  16.217 -0.4081  0.3336  0.3298
 5673TIP3    H138510   4.821   5.666  16.250  0.2864 -0.5743 -1.5150
 5673TIP3    H238511   4.709   5.761  16.211  0.9219  0.6006 -0.5369
 5674TIP3   OH238512   5.869   3.913   3.402 -0.4800 -0.1441 -0.5523
 5674TIP3    H138513   5.823   3.856   3.463  0.0602 -0.5130 -0.4825
 5674TIP3    H238514   5.811   3.989   3.391  0.0572  0.6548  1.5743
 5675TIP3   OH238515   2.847   5.501  11.546 -0.1865 -0.0720  0.1939
 5675TIP3    H138516   2.940   5.515  11.524 -0.3837 -0.3726 -0.9050
 5675TIP3    H238517   2.801   5.513  11.463 -0.8159 -2.9058  0.0205
 5676TIP3   OH238518   4.798   3.359  15.393 -0.5899 -0.0605 -0.4459
 5676TIP3    H138519   4.748   3.280  15.371 -0.8314  0.2113 -0.8906
 5676TIP3    H238520   4.883   3.327  15.421 -0.7740 -0.4934 -0.3760
 5677TIP3   OH238521   2.425   3.509   4.052  0.0080  0.0325 -0.0344
 5677TIP3    H138522   2.353   3.461   4.011 -2.7308  0.4878  3.6689
 5677TIP3    H238523   2.414   3.599   4.022 -0.2556 -0.1297 -0.4240
 5678TIP3   OH238524   6.273   0.584   2.757  0.1361 -0.7422  0.2155
 5678TIP3    H138525   6.341   0.611   2.695 -0.9621 -0.8069 -1.0599
 5678TIP3    H238526   6.292   0.635   2.836  1.9287 -1.1068  0.0781
 5679TIP3   OH238527   2.733   5.305  15.627 -0.0918  0.9090 -0.4995
 5679TIP3    H138528   2.698   5.316  15.716  0.0344  1.5320 -0.5266
 5679TIP3    H238529   2.656   5.302  15.571 -0.2412 -0.6652 -0.2623
 5680TIP3   OH238530   3.048   1.885   0.161  0.1622 -0.0274 -0.1843
 5680TIP3    H138531   3.125   1.904   0.214  0.0899 -0.0945 -0.0530
 5680TIP3    H238532   3.083   1.850   0.079  0.2852  0.4295 -0.3267
 5681TIP3   OH238533   0.428   5.243  13.033 -0.2568 -0.5138  0.1474
 5681TIP3    H138534   0.359   5.262  13.097  0.8007  1.5217  0.7538
 5681TIP3    H238535   0.451   5.151  13.050  0.3634  0.0968  3.1097
 5682TIP3   OH238536   0.948   5.311  15.764  0.5126 -0.3638  0.3408
 5682TIP3    H138537   0.906   5.272  15.841  0.7657 -0.8942  0.2160
 5682TIP3    H238538   1.040   5.318  15.788  0.4603  0.2168  0.3809
 5683TIP3   OH238539   1.383   6.725  15.026 -0.1932 -0.3397 -0.6570
 5683TIP3    H138540   1.340   6.653  14.980 -0.3070  0.5042 -1.9256
 5683TIP3    H238541   1.383   6.797  14.963  1.3273  0.2955  0.0180
 5684TIP3   OH238542   2.110   0.593  13.356 -0.7126 -0.3054  0.0570
 5684TIP3    H138543   2.193   0.631  13.325 -0.8411  0.3142  0.4766
 5684TIP3    H238544   2.060   0.579  13.276 -0.8006  0.7387 -0.0890
 5685TIP3   OH238545   3.757   5.716  11.227 -0.1481 -0.1597 -0.1633
 5685TIP3    H138546   3.755   5.788  11.164  0.2884 -0.6246 -0.7275
 5685TIP3    H238547   3.745   5.637  11.173 -2.2816 -0.4364  0.6045
 5686TIP3   OH238548   4.510   2.824   4.926  0.2815 -0.0039  0.0496
 5686TIP3    H138549   4.511   2.828   4.830  0.7159 -0.5858  0.0187
 5686TIP3    H238550   4.438   2.764   4.947 -0.2542  0.6539  0.1212
 5687TIP3   OH238551   0.150   4.309  12.177  0.4470 -0.3381  0.0843
 5687TIP3    H138552   0.072   4.343  12.133 -0.2299 -0.6513  1.0131
 5687TIP3    H238553   0.207   4.386  12.188  0.1726 -0.0630 -0.3871
 5688TIP3   OH238554   2.609   0.602  13.298  0.1726  0.1648 -0.1066
 5688TIP3    H138555   2.587   0.679  13.351  0.2909 -0.1341  0.3849
 5688TIP3    H238556   2.635   0.536  13.362  0.2656 -0.2211 -0.5393
 5689TIP3   OH238557   1.156   0.944  16.143  0.2236  0.4277  0.5933
 5689TIP3    H138558   1.111   0.998  16.208 -0.9304 -1.3471  1.3906
 5689TIP3    H238559   1.097   0.943  16.068 -0.2121 -0.4006  0.9273
 5690TIP3   OH238560   4.942   1.853   4.122 -0.1548  0.4690  0.2057
 5690TIP3    H138561   5.037   1.850   4.126 -0.1365  0.3588 -0.2427
 5690TIP3    H238562   4.913   1.800   4.196  0.1254  1.1971  0.8502
 5691TIP3   OH238563   4.211   3.299   2.743 -0.0433  0.0076  0.0027
 5691TIP3    H138564   4.177   3.215   2.712 -0.7955  0.4324 -0.3290
 5691TIP3    H238565   4.241   3.280   2.832 -0.8208 -0.4562  0.1751
 5692TIP3   OH238566   2.158   5.772   1.286 -0.5780 -0.0252 -0.2146
 5692TIP3    H138567   2.247   5.743   1.307 -0.5402  0.7726  0.8054
 5692TIP3    H238568   2.113   5.775   1.371 -1.6303 -0.5647 -0.7348
 5693TIP3   OH238569   1.448   3.802  12.592 -0.4416  0.0069 -0.1736
 5693TIP3    H138570   1.375   3.827  12.535 -0.1153 -0.4487 -0.7996
 5693TIP3    H238571   1.426   3.714  12.622 -0.2920 -0.0079 -0.1084
 5694TIP3   OH238572   6.297   1.566  15.646 -0.1944 -0.0363 -0.6766
 5694TIP3    H138573   6.261   1.478  15.637  0.2405 -0.3296  0.2616
 5694TIP3    H238574   6.383   1.552  15.687 -0.6939  0.8970  0.7443
 5695TIP3   OH238575   4.400   4.121   5.453 -0.2692 -0.2799  0.0146
 5695TIP3    H138576   4.439   4.097   5.369 -0.0237  0.8097 -0.1941
 5695TIP3    H238577   4.461   4.087   5.519  0.9052  1.1417 -0.3012
 5696TIP3   OH238578   4.393   4.011   5.185  0.4447 -0.4492  0.3637
 5696TIP3    H138579   4.376   3.926   5.144  2.1157 -0.5689 -0.1332
 5696TIP3    H238580   4.488   4.019   5.187  0.3317  1.6507 -0.0742
 5697TIP3   OH238581   0.417   6.199  12.944  0.4598 -0.5558  0.2805
 5697TIP3    H138582   0.509   6.211  12.924  0.5245  0.3966  1.0348
 5697TIP3    H238583   0.398   6.266  13.010 -0.6772 -0.9754  0.4111
 5698TIP3   OH238584   6.516   1.621   0.607 -0.0668 -0.2186  0.7141
 5698TIP3    H138585   6.602   1.661   0.591 -0.9407  1.4943  0.0164
 5698TIP3    H238586   6.493   1.580   0.523 -0.8299  1.1787  0.2113
 5699TIP3   OH238587   6.518   1.294   1.537  0.6993  0.6577  0.3526
 5699TIP3    H138588   6.522   1.372   1.593  0.2000  0.7064  0.3275
 5699TIP3    H238589   6.470   1.323   1.460  0.2657  0.2536  0.4649
 5700TIP3   OH238590   2.340   0.968   5.876 -0.1056 -0.7616 -0.0234
 5700TIP3    H138591   2.392   0.933   5.947  0.6444 -0.6856 -0.5218
 5700TIP3    H238592   2.387   1.046   5.848  0.0848 -1.2631 -1.1632
 5701TIP3   OH238593   0.148   3.927   3.206 -0.5740 -0.2807 -1.0630
 5701TIP3    H138594   0.097   3.877   3.270 -1.5401 -1.1616 -2.4833
 5701TIP3    H238595   0.128   4.018   3.226 -0.8395 -0.5335 -0.0971
 5702TIP3   OH238596   3.684   2.040  14.570 -1.0879 -0.4999  0.3855
 5702TIP3    H138597   3.623   2.103  14.532 -0.4982 -0.4278 -0.4519
 5702TIP3    H238598   3.665   1.958  14.524 -0.9515 -0.6202  0.5425
 5703TIP3   OH238599   4.590   5.420  11.406  0.5058  0.1927  0.3252
 5703TIP3    H138600   4.623   5.486  11.346 -0.2220 -0.7307 -1.1262
 5703TIP3    H238601   4.495   5.430  11.403  0.4681  1.2575  2.6689
 5704TIP3   OH238602   3.101   0.690   3.287 -0.2935  0.4326 -0.2218
 5704TIP3    H138603   3.037   0.628   3.322 -0.3128  0.5619 -0.0264
 5704TIP3    H238604   3.144   0.642   3.216  1.6180 -0.8163  1.6787
 5705TIP3   OH238605   6.377   2.443  15.887  0.0556  0.3342 -0.3374
 5705TIP3    H138606   6.300   2.409  15.932 -0.1639  2.1910  0.7898
 5705TIP3    H238607   6.434   2.476  15.956 -0.4658  3.6491 -1.3074
 5706TIP3   OH238608   0.893   3.610  11.962 -0.3600  0.0881 -0.7906
 5706TIP3    H138609   0.805   3.639  11.987  0.0415  0.3217  0.4623
 5706TIP3    H238610   0.937   3.689  11.932 -0.1654  0.2471 -0.1127
 5707TIP3   OH238611   2.700   2.535   0.925 -0.1548 -0.0710 -0.2201
 5707TIP3    H138612   2.606   2.522   0.909 -0.3689  0.7399  0.2916
 5707TIP3    H238613   2.716   2.626   0.899  0.6054 -0.3652 -0.7956
 5708TIP3   OH238614   4.244   2.065  13.165  0.0065  0.7701  0.5422
 5708TIP3    H138615   4.249   2.156  13.136 -1.1034  0.4899 -0.6558
 5708TIP3    H238616   4.181   2.025  13.105  0.0433 -0.6495  1.4123
 5709TIP3   OH238617   6.127   5.477   2.209 -0.1438  0.3554  0.5246
 5709TIP3    H138618   6.043   5.515   2.237  0.0651  0.8417  0.4924
 5709TIP3    H238619   6.157   5.534   2.138  0.5480  0.5787  0.9916
 5710TIP3   OH238620   0.425   6.754  17.152 -0.3224  0.0186 -0.2720
 5710TIP3    H138621   0.469   6.707  17.223 -1.3944  0.6043  0.8240
 5710TIP3    H238622   0.396   6.685  17.092 -1.8533 -0.8006  1.2908
 5711TIP3   OH238623   1.974   5.396  16.252  0.2544  0.0277 -0.4738
 5711TIP3    H138624   1.950   5.375  16.162  1.2510 -0.3788 -0.6554
 5711TIP3    H238625   1.984   5.311  16.294  1.7326  0.1669 -0.5133
 5712TIP3   OH238626   3.661   6.513   4.706 -0.3119 -0.0532 -0.4883
 5712TIP3    H138627   3.723   6.585   4.719 -0.5072 -0.0332  0.3838
 5712TIP3    H238628   3.705   6.456   4.643 -0.2419  0.9214 -1.3504
 5713TIP3   OH238629   5.715   4.533  14.048 -0.0292 -0.5906 -1.0853
 5713TIP3    H138630   5.799   4.488  14.051 -0.5451 -1.5681  1.6748
 5713TIP3    H238631   5.658   4.475  13.997  0.1861 -1.4824 -0.3404
 5714TIP3   OH238632   2.215   5.810  14.018 -0.6880 -0.0227 -0.1498
 5714TIP3    H138633   2.161   5.872  14.066 -0.8736  1.5649 -2.2704
 5714TIP3    H238634   2.296   5.804  14.069 -0.8243  1.6913  0.3312
 5715TIP3   OH238635   1.379   3.837   5.456  0.0486 -0.5622 -0.5095
 5715TIP3    H138636   1.386   3.774   5.527 -0.1245  0.4139  0.4115
 5715TIP3    H238637   1.401   3.788   5.377  0.0190 -1.7302  0.1860
 5716TIP3   OH238638   4.660   3.887   2.390 -0.3227 -0.1157 -0.5446
 5716TIP3    H138639   4.607   3.812   2.364 -0.3866  0.2021 -1.3555
 5716TIP3    H238640   4.607   3.963   2.367 -0.3418  0.1812  0.4619
 5717TIP3   OH238641   5.944   2.050  11.600 -0.1887  1.0482 -1.0121
 5717TIP3    H138642   5.920   2.044  11.692 -0.9371  0.8324 -1.2142
 5717TIP3    H238643   5.902   1.974  11.559  0.0475  1.2003 -1.5444
 5718TIP3   OH238644   2.784   0.465   5.455  0.4269 -0.4413 -0.5228
 5718TIP3    H138645   2.768   0.555   5.427 -0.0504  0.3449  1.9960
 5718TIP3    H238646   2.729   0.411   5.398 -0.6174  1.0302 -0.9603
 5719TIP3   OH238647   1.678   2.106  13.223  0.2411  0.4364  0.3459
 5719TIP3    H138648   1.644   2.060  13.146  1.3691 -0.8651  0.6042
 5719TIP3    H238649   1.605   2.162  13.251 -0.7876 -0.3783 -0.6211
 5720TIP3   OH238650   5.635   5.904   1.839  0.4231 -0.0558  0.3110
 5720TIP3    H138651   5.544   5.908   1.866 -0.0136 -1.3764 -0.8626
 5720TIP3    H238652   5.643   5.820   1.793  2.3938 -0.3013  1.0023
 5721TIP3   OH238653   3.906   6.294   5.893 -0.1541  0.0477  0.5765
 5721TIP3    H138654   3.871   6.309   5.805 -0.0207 -1.8358  0.1452
 5721TIP3    H238655   4.001   6.296   5.882 -0.0972 -2.0195  0.2446
 5722TIP3   OH238656   0.086   1.746   3.825 -0.8074  0.1623  0.2071
 5722TIP3    H138657   0.039   1.821   3.862 -0.8286 -0.5935  1.8020
 5722TIP3    H238658   0.061   1.672   3.880 -0.2792 -0.9038 -0.9319
 5723TIP3   OH238659   5.163   0.238   0.834  0.8225 -0.1520 -0.1897
 5723TIP3    H138660   5.195   0.311   0.887  0.6872  0.7059 -1.2692
 5723TIP3    H238661   5.115   0.279   0.763 -0.5181 -1.3472 -0.0214
 5724TIP3   OH238662   4.625   6.400  17.396 -0.1338  0.6634 -0.5039
 5724TIP3    H138663   4.549   6.424  17.342 -0.2589 -2.6980 -2.0160
 5724TIP3    H238664   4.666   6.484  17.417 -3.0122  2.4666 -1.4453
 5725TIP3   OH238665   5.024   6.776  12.755 -0.8850  0.2676 -0.6853
 5725TIP3    H138666   5.046   6.839  12.824 -0.3909  0.7377 -1.2616
 5725TIP3    H238667   5.107   6.730  12.738 -1.4380 -1.2130  0.3790
 5726TIP3   OH238668   6.488   3.143  16.235  0.1642 -0.3920 -0.7346
 5726TIP3    H138669   6.526   3.115  16.318  1.9399  0.0234 -1.3619
 5726TIP3    H238670   6.497   3.066  16.178  1.6799  0.2007 -1.3702
 5727TIP3   OH238671   1.746   2.560   3.073  0.2962  0.3472 -0.2171
 5727TIP3    H138672   1.799   2.547   3.151 -0.9394  0.0969  0.6140
 5727TIP3    H238673   1.769   2.487   3.016 -0.0224 -0.4489  0.6424
 5728TIP3   OH238674   0.591   6.250  12.378 -0.1110 -0.3218  0.4016
 5728TIP3    H138675   0.653   6.306  12.332 -0.6423 -1.2127 -1.4904
 5728TIP3    H238676   0.613   6.161  12.350 -0.9999 -0.8180  1.2096
 5729TIP3   OH238677   4.163   2.050   5.163 -0.3488  0.3632  0.5877
 5729TIP3    H138678   4.156   1.975   5.104 -0.5381  0.8154  0.0208
 5729TIP3    H238679   4.228   2.023   5.228 -0.5443 -0.3535  0.4913
 5730TIP3   OH238680   2.850   5.616   3.849 -0.0226 -0.4602 -0.7167
 5730TIP3    H138681   2.942   5.604   3.872 -0.1199  1.6005  1.1834
 5730TIP3    H238682   2.809   5.645   3.931 -2.0303  0.2130 -1.8864
 5731TIP3   OH238683   3.722   2.862   5.674  0.0049 -0.4634 -0.3972
 5731TIP3    H138684   3.758   2.895   5.592 -0.5617 -0.7060 -0.7509
 5731TIP3    H238685   3.645   2.916   5.690  0.1697 -0.3524  0.0284
 5732TIP3   OH238686   0.506   0.440  14.583  0.6389 -0.2840  0.3992
 5732TIP3    H138687   0.594   0.463  14.553 -0.2353  3.2811  0.1238
 5732TIP3    H238688   0.468   0.392  14.510  0.9936  1.9789 -1.4060
 5733TIP3   OH238689   4.473   0.770  15.933 -0.0188  0.0012  0.1642
 5733TIP3    H138690   4.461   0.712  16.008  1.0434  0.2769  0.5783
 5733TIP3    H238691   4.413   0.737  15.867  0.1253 -1.2046  0.6011
 5734TIP3   OH238692   5.255   5.377  17.095 -0.1935  0.2797  0.0322
 5734TIP3    H138693   5.316   5.417  17.033 -1.7680 -0.0802 -1.8229
 5734TIP3    H238694   5.273   5.283  17.091 -0.5427  0.2202 -0.1390
 5735TIP3   OH238695   2.564   1.137  14.664 -0.1984 -0.4688  0.1145
 5735TIP3    H138696   2.548   1.107  14.754 -1.3222 -0.1579  0.0323
 5735TIP3    H238697   2.477   1.143  14.625  0.3333 -1.5315 -1.3156
 5736TIP3   OH238698   1.708   2.031  13.966  0.3390  0.5242  0.7580
 5736TIP3    H138699   1.651   1.954  13.962  0.7268  0.2642 -0.9759
 5736TIP3    H238700   1.747   2.035  13.878  2.8777  0.7682  1.8154
 5737TIP3   OH238701   2.986   5.191   5.643  0.5979 -0.0658  0.4397
 5737TIP3    H138702   3.031   5.134   5.581  0.5015 -1.5121  1.6326
 5737TIP3    H238703   2.897   5.198   5.609  1.0521  0.7699 -0.6108
 5738TIP3   OH238704   0.970   5.389  12.158  0.6329  0.4839  0.3109
 5738TIP3    H138705   1.005   5.411  12.071 -1.0441 -1.4636 -0.9512
 5738TIP3    H238706   1.046   5.357  12.206  1.0790 -1.7042 -1.6639
 5739TIP3   OH238707   3.649   4.298   1.501  0.6752 -0.3010 -0.2001
 5739TIP3    H138708   3.577   4.359   1.509  0.2943 -0.7241 -0.3630
 5739TIP3    H238709   3.727   4.350   1.518  0.3041  0.0754  0.3669
 5740TIP3   OH238710   1.310   1.430   2.020 -0.1928  0.2200  0.0582
 5740TIP3    H138711   1.246   1.422   2.091 -0.5643 -0.0119 -0.3045
 5740TIP3    H238712   1.336   1.522   2.022  1.0587 -0.1235  1.5883
 5741TIP3   OH238713   5.010   5.034  13.227 -0.3470 -0.7754  0.4119
 5741TIP3    H138714   5.043   4.944  13.224 -0.8564 -0.9767  0.6466
 5741TIP3    H238715   4.915   5.024  13.228 -0.5488 -0.1553 -2.6670
 5742TIP3   OH238716   5.044   1.808   4.695 -0.5616  0.3180 -0.3771
 5742TIP3    H138717   5.096   1.797   4.775 -0.7290  0.0965 -0.2992
 5742TIP3    H238718   4.962   1.763   4.713  0.4703 -2.3065 -1.7051
 5743TIP3   OH238719   4.465   6.660  16.391 -0.3931  0.1225 -0.3060
 5743TIP3    H138720   4.539   6.623  16.439  0.5477  0.3778 -1.5207
 5743TIP3    H238721   4.410   6.699  16.458  0.5912 -0.0446  0.6158
 5744TIP3   OH238722   5.339   3.826   5.777 -0.2528  0.7053 -0.6259
 5744TIP3    H138723   5.348   3.917   5.805 -0.9020  0.4897  0.3398
 5744TIP3    H238724   5.258   3.796   5.818  0.6779 -0.7182  0.2781
 5745TIP3   OH238725   2.933   0.318  15.957 -0.6091  0.1100 -0.2271
 5745TIP3    H138726   2.991   0.243  15.973  2.5556  2.3462 -0.2225
 5745TIP3    H238727   2.956   0.381  16.025 -2.0818  1.6655 -1.1042
 5746TIP3   OH238728   2.833   2.191  14.307 -0.0524  0.2582 -0.0053
 5746TIP3    H138729   2.872   2.154  14.227  0.9752  0.5449  0.3563
 5746TIP3    H238730   2.830   2.285  14.291 -2.1891  0.1431 -0.7103
 5747TIP3   OH238731   2.866   1.582  16.591  0.5591 -0.0484 -0.6257
 5747TIP3    H138732   2.881   1.609  16.682 -0.5069  0.2333 -0.5287
 5747TIP3    H238733   2.912   1.498  16.584 -0.2994 -0.6464  0.5196
 5748TIP3   OH238734   3.928   1.240   5.708 -0.1958 -0.1585 -0.1387
 5748TIP3    H138735   3.848   1.250   5.760 -1.0930 -1.0035 -1.3028
 5748TIP3    H238736   3.904   1.270   5.620  0.9434  0.1030 -0.3851
 5749TIP3   OH238737   1.358   0.953   0.372  0.3748 -0.9878 -0.3246
 5749TIP3    H138738   1.432   0.968   0.431  1.0462 -0.9635 -1.1567
 5749TIP3    H238739   1.283   0.941   0.430  0.7783  0.3117  0.5101
 5750TIP3   OH238740   0.593   1.704  13.387 -0.3001  0.3549  0.5946
 5750TIP3    H138741   0.596   1.613  13.359  1.1533  0.5570  0.0059
 5750TIP3    H238742   0.630   1.703  13.476  1.5507  0.5739 -0.1195
 5751TIP3   OH238743   5.900   2.224  16.479  0.4740 -0.0065  0.1542
 5751TIP3    H138744   5.907   2.227  16.383  0.5499 -0.7254  0.1299
 5751TIP3    H238745   5.811   2.255  16.497 -0.1526 -1.4469 -0.2724
 5752TIP3   OH238746   0.056   1.742   5.545 -0.3527 -0.0616  0.4634
 5752TIP3    H138747   0.124   1.807   5.532 -0.5800  0.6061  2.4176
 5752TIP3    H238748   0.014   1.766   5.627 -1.8586 -1.4293  0.1473
 5753TIP3   OH238749   4.282   0.081  16.545 -0.1764 -0.4340 -0.3214
 5753TIP3    H138750   4.190   0.104  16.537 -0.0400  0.1560 -0.2934
 5753TIP3    H238751   4.326   0.165  16.558  0.3314 -0.7414 -0.0303
 5754TIP3   OH238752   5.929   6.301  17.485 -0.1851  0.0594 -0.0634
 5754TIP3    H138753   5.862   6.309  17.417  1.4329  0.9921 -1.6446
 5754TIP3    H238754   6.010   6.325  17.440  1.3342 -1.7856  1.5667
 5755TIP3   OH238755   6.129   1.653   0.074 -0.6228 -0.0523 -0.3143
 5755TIP3    H138756   6.216   1.634   0.039 -0.1435 -0.2554  0.9304
 5755TIP3    H238757   6.129   1.748   0.086 -0.0881 -0.1829  0.8572
 5756TIP3   OH238758   3.457   0.111   3.418 -0.6350  0.5944 -0.9003
 5756TIP3    H138759   3.485   0.144   3.332 -0.7280  2.2900 -0.3062
 5756TIP3    H238760   3.406   0.183   3.456 -0.7420 -0.2008  0.5127
 5757TIP3   OH238761   6.012   6.500  14.916  0.7539 -0.0488 -0.1633
 5757TIP3    H138762   5.975   6.474  14.832  0.9440  1.7459 -0.8401
 5757TIP3    H238763   6.105   6.511  14.900  0.9307 -0.4870  0.5012
 5758TIP3   OH238764   5.024   2.632  14.028 -0.3030 -0.1264 -0.0362
 5758TIP3    H138765   5.037   2.726  14.021 -1.1335  0.1924  2.1402
 5758TIP3    H238766   5.108   2.594  13.999  0.8546  1.3559  1.2157
 5759TIP3   OH238767   6.384   0.231  12.348 -0.6601 -0.1363  0.3237
 5759TIP3    H138768   6.392   0.156  12.406 -1.1017  0.7079  1.5052
 5759TIP3    H238769   6.388   0.194  12.260 -0.7501 -1.5207  0.8869
 5760TIP3   OH238770   1.913   4.965   4.956 -0.3325 -0.2344 -0.4793
 5760TIP3    H138771   1.946   5.054   4.974 -0.7992 -0.4024  1.4939
 5760TIP3    H238772   1.870   4.972   4.871  1.6149  0.8585 -1.4269
 5761TIP3   OH238773   3.199   3.993  12.817 -0.7028 -0.4727  0.1393
 5761TIP3    H138774   3.130   3.937  12.852 -0.1467 -1.7782 -0.7746
 5761TIP3    H238775   3.275   3.936  12.810 -0.0345  0.4752 -0.5547
 5762TIP3   OH238776   2.238   5.393  11.115 -0.2705  0.5732 -0.1829
 5762TIP3    H138777   2.152   5.435  11.102 -0.8032 -0.4010  0.1024
 5762TIP3    H238778   2.292   5.429  11.045 -1.3665  0.0206 -1.3512
 5763TIP3   OH238779   1.247   1.028  13.439  0.1470 -0.1513  0.3970
 5763TIP3    H138780   1.160   1.061  13.463  0.2219  0.9086 -0.7305
 5763TIP3    H238781   1.299   1.106  13.422  1.0819 -0.7954  0.1893
 5764TIP3   OH238782   2.862   6.728   2.762  0.0466 -0.3531  0.2486
 5764TIP3    H138783   2.814   6.726   2.845 -1.2766 -0.3421 -0.4841
 5764TIP3    H238784   2.876   6.636   2.741 -0.3139 -0.3770  0.1048
 5765TIP3   OH238785   0.663   3.483  13.634 -0.0367 -0.1382 -0.2520
 5765TIP3    H138786   0.647   3.496  13.540 -1.4994  2.4114  0.2563
 5765TIP3    H238787   0.755   3.459  13.640 -0.2913 -1.9843 -2.4250
 5766TIP3   OH238788   3.452   5.078  12.764  0.3271 -0.1244 -0.0997
 5766TIP3    H138789   3.468   5.144  12.697  0.2408  0.1747  0.1709
 5766TIP3    H238790   3.431   4.998  12.715  0.7613 -0.0394 -0.4344
 5767TIP3   OH238791   0.970   5.358   3.990 -0.9141  0.1144  0.1190
 5767TIP3    H138792   0.975   5.420   4.064 -1.0103  0.9719 -0.5745
 5767TIP3    H238793   0.953   5.414   3.914  0.5049 -0.6175 -0.7671
 5768TIP3   OH238794   4.050   3.433  15.223  0.1483  0.0975 -0.1708
 5768TIP3    H138795   3.964   3.401  15.251  0.7630  0.0533  1.7880
 5768TIP3    H238796   4.068   3.383  15.143  0.0666 -2.9031  1.5319
 5769TIP3   OH238797   5.637   5.570  11.714  0.5360  0.7898  0.2048
 5769TIP3    H138798   5.569   5.503  11.710 -0.3544  1.7082 -0.8567
 5769TIP3    H238799   5.654   5.592  11.622  0.1557  2.6429  0.5366
 5770TIP3   OH238800   2.891   3.616  15.488  0.0472 -0.6319  0.1153
 5770TIP3    H138801   2.927   3.596  15.574  2.1286 -0.9931 -0.7752
 5770TIP3    H238802   2.959   3.670  15.446 -0.4030 -1.4048 -1.6919
 5771TIP3   OH238803   0.573   6.110  10.999 -0.2013 -0.2932 -0.1117
 5771TIP3    H138804   0.575   6.202  10.974  0.8827  0.1081  1.3217
 5771TIP3    H238805   0.645   6.100  11.062 -0.1888 -2.1562 -0.3608
 5772TIP3   OH238806   2.444   0.530   4.405  0.2534 -0.0350 -0.2179
 5772TIP3    H138807   2.446   0.477   4.325  1.8836  0.2539 -0.3920
 5772TIP3    H238808   2.397   0.609   4.379  0.2911 -0.1776 -0.7445
 5773TIP3   OH238809   3.989   1.252  16.463 -0.4812 -0.4286 -0.0352
 5773TIP3    H138810   3.897   1.260  16.488 -0.0555 -1.6209  2.1740
 5773TIP3    H238811   3.999   1.312  16.389 -2.7179  0.6718  0.4627
 5774TIP3   OH238812   5.328   4.219  13.224 -0.2074  0.1868 -0.2904
 5774TIP3    H138813   5.415   4.201  13.259 -0.3811 -0.4692 -0.1797
 5774TIP3    H238814   5.331   4.186  13.134 -0.0748  0.9591 -0.5811
 5775TIP3   OH238815   0.646   1.989   1.052 -0.1504  0.6068  0.4662
 5775TIP3    H138816   0.610   1.901   1.042 -1.1396  0.8288  1.7469
 5775TIP3    H238817   0.705   2.000   0.977 -1.7101 -0.3005 -0.9624
 5776TIP3   OH238818   2.439   0.435   5.969 -0.1741 -0.0450 -0.3359
 5776TIP3    H138819   2.436   0.428   6.064 -0.3897 -1.3106 -0.4131
 5776TIP3    H238820   2.531   0.417   5.946 -0.1512  0.1197 -0.3736
 5777TIP3   OH238821   2.421   1.483   2.217 -0.8281 -0.0805  0.6425
 5777TIP3    H138822   2.461   1.463   2.301 -0.7543  0.6855  0.7993
 5777TIP3    H238823   2.333   1.515   2.240 -0.2464  1.6561  0.5511
 5778TIP3   OH238824   0.750   1.762  11.544 -0.0877 -0.1618 -0.3203
 5778TIP3    H138825   0.690   1.828  11.578 -0.0871 -0.7978  0.9723
 5778TIP3    H238826   0.741   1.767  11.449 -0.7491  1.0669 -0.2018
 5779TIP3   OH238827   1.578   2.953   3.853  0.5132 -0.5048 -0.4499
 5779TIP3    H138828   1.585   2.865   3.817  0.7657 -0.4834 -0.4547
 5779TIP3    H238829   1.528   2.942   3.934  1.1279 -0.7574 -0.0910
 5780TIP3   OH238830   1.389   0.650   4.985  0.1864 -0.3007 -0.0100
 5780TIP3    H138831   1.321   0.630   5.049  0.4990  0.0252  0.4325
 5780TIP3    H238832   1.462   0.684   5.037 -0.0744  1.3409 -0.6495
 5781TIP3   OH238833   4.750   5.976   6.450  0.4184  0.4939 -0.4453
 5781TIP3    H138834   4.790   5.949   6.368  0.9621 -0.4960  0.1296
 5781TIP3    H238835   4.809   5.944   6.518 -0.5547  0.3569  0.3659
 5782TIP3   OH238836   5.651   5.772  17.336  0.5872 -0.0122 -0.2724
 5782TIP3    H138837   5.568   5.757  17.292 -0.7967  1.4494  1.6640
 5782TIP3    H238838   5.631   5.764  17.429  2.6980  0.0321  0.2314
 5783TIP3   OH238839   3.746   4.886  16.307  0.3277 -0.0417 -1.0493
 5783TIP3    H138840   3.760   4.973  16.270  3.3770  0.6074  1.1739
 5783TIP3    H238841   3.798   4.828  16.250  1.6996  0.3259 -0.2354
 5784TIP3   OH238842   1.755   2.920   5.211 -0.4682 -0.3942  0.4796
 5784TIP3    H138843   1.766   2.889   5.301  0.3160 -1.1584  0.1393
 5784TIP3    H238844   1.808   2.859   5.159 -0.4357  0.3970 -0.4269
 5785TIP3   OH238845   1.176   3.432   5.818 -0.1786  0.0150 -0.3025
 5785TIP3    H138846   1.210   3.354   5.862 -0.3077 -0.2568 -0.6796
 5785TIP3    H238847   1.095   3.453   5.864  0.4987  0.6976  0.6400
 5786TIP3   OH238848   4.255   2.143  12.428 -0.4995  0.4360 -0.0148
 5786TIP3    H138849   4.180   2.175  12.377  0.8437 -0.4420 -2.7564
 5786TIP3    H238850   4.275   2.058  12.390  2.7550  1.2596 -0.4380
 5787TIP3   OH238851   6.530   1.357   3.212  0.2939 -0.3944  0.6252
 5787TIP3    H138852   6.514   1.311   3.294 -3.5917 -0.0019  0.2536
 5787TIP3    H238853   6.455   1.336   3.157  2.1481  0.3405 -2.4488
 5788TIP3   OH238854   4.695   1.234  17.041 -0.0838  0.5031 -0.6581
 5788TIP3    H138855   4.655   1.313  17.076  0.5080 -0.1740  1.7691
 5788TIP3    H238856   4.640   1.163  17.075  0.1173 -0.2087 -1.7592
 5789TIP3   OH238857   0.520   5.336   3.658  0.4210 -0.0389 -0.1544
 5789TIP3    H138858   0.557   5.259   3.699 -0.9984 -0.5230  0.2866
 5789TIP3    H238859   0.485   5.388   3.731 -1.1736 -0.3900 -0.6303
 5790TIP3   OH238860   6.337   5.174   2.379 -0.0941 -0.3184  0.1823
 5790TIP3    H138861   6.310   5.182   2.470  0.4315  3.3027  0.1842
 5790TIP3    H238862   6.255   5.174   2.329 -0.3451 -0.2559  0.5949
 5791TIP3   OH238863   1.978   1.874   5.651  0.4498 -0.1526  0.6112
 5791TIP3    H138864   1.923   1.924   5.590  0.9443  1.2616  1.2719
 5791TIP3    H238865   2.065   1.873   5.611 -0.0533 -2.7585 -0.6426
 5792TIP3   OH238866   5.615   2.973   1.780  0.1654 -0.2238  0.0021
 5792TIP3    H138867   5.599   2.913   1.854  2.3474  0.8453  1.4522
 5792TIP3    H238868   5.589   2.923   1.703 -1.9306 -1.5103  1.4272
 5793TIP3   OH238869   6.040   4.621   0.507 -0.1669 -0.5023  0.3053
 5793TIP3    H138870   6.044   4.708   0.548 -0.6762 -0.7747  0.9465
 5793TIP3    H238871   6.046   4.639   0.413 -3.0271  0.4527  0.2273
 5794TIP3   OH238872   4.350   5.919   4.677 -0.3304 -0.0135  0.4054
 5794TIP3    H138873   4.311   5.922   4.764  0.5113  0.7069  0.7647
 5794TIP3    H238874   4.299   5.983   4.626 -0.3551  0.0943  0.5650
 5795TIP3   OH238875   5.115   3.542   4.697 -0.1120  0.0443  0.6714
 5795TIP3    H138876   5.046   3.503   4.750  0.3387  1.6250  2.5598
 5795TIP3    H238877   5.196   3.510   4.736  0.2295  0.7407  0.5582
 5796TIP3   OH238878   0.510   1.415   3.694 -0.9811 -0.3425 -0.0858
 5796TIP3    H138879   0.507   1.510   3.707  0.6274 -0.3307  0.5115
 5796TIP3    H238880   0.491   1.379   3.781 -0.1725 -0.5219  0.0215
 5797TIP3   OH238881   0.331   0.786  15.032 -0.6289  0.3400 -0.3815
 5797TIP3    H138882   0.386   0.714  15.063 -1.2754 -0.7456 -1.6682
 5797TIP3    H238883   0.393   0.851  14.999 -0.0841 -0.6259 -1.3118
 5798TIP3   OH238884   3.502   5.005   4.906  0.4781 -0.0654  0.0730
 5798TIP3    H138885   3.533   5.009   4.815 -0.5026 -1.7402 -0.3742
 5798TIP3    H238886   3.426   4.948   4.903 -2.2706  3.2098  1.2756
 5799TIP3   OH238887   2.721   6.565   4.422 -0.2004  0.1212 -0.4117
 5799TIP3    H138888   2.773   6.488   4.445  0.2454  0.5101 -0.1054
 5799TIP3    H238889   2.785   6.635   4.412 -0.6042  0.4596 -0.6823
 5800TIP3   OH238890   5.841   6.577   2.990  0.4483 -0.0515 -0.3814
 5800TIP3    H138891   5.925   6.605   3.027  0.9707 -0.0787 -1.4973
 5800TIP3    H238892   5.784   6.567   3.066  1.2081  0.7933  0.3307
 5801TIP3   OH238893   6.754   2.384   0.620  0.5480  0.0368 -0.1996
 5801TIP3    H138894   6.790   2.345   0.540  2.3575 -1.1743  1.1153
 5801TIP3    H238895   6.712   2.310   0.665 -0.2359  0.6534  0.0985
 5802TIP3   OH238896   6.360   0.056   2.415 -0.0691  0.4379  0.0777
 5802TIP3    H138897   6.354  -0.008   2.486 -0.8196  1.2547  0.7683
 5802TIP3    H238898   6.322   0.011   2.340  1.7173 -0.8305 -0.1372
 5803TIP3   OH238899   3.340   4.221   1.225 -0.0294 -0.5929 -0.4430
 5803TIP3    H138900   3.288   4.214   1.145 -0.5989 -0.6049 -0.0762
 5803TIP3    H238901   3.430   4.204   1.196 -0.1942 -0.3807 -1.1164
 5804TIP3   OH238902   5.417   3.379   5.545  0.3120 -0.0461  0.1429
 5804TIP3    H138903   5.419   3.474   5.555 -1.2122  0.1216 -0.8154
 5804TIP3    H238904   5.412   3.364   5.451  2.9934 -1.1925  0.1053
 5805TIP3   OH238905   4.810   3.494   2.432 -0.5056 -0.1830 -0.0058
 5805TIP3    H138906   4.821   3.403   2.404 -2.9331 -0.8387  0.9423
 5805TIP3    H238907   4.735   3.526   2.382  0.6881  1.5562 -0.7833
 5806TIP3   OH238908   4.214   1.823  17.478  0.1998  0.3092 -0.1655
 5806TIP3    H138909   4.151   1.775  17.425  1.1090 -1.8468  0.6038
 5806TIP3    H238910   4.288   1.838  17.419 -0.8944  2.8132 -1.0614
 5807TIP3   OH238911   0.165   2.707  13.854 -0.4822 -0.1042 -0.0608
 5807TIP3    H138912   0.079   2.685  13.818  0.3950 -0.3739 -2.1407
 5807TIP3    H238913   0.199   2.624  13.888 -0.2251 -0.4641 -1.1438
 5808TIP3   OH238914   6.398   2.563  14.124  0.1081 -0.2462 -0.0953
 5808TIP3    H138915   6.439   2.542  14.040 -1.4184 -1.2133 -0.6501
 5808TIP3    H238916   6.415   2.486  14.179 -0.9927 -0.7202 -0.3750
 5809TIP3   OH238917   2.901   2.128   4.785 -0.2710 -0.2894  0.1221
 5809TIP3    H138918   2.829   2.172   4.742  0.9299  0.4298 -1.2278
 5809TIP3    H238919   2.926   2.058   4.725 -1.4791 -2.2360  1.7624
 5810TIP3   OH238920   1.435   0.923   1.302  0.2508  0.3512  0.3588
 5810TIP3    H138921   1.416   0.934   1.209  1.1597 -0.0507  0.1141
 5810TIP3    H238922   1.525   0.954   1.313  0.0815  0.6012  1.1484
 5811TIP3   OH238923   0.291   0.543   3.347  0.2798  0.4405  0.3800
 5811TIP3    H138924   0.311   0.637   3.348  0.1459  0.5879 -2.2899
 5811TIP3    H238925   0.374   0.501   3.370  0.4639  1.1870  1.1437
 5812TIP3   OH238926   3.439   6.619   0.452 -0.5413  0.0077 -0.1552
 5812TIP3    H138927   3.426   6.673   0.374  0.2017  1.5337  0.7217
 5812TIP3    H238928   3.429   6.680   0.525 -1.3053 -1.4002  0.9701
 5813TIP3   OH238929   5.261   5.554   1.154 -0.0632  0.6297 -0.1094
 5813TIP3    H138930   5.279   5.537   1.246 -0.2310  0.9556 -0.0154
 5813TIP3    H238931   5.307   5.636   1.135 -0.9848  1.1899 -0.0030
 5814TIP3   OH238932   1.885   1.525  13.606  0.2389 -0.2175 -0.8240
 5814TIP3    H138933   1.945   1.506  13.534  0.5639 -1.2386 -0.2994
 5814TIP3    H238934   1.855   1.439  13.636 -1.0207  0.2552 -0.6768
 5815TIP3   OH238935   2.875   3.814  12.571 -0.5292  0.4643  0.4659
 5815TIP3    H138936   2.851   3.756  12.499 -3.0678 -0.8232  2.2254
 5815TIP3    H238937   2.804   3.878  12.575  0.6006  1.7634  0.6214
 5816TIP3   OH238938   3.946   2.426  13.166 -0.5455 -0.6589 -0.1758
 5816TIP3    H138939   3.882   2.494  13.188  1.0646  0.6815  0.5315
 5816TIP3    H238940   3.994   2.462  13.092 -0.0131 -1.2714 -0.1317
 5817TIP3   OH238941   4.905   4.926  16.174  0.0186  0.0528  0.0940
 5817TIP3    H138942   4.977   4.930  16.237  1.6792  0.9824 -1.7424
 5817TIP3    H238943   4.837   4.874  16.218  1.6954 -0.6567  1.9981
 5818TIP3   OH238944   6.224   6.558   1.915  0.3981 -0.7989 -0.1749
 5818TIP3    H138945   6.255   6.639   1.874 -2.2691  0.7221  0.5784
 5818TIP3    H238946   6.132   6.551   1.888 -0.3607 -1.7914  2.3799
 5819TIP3   OH238947   2.287   1.559   1.205  0.0682 -0.4805  0.4465
 5819TIP3    H138948   2.327   1.518   1.128 -0.3182  0.0825 -0.0603
 5819TIP3    H238949   2.361   1.597   1.253  0.1346  0.9692 -0.7313
 5820TIP3   OH238950   2.235   4.508   3.341  0.3895 -0.0511 -0.2031
 5820TIP3    H138951   2.149   4.476   3.312  0.2132  1.5615 -1.5824
 5820TIP3    H238952   2.224   4.603   3.349  1.8131  0.0819  0.4354
 5821TIP3   OH238953   2.052   2.449   6.533 -0.0559 -0.1945  0.0248
 5821TIP3    H138954   2.024   2.357   6.535  0.9742 -0.5087  0.9236
 5821TIP3    H238955   1.971   2.499   6.524 -0.5632 -1.2097 -1.4307
 5822TIP3   OH238956   6.718   2.254  11.929 -0.0674 -0.0102  0.2137
 5822TIP3    H138957   6.792   2.209  11.889 -0.0508  1.7943 -1.9880
 5822TIP3    H238958   6.753   2.337  11.961 -0.8543  0.2833  0.3569
 5823TIP3   OH238959   0.150   0.506   5.101  0.6947 -0.1445 -0.0953
 5823TIP3    H138960   0.166   0.430   5.045 -0.0412  0.0767 -0.6252
 5823TIP3    H238961   0.112   0.571   5.042  2.2037  0.9931  0.1257
 5824TIP3   OH238962   0.225   4.807  13.279  0.2975  0.3285  0.3936
 5824TIP3    H138963   0.217   4.830  13.186  0.0190  2.6753  0.9357
 5824TIP3    H238964   0.176   4.725  13.287 -1.3201  1.0576 -1.2006
 5825TIP3   OH238965   0.674   0.824   4.394 -0.6430  0.1986 -0.5917
 5825TIP3    H138966   0.673   0.915   4.426  0.1793 -0.0496  0.1693
 5825TIP3    H238967   0.749   0.784   4.438 -1.5114 -1.0978 -0.2412
 5826TIP3   OH238968   5.787   2.625   1.200 -0.3109 -0.4729  0.4787
 5826TIP3    H138969   5.782   2.627   1.105  0.7608 -1.5322  0.3696
 5826TIP3    H238970   5.752   2.539   1.224  1.6850 -1.2460  0.8240
 5827TIP3   OH238971   6.394   4.572  12.689  0.0307 -0.0433  0.2648
 5827TIP3    H138972   6.424   4.663  12.679 -0.3823  0.0878  0.1988
 5827TIP3    H238973   6.328   4.562  12.620  1.0423 -0.8111 -0.6187
 5828TIP3   OH238974   3.581   0.675  12.839  0.0677 -0.1827 -0.3123
 5828TIP3    H138975   3.492   0.672  12.805 -0.3866 -0.2262  0.8302
 5828TIP3    H238976   3.610   0.764  12.821 -0.9432  0.4601  1.0370
 5829TIP3   OH238977   1.689   4.197   4.021  0.3224  0.0126  0.1538
 5829TIP3    H138978   1.746   4.257   4.068  1.2316 -0.6565 -0.0668
 5829TIP3    H238979   1.695   4.114   4.069 -0.7140  0.0078  0.3076
 5830TIP3   OH238980   4.682   1.253   5.790 -0.6471  0.5116 -0.5195
 5830TIP3    H138981   4.615   1.192   5.759  1.6110 -1.2105 -2.3995
 5830TIP3    H238982   4.701   1.309   5.714  0.3032  0.7195 -0.1519
 5831TIP3   OH238983   3.431   5.008   6.105 -0.4512 -0.7203 -0.4430
 5831TIP3    H138984   3.509   5.010   6.161  0.1103 -0.3333 -1.2166
 5831TIP3    H238985   3.448   5.075   6.039 -1.7435 -0.1632 -0.2402
 5832TIP3   OH238986   6.156   1.314  11.864 -0.0903  0.3275 -0.2676
 5832TIP3    H138987   6.194   1.256  11.798  1.5288  0.8932  0.1249
 5832TIP3    H238988   6.061   1.302  11.855  0.1688 -1.3655 -1.0798
 5833TIP3   OH238989   0.068   3.926  13.417 -0.2643  0.1174 -0.1049
 5833TIP3    H138990  -0.015   3.970  13.435  0.4841  1.5826 -0.1448
 5833TIP3    H238991   0.046   3.833  13.417 -1.7905  0.4531  0.4929
 5834TIP3   OH238992   3.014   2.770   0.335  0.3335 -0.0144 -0.1115
 5834TIP3    H138993   3.009   2.689   0.386  1.0927 -0.0796 -0.1300
 5834TIP3    H238994   3.038   2.741   0.247 -2.1175 -0.0201 -0.8635
 5835TIP3   OH238995   6.569   0.531  17.145  0.3498 -0.0750 -0.5105
 5835TIP3    H138996   6.620   0.603  17.182  0.9741 -1.3820  1.3320
 5835TIP3    H238997   6.531   0.567  17.064  4.1288  1.0138 -2.0282
 5836TIP3   OH238998   4.842   2.944   2.209 -0.4881 -0.0281 -0.6527
 5836TIP3    H138999   4.937   2.947   2.224 -0.9090  0.8188  2.5348
 5836TIP3    H239000   4.817   2.854   2.230 -0.4198 -0.2165 -1.3654
 5837TIP3   OH239001   3.015   5.214  11.365 -0.5434 -0.6140 -0.3049
 5837TIP3    H139002   3.073   5.290  11.365  0.4639 -1.3216  1.9738
 5837TIP3    H239003   3.040   5.165  11.287  1.2596 -0.3945  0.1033
 5838TIP3   OH239004   1.300   1.016  13.064 -0.2281  0.1539  0.2925
 5838TIP3    H139005   1.359   1.089  13.045  0.9260 -0.3807  1.6104
 5838TIP3    H239006   1.351   0.938  13.044  0.6407 -0.4125  3.9601
 5839TIP3   OH239007   0.696   0.098   0.775  0.1222 -0.2483  0.7651
 5839TIP3    H139008   0.637   0.047   0.719 -0.4465 -0.1088  1.2310
 5839TIP3    H239009   0.646   0.176   0.799  0.4685 -0.1604  1.2263
 5840TIP3   OH239010   1.364   5.068  11.090  0.3408  0.0596  0.0519
 5840TIP3    H139011   1.294   5.110  11.140  0.3614 -0.1015  0.2167
 5840TIP3    H239012   1.394   5.136  11.029 -1.9382 -0.7278 -2.1004
 5841TIP3   OH239013   3.402   0.183  13.472  0.0222  0.3770 -0.2589
 5841TIP3    H139014   3.402   0.221  13.385 -0.5505 -0.4151 -0.6222
 5841TIP3    H239015   3.365   0.251  13.528  2.0203  1.5769 -0.2776
 5842TIP3   OH239016   0.234   5.931   0.726  1.0851 -0.1692 -0.0619
 5842TIP3    H139017   0.297   5.862   0.746  2.4014  1.1067  0.2725
 5842TIP3    H239018   0.225   5.980   0.807  0.6071  0.4119 -0.4559
 5843TIP3   OH239019   0.214   2.581  15.329  0.0707 -0.2288 -0.3044
 5843TIP3    H139020   0.239   2.671  15.351 -1.0739 -0.1416  0.7791
 5843TIP3    H239021   0.146   2.591  15.263  0.0285 -0.3064 -0.2726
 5844TIP3   OH239022   3.374   6.580   5.093  0.0129 -0.4001 -0.1094
 5844TIP3    H139023   3.402   6.671   5.090  0.0061 -0.4066 -0.3891
 5844TIP3    H239024   3.419   6.538   5.020  0.6392 -0.8040  0.4904
 5845TIP3   OH239025   3.736   4.777  13.588  0.1680  0.0081 -0.1564
 5845TIP3    H139026   3.682   4.854  13.568  0.1192  0.2508  0.8309
 5845TIP3    H239027   3.677   4.703  13.578  0.2198  0.0917 -1.1400
 5846TIP3   OH239028   3.142   2.665  11.435  0.3333  0.0414 -0.4149
 5846TIP3    H139029   3.120   2.672  11.527 -0.0051 -1.0694 -0.3973
 5846TIP3    H239030   3.058   2.666  11.389  0.2525 -2.3966 -0.4697
 5847TIP3   OH239031   4.897   5.181   0.322 -0.0724 -0.0905  0.5702
 5847TIP3    H139032   4.916   5.220   0.408  0.4713 -0.8251  0.7941
 5847TIP3    H239033   4.947   5.100   0.322  3.1659  1.6614 -1.9481
 5848TIP3   OH239034   2.774   0.872   6.675  0.6699 -0.0707  0.5091
 5848TIP3    H139035   2.753   0.780   6.693 -0.1536  0.0324  0.1115
 5848TIP3    H239036   2.793   0.909   6.762 -3.3062  0.4224  1.3392
 5849TIP3   OH239037   1.665   0.913   2.815  0.2557  0.2084 -0.3685
 5849TIP3    H139038   1.716   0.960   2.881  0.4479  0.7053 -0.8635
 5849TIP3    H239039   1.615   0.981   2.770 -1.0326 -0.2851  0.2487
 5850TIP3   OH239040   2.113   0.388   5.357  0.0853 -0.2133  0.5470
 5850TIP3    H139041   2.151   0.355   5.438  1.2178  0.6235  0.3921
 5850TIP3    H239042   2.121   0.315   5.296  0.4894 -0.4046  0.8201
 5851TIP3   OH239043   6.266   3.351  14.685  0.4948 -0.3758  0.8832
 5851TIP3    H139044   6.310   3.364  14.601 -3.8714 -1.4263 -1.8550
 5851TIP3    H239045   6.280   3.259  14.706  0.7716 -0.3470  0.8314
 5852TIP3   OH239046   3.561   3.422   3.255 -0.1525 -0.4880  0.8048
 5852TIP3    H139047   3.623   3.478   3.210 -1.9145  1.0017  0.0763
 5852TIP3    H239048   3.530   3.475   3.329 -1.2996 -0.7703  0.5453
 5853TIP3   OH239049   5.242   6.758  13.850  0.1704 -0.3804  0.1201
 5853TIP3    H139050   5.283   6.827  13.799 -0.6361 -0.5960 -0.8542
 5853TIP3    H239051   5.291   6.678  13.829  0.0166 -0.4171 -0.1011
 5854TIP3   OH239052   5.849   3.773   1.074  0.0457 -0.4528  0.1316
 5854TIP3    H139053   5.917   3.829   1.111 -0.0799  0.0010 -0.3106
 5854TIP3    H239054   5.854   3.787   0.980 -2.4850  1.8034  0.1911
 5855TIP3   OH239055   1.410   3.001  11.127 -0.6054 -0.2946 -0.6105
 5855TIP3    H139056   1.398   2.911  11.097  0.8249 -0.5057 -0.6336
 5855TIP3    H239057   1.338   3.049  11.088 -0.2848 -1.0640 -2.2462
 5856TIP3   OH239058   1.288   2.043  11.772 -0.6249  0.4433  0.2190
 5856TIP3    H139059   1.377   2.077  11.774 -0.6578  0.5109  1.2654
 5856TIP3    H239060   1.285   1.986  11.695  0.9578 -1.2033  1.2909
 5857TIP3   OH239061   6.347   1.613   2.145 -0.0274 -0.1239 -0.1213
 5857TIP3    H139062   6.305   1.697   2.123  0.7544  0.0263 -1.1396
 5857TIP3    H239063   6.386   1.627   2.231 -0.8830  0.1710  0.2328
 5858TIP3   OH239064   6.303   2.055   4.591  0.1051 -0.1908  0.9287
 5858TIP3    H139065   6.369   1.986   4.592  0.5204  0.1448 -0.8513
 5858TIP3    H239066   6.270   2.056   4.502 -1.1110  0.7910  1.3597
 5859TIP3   OH239067   3.640   4.357  17.391  0.1092 -0.2213 -0.5478
 5859TIP3    H139068   3.573   4.317  17.335 -1.4441 -0.2211  1.2020
 5859TIP3    H239069   3.640   4.303  17.470  0.4774  1.1821  0.4359
 5860TIP3   OH239070   3.288   2.012  11.472  0.1643  0.5390 -0.9710
 5860TIP3    H139071   3.342   1.937  11.497 -2.3736 -0.3136  2.7125
 5860TIP3    H239072   3.275   2.002  11.378  0.3544 -3.3811 -0.7282
 5861TIP3   OH239073   3.776   5.291   4.048  0.1272  0.2963 -0.0473
 5861TIP3    H139074   3.754   5.204   4.016 -0.2105 -0.1897  1.3950
 5861TIP3    H239075   3.699   5.319   4.097  1.8316 -0.6413  3.5201
 5862TIP3   OH239076   5.273   1.361   5.573  0.3724 -0.1043  0.0156
 5862TIP3    H139077   5.232   1.282   5.609 -2.2669  0.8258 -0.7313
 5862TIP3    H239078   5.248   1.361   5.480  1.0284  1.2189 -0.1859
 5863TIP3   OH239079   1.364   3.326   1.131 -0.0490  0.4163 -0.3915
 5863TIP3    H139080   1.354   3.370   1.216  3.0437 -0.2968  0.4721
 5863TIP3    H239081   1.378   3.234   1.154  1.6377  0.3376 -1.5836
 5864TIP3   OH239082   4.223   4.581  16.475 -0.1178  0.0143 -0.0734
 5864TIP3    H139083   4.262   4.658  16.516 -1.3161  1.0628 -0.8089
 5864TIP3    H239084   4.183   4.615  16.395 -1.5338 -1.1981  0.0845
 5865TIP3   OH239085   6.459   0.621   1.356  0.2006 -0.0201  0.2364
 5865TIP3    H139086   6.442   0.554   1.290  0.5968 -0.3815  0.5030
 5865TIP3    H239087   6.373   0.635   1.398  0.2598 -0.8791  0.6676
 5866TIP3   OH239088   6.702   3.307   1.955  0.0990 -0.0286 -0.3153
 5866TIP3    H139089   6.682   3.353   1.873 -1.7794  0.1894  0.2159
 5866TIP3    H239090   6.631   3.244   1.965  0.3532 -0.1305  1.0953
 5867TIP3   OH239091   6.534   0.801  11.547  0.7291  0.4047  0.9966
 5867TIP3    H139092   6.602   0.735  11.557  0.9868  0.6048  0.6032
 5867TIP3    H239093   6.560   0.872  11.605  0.9939  0.5877  0.6586
 5868TIP3   OH239094   6.221   3.182  15.981  0.0829 -0.3432 -0.1496
 5868TIP3    H139095   6.143   3.237  15.970 -0.4248 -1.1222 -0.5947
 5868TIP3    H239096   6.276   3.204  15.906  0.4499  0.4575  0.3516
 5869TIP3   OH239097   2.217   2.172   0.748 -0.5503  0.0120  0.0806
 5869TIP3    H139098   2.189   2.143   0.662  0.5935  0.9323 -0.6356
 5869TIP3    H239099   2.174   2.257   0.760  1.8003  1.4694 -1.0580
 5870TIP3   OH239100   4.422   2.715  12.821  0.7284  0.1095  0.5652
 5870TIP3    H139101   4.352   2.657  12.790  0.2269  0.5157  0.9283
 5870TIP3    H239102   4.503   2.667  12.801  0.5558  0.9640 -2.7998
 5871TIP3   OH239103   4.626   5.970  13.336  0.0161  0.0187  0.2529
 5871TIP3    H139104   4.717   5.993  13.315  0.2931  0.7940  2.1046
 5871TIP3    H239105   4.631   5.930  13.423 -1.2796 -1.0987 -0.1595
 5872TIP3   OH239106   0.531   0.076   2.818 -0.6293 -0.1520  0.5057
 5872TIP3    H139107   0.604   0.121   2.775 -2.3644  0.2270 -2.2603
 5872TIP3    H239108   0.562  -0.014   2.828  0.0119 -0.1849 -1.3006
 5873TIP3   OH239109   1.179   1.674   1.513 -0.5073  0.1638  0.0224
 5873TIP3    H139110   1.091   1.635   1.509 -0.2123 -0.4403 -0.9689
 5873TIP3    H239111   1.164   1.764   1.540 -1.3684 -0.1405  0.5975
 5874TIP3   OH239112   6.574   3.220  11.364 -0.1405  0.4198  0.2281
 5874TIP3    H139113   6.612   3.160  11.300 -0.6160  1.1441 -0.7614
 5874TIP3    H239114   6.600   3.184  11.449  1.6747  0.2089 -0.3834
 5875TIP3   OH239115   3.329   0.394  13.638 -0.2627 -0.2391 -0.3641
 5875TIP3    H139116   3.405   0.407  13.695 -1.4934  1.5921  0.9642
 5875TIP3    H239117   3.348   0.446  13.560  0.3438 -0.7523 -0.5691
 5876TIP3   OH239118   3.080   5.058   2.278 -0.4440 -0.2945 -0.1617
 5876TIP3    H139119   3.113   4.994   2.214 -0.7807 -1.7588  1.0644
 5876TIP3    H239120   3.141   5.051   2.352  1.0848  2.7430 -0.9434
 5877TIP3   OH239121   4.971   5.090   1.648  0.3346 -0.3205 -0.4060
 5877TIP3    H139122   5.024   5.151   1.595  0.0085 -0.7346 -1.2284
 5877TIP3    H239123   4.889   5.081   1.599  0.9996 -2.7126 -1.2124
 5878TIP3   OH239124   6.450   2.294   2.819 -0.1425  0.3903  0.1017
 5878TIP3    H139125   6.528   2.275   2.767 -1.7150 -1.4195 -1.7640
 5878TIP3    H239126   6.474   2.371   2.870  1.5244  2.4243 -3.3668
 5879TIP3   OH239127   4.536   0.757  14.558  0.3467 -0.1267 -0.0866
 5879TIP3    H139128   4.446   0.730  14.574  0.3930  0.0874  0.5823
 5879TIP3    H239129   4.530   0.827  14.493  0.1012 -0.6708 -0.6539
 5880TIP3   OH239130   4.604   6.092   5.040 -0.6255 -0.2086 -0.1306
 5880TIP3    H139131   4.625   6.047   4.958  0.7898 -0.2760  0.2323
 5880TIP3    H239132   4.599   6.185   5.016  1.2710 -0.0423 -0.0968
 5881TIP3   OH239133   2.722   1.498   2.638  0.0216  0.1189  0.1941
 5881TIP3    H139134   2.717   1.503   2.734  0.0572  0.0393  0.1998
 5881TIP3    H239135   2.813   1.521   2.618  0.8954 -2.7345  0.3669
 5882TIP3   OH239136   1.054   6.416   0.199  0.3630  0.0320 -0.9200
 5882TIP3    H139137   1.097   6.424   0.113 -1.2735 -0.3249 -1.8060
 5882TIP3    H239138   1.098   6.481   0.253  0.1227  1.6895 -2.5938
 5883TIP3   OH239139   0.538   4.036  16.987  0.0908 -0.7551  0.0863
 5883TIP3    H139140   0.462   4.013  17.041 -1.3055  1.3306 -0.8865
 5883TIP3    H239141   0.611   3.991  17.029 -1.7167 -3.2984  0.7689
 5884TIP3   OH239142   5.184   2.121   0.348  0.0952  0.2745 -0.5476
 5884TIP3    H139143   5.245   2.151   0.416 -0.8541  0.1067  0.4070
 5884TIP3    H239144   5.170   2.197   0.293 -1.5232  1.3932  1.2771
 5885TIP3   OH239145   0.067   1.478   4.887 -0.5657  0.1553  0.1522
 5885TIP3    H139146   0.056   1.527   4.969 -0.9513  1.5097 -0.6658
 5885TIP3    H239147   0.015   1.527   4.823 -0.5017 -1.0328 -0.8455
 5886TIP3   OH239148   0.534   1.979  11.835 -0.0858  0.1826 -0.2089
 5886TIP3    H139149   0.454   1.999  11.884  0.4658 -0.6706  1.1005
 5886TIP3    H239150   0.605   1.998  11.897  0.6445 -0.6641 -0.7605
 5887TIP3   OH239151   4.384   1.644  15.527  0.0979 -0.3796  0.0704
 5887TIP3    H139152   4.411   1.727  15.565 -0.4196 -0.6578  1.0763
 5887TIP3    H239153   4.447   1.628  15.456  1.3887 -0.0965  1.1291
 5888TIP3   OH239154   0.893   4.054  14.957  0.0732 -0.5416 -0.3269
 5888TIP3    H139155   0.948   4.132  14.966  1.4037 -1.4766  0.0657
 5888TIP3    H239156   0.824   4.080  14.896  0.3033  1.0242  0.0282
 5889TIP3   OH239157   0.914   3.299   5.143 -0.1592 -0.0515 -0.3899
 5889TIP3    H139158   0.899   3.205   5.133 -2.2966  0.0679  1.1680
 5889TIP3    H239159   0.903   3.316   5.237  0.5209  1.7123 -0.5833
 5890TIP3   OH239160   4.238   6.068  15.550  0.2810  0.1354  0.2600
 5890TIP3    H139161   4.296   6.123  15.602  2.1977 -1.8182  0.3522
 5890TIP3    H239162   4.168   6.043  15.610  1.2798 -0.3091  1.2916
 5891TIP3   OH239163   3.759   2.725   4.859  0.0025  0.3072  0.5623
 5891TIP3    H139164   3.831   2.768   4.904  0.2385  1.8082 -1.1533
 5891TIP3    H239165   3.752   2.770   4.775 -1.7903 -0.9769 -0.0486
 5892TIP3   OH239166   2.753   2.351  13.608  0.4158 -0.3116  0.3306
 5892TIP3    H139167   2.661   2.374  13.619  0.8582  0.4924  3.0447
 5892TIP3    H239168   2.754   2.255  13.607 -0.3993 -0.3333  0.9519
 5893TIP3   OH239169   5.443   2.498  13.027  0.1982 -0.3243  0.4625
 5893TIP3    H139170   5.507   2.430  13.045 -0.0733 -0.7297 -0.0594
 5893TIP3    H239171   5.475   2.575  13.073  1.3256 -0.3794 -0.1980
 5894TIP3   OH239172   1.237   3.219  15.701  0.5484 -0.2336  0.0615
 5894TIP3    H139173   1.218   3.309  15.728 -0.5449 -0.3333 -0.3030
 5894TIP3    H239174   1.235   3.168  15.782 -0.8210 -0.2291  0.0641
 5895TIP3   OH239175   3.545   4.892  16.973  0.2730  0.2714 -0.0983
 5895TIP3    H139176   3.505   4.865  16.890 -0.6827 -0.4622  0.5817
 5895TIP3    H239177   3.582   4.811  17.009 -1.7501 -0.0357  1.4908
 5896TIP3   OH239178   2.913   2.683  16.431  0.1068  0.0905  0.1158
 5896TIP3    H139179   3.000   2.653  16.404  0.1861 -0.0027  0.4680
 5896TIP3    H239180   2.853   2.617  16.397  0.0475  0.8074 -1.2276
 5897TIP3   OH239181   5.115   6.390  16.181  0.0134  0.0861 -0.1553
 5897TIP3    H139182   5.129   6.380  16.276  0.0772  1.9848  0.0799
 5897TIP3    H239183   5.201   6.416  16.147  0.3200 -1.8654 -0.9893
 5898TIP3   OH239184   5.860   6.441  16.508 -0.5640  0.0517  0.1155
 5898TIP3    H139185   5.949   6.458  16.538  0.2376 -1.4959 -1.2186
 5898TIP3    H239186   5.852   6.492  16.427  0.6961 -2.9483 -2.0931
 5899TIP3   OH239187   6.724   2.554  14.725  0.4463  0.1893  0.5634
 5899TIP3    H139188   6.719   2.460  14.709  1.1463  0.3821 -0.9594
 5899TIP3    H239189   6.814   2.577  14.702  0.3537  1.1880  1.1722
 5900TIP3   OH239190   5.134   1.268  12.153 -0.3997 -0.0071  0.3359
 5900TIP3    H139191   5.193   1.225  12.091 -0.6363  1.4042 -0.9275
 5900TIP3    H239192   5.188   1.334  12.196 -0.3217 -0.7591  1.4292
 5901TIP3   OH239193   0.839   6.216  14.709 -0.4235  0.0205 -0.5508
 5901TIP3    H139194   0.882   6.131  14.700  1.1577  0.9351 -2.3215
 5901TIP3    H239195   0.911   6.277  14.729 -1.6277  0.8572  1.5317
 5902TIP3   OH239196   4.568   6.169  11.006 -0.0276  0.3295 -0.3490
 5902TIP3    H139197   4.588   6.111  10.933 -0.8801 -0.3888 -0.0296
 5902TIP3    H239198   4.541   6.111  11.077  2.1476  0.8836  1.0609
 5903TIP3   OH239199   1.281   3.520   5.352 -0.8122 -0.0296 -0.2618
 5903TIP3    H139200   1.298   3.601   5.303 -0.2091 -0.2069 -0.3542
 5903TIP3    H239201   1.222   3.471   5.295  0.0090 -0.3042 -0.9046
 5904TIP3   OH239202   5.092   2.822  17.318 -0.2683 -0.0944  0.0564
 5904TIP3    H139203   5.170   2.785  17.276 -0.4479  1.3872 -1.6843
 5904TIP3    H239204   5.112   2.915  17.328 -2.0171  0.4154 -0.9280
 5905TIP3   OH239205   1.240   2.628  16.463 -0.0240  0.1288  0.0294
 5905TIP3    H139206   1.183   2.622  16.540  0.7126  0.8600  0.6496
 5905TIP3    H239207   1.188   2.677  16.400 -0.9159 -1.1010 -0.2218
 5906TIP3   OH239208   3.307   0.083  12.481  0.6265 -0.4249  0.1282
 5906TIP3    H139209   3.310   0.006  12.423  2.9707 -0.8450  0.7199
 5906TIP3    H239210   3.381   0.072  12.540  0.0173  1.4699  1.3340
 5907TIP3   OH239211   2.850   6.072   3.709 -0.0797 -0.2959 -0.1834
 5907TIP3    H139212   2.937   6.033   3.714  0.0585  0.1385  1.4831
 5907TIP3    H239213   2.867   6.164   3.686 -0.0633 -0.1343  0.4592
 5908TIP3   OH239214   1.739   3.447  16.142  0.4192  0.2121 -0.1067
 5908TIP3    H139215   1.788   3.428  16.062  1.7447  0.9603  0.5000
 5908TIP3    H239216   1.760   3.375  16.201  0.7432  0.4992  0.1310
 5909TIP3   OH239217   0.290   5.531   2.961 -0.7702 -0.0181 -0.9313
 5909TIP3    H139218   0.309   5.439   2.978 -0.0281 -0.0609 -1.9398
 5909TIP3    H239219   0.337   5.578   3.030 -0.6139 -0.3569 -0.8058
 5910TIP3   OH239220   6.230   3.897  13.482  0.0230 -0.5442 -0.2727
 5910TIP3    H139221   6.224   3.809  13.445  1.3825 -0.2268 -1.3203
 5910TIP3    H239222   6.319   3.926  13.462 -1.0461  1.9275 -1.9270
 5911TIP3   OH239223   3.546   2.102  16.407  0.1053 -0.0210 -0.0972
 5911TIP3    H139224   3.635   2.069  16.394  0.5658  1.1432  0.0141
 5911TIP3    H239225   3.514   2.119  16.319 -0.2026 -0.9113 -0.1673
 5912TIP3   OH239226   4.716   6.088  15.208  0.2679 -0.3726 -0.7020
 5912TIP3    H139227   4.721   6.082  15.112  0.7525  0.7113 -0.7627
 5912TIP3    H239228   4.714   6.182  15.226  0.6501 -0.5542  0.3758
 5913TIP3   OH239229   5.032   5.695  11.652  0.3508  0.5543 -0.2436
 5913TIP3    H139230   5.076   5.669  11.733  1.9214  1.3318 -0.8136
 5913TIP3    H239231   4.942   5.715  11.679  0.3059 -1.0397  0.9601
 5914TIP3   OH239232   0.586   1.467  12.678 -0.3547  0.1369  0.0014
 5914TIP3    H139233   0.625   1.492  12.762  0.5349  1.1672 -0.6978
 5914TIP3    H239234   0.522   1.536  12.660  0.1773  0.4727 -0.6406
 5915TIP3   OH239235   0.328   3.456  14.273  0.2286 -0.6802  0.0502
 5915TIP3    H139236   0.299   3.402  14.200  0.8577 -0.7756 -0.1373
 5915TIP3    H239237   0.400   3.508  14.238  1.4771 -1.7287  0.9446
 5916TIP3   OH239238   0.111   5.509  12.407  0.6157  0.0608 -0.1876
 5916TIP3    H139239   0.056   5.548  12.475 -0.8955 -0.8816 -0.8241
 5916TIP3    H239240   0.068   5.531  12.325  1.4223 -0.3507 -0.7368
 5917TIP3   OH239241   0.431   4.965   0.336 -0.5644 -0.1632 -0.1740
 5917TIP3    H139242   0.407   5.029   0.403  1.8369  1.3837 -0.6650
 5917TIP3    H239243   0.491   4.905   0.380  0.9176  0.7781 -0.8377
 5918TIP3   OH239244   0.066   4.836   3.793  0.1536  0.6036  0.1312
 5918TIP3    H139245   0.141   4.868   3.842  1.3236 -1.2823 -0.3477
 5918TIP3    H239246   0.044   4.753   3.834 -0.2167  0.0328 -1.1632
 5919TIP3   OH239247   2.158   1.760   1.596 -0.0818  0.4982 -0.1455
 5919TIP3    H139248   2.172   1.678   1.547 -3.0409 -1.0795  1.3520
 5919TIP3    H239249   2.222   1.756   1.667  0.2259 -0.2012 -0.4419
 5920TIP3   OH239250   4.119   6.039  13.879 -0.3467  0.4508  0.2837
 5920TIP3    H139251   4.066   6.118  13.891  1.1385  1.3492  1.0987
 5920TIP3    H239252   4.112   6.020  13.785  1.0933  2.9245 -0.4218
 5921TIP3   OH239253   4.970   4.101   2.425 -0.5557  0.3268 -0.2596
 5921TIP3    H139254   5.051   4.152   2.416 -0.9922  0.7779 -1.7451
 5921TIP3    H239255   4.901   4.166   2.433 -0.7481 -0.0515  1.8181
 5922TIP3   OH239256   5.960   1.530  11.297 -0.3269 -0.1198  0.1546
 5922TIP3    H139257   5.993   1.585  11.369  1.6419 -2.1503  0.9296
 5922TIP3    H239258   6.001   1.567  11.219  0.4123 -0.0284  0.5695
 5923TIP3   OH239259   0.635   2.403   1.394 -0.2663  0.3851 -0.1807
 5923TIP3    H139260   0.550   2.438   1.368  0.8783  1.4802 -2.7359
 5923TIP3    H239261   0.646   2.324   1.341  0.3760  0.3403  0.0024
 5924TIP3   OH239262   4.341   0.165  17.145  0.0832 -0.0887 -0.6052
 5924TIP3    H139263   4.273   0.223  17.109 -1.6619 -0.6513  1.5727
 5924TIP3    H239264   4.312   0.147  17.235  2.7703 -0.9632  0.1799
 5925TIP3   OH239265   6.616   1.167   4.071  0.9170 -0.4225 -0.0407
 5925TIP3    H139266   6.596   1.242   4.127  0.9694  0.3479 -1.0396
 5925TIP3    H239267   6.645   1.099   4.133  0.2837  0.1582  0.9322
 5926TIP3   OH239268   5.406   5.692   6.185  0.2841  0.0070 -0.1724
 5926TIP3    H139269   5.422   5.602   6.158 -0.7035 -0.1846 -0.1244
 5926TIP3    H239270   5.463   5.704   6.261  0.8176 -0.3989 -0.5019
 5927TIP3   OH239271   0.096   0.699   1.377 -0.1952 -0.1219 -0.0760
 5927TIP3    H139272   0.187   0.671   1.384 -0.0058  0.5799  0.3366
 5927TIP3    H239273   0.054   0.665   1.456 -0.0775  0.3420  0.1866
 5928TIP3   OH239274   6.146   5.432  15.551  0.1119 -0.5816  0.4475
 5928TIP3    H139275   6.146   5.376  15.628 -0.4189  1.2782  1.8829
 5928TIP3    H239276   6.054   5.438  15.525  0.1878 -0.5154  0.1847
 5929TIP3   OH239277   0.248   2.190   5.043  0.1496  0.5466  0.4401
 5929TIP3    H139278   0.236   2.096   5.055  0.6682  0.4425  0.1848
 5929TIP3    H239279   0.159   2.225   5.033  0.0150 -0.1587 -1.2404
 5930TIP3   OH239280   3.930   3.684  12.655  0.0672  0.3036 -0.0331
 5930TIP3    H139281   3.927   3.596  12.617 -1.2067  0.6383 -0.7742
 5930TIP3    H239282   3.926   3.669  12.749 -0.7141 -0.4329 -0.1643
 5931TIP3   OH239283   3.985   2.253   4.082  0.6058 -0.2271 -0.2394
 5931TIP3    H139284   3.916   2.314   4.106 -0.3001 -0.7587 -1.3952
 5931TIP3    H239285   3.951   2.167   4.109  2.0508 -0.2293  1.7845
 5932TIP3   OH239286   2.114   3.840   2.916 -0.2546 -0.0741 -0.4490
 5932TIP3    H139287   2.178   3.856   2.847  0.4017 -2.3781 -0.4778
 5932TIP3    H239288   2.030   3.837   2.872  0.1177 -1.1390 -1.1296
 5933TIP3   OH239289   5.381   2.268  15.382  0.1997  0.3878 -0.3554
 5933TIP3    H139290   5.344   2.182  15.363 -1.7785  1.5531 -2.1191
 5933TIP3    H239291   5.459   2.249  15.434 -1.2450 -2.3591  1.0334
 5934TIP3   OH239292   5.127   0.141  14.031 -0.6114  0.0950 -0.5965
 5934TIP3    H139293   5.084   0.091  14.101 -0.4696  1.6991  0.7104
 5934TIP3    H239294   5.162   0.074  13.972  1.0174 -1.4454  1.9051
 5935TIP3   OH239295   5.713   5.749  16.692  0.5250  0.6174  0.4128
 5935TIP3    H139296   5.665   5.680  16.737  1.3743  0.0390  0.4514
 5935TIP3    H239297   5.651   5.784  16.628  0.0321 -0.0544  0.5131
 5936TIP3   OH239298   3.584   1.510   4.745  0.2108 -0.8032 -0.6475
 5936TIP3    H139299   3.629   1.493   4.663  1.6836  1.4156 -0.3897
 5936TIP3    H239300   3.654   1.531   4.807 -1.0314  0.9702  0.2452
 5937TIP3   OH239301   5.978   6.245   4.394  0.3421 -0.3950 -0.1278
 5937TIP3    H139302   6.056   6.286   4.432  1.1042 -0.7764 -1.2071
 5937TIP3    H239303   5.998   6.151   4.394  0.3101 -0.4225 -1.2594
 5938TIP3   OH239304   2.213   6.760   4.735 -0.3457 -0.3216 -0.1986
 5938TIP3    H139305   2.173   6.769   4.649 -1.6626  2.0171  0.5703
 5938TIP3    H239306   2.296   6.806   4.728  1.1875 -3.0485 -1.0953
 5939TIP3   OH239307   2.113   0.215   0.384 -0.7006  0.6935 -0.2717
 5939TIP3    H139308   2.022   0.242   0.377 -0.6574  0.9044 -0.0434
 5939TIP3    H239309   2.140   0.243   0.472 -0.1719  1.3811 -0.6455
 5940TIP3   OH239310   4.782   5.017   5.266 -0.3369 -0.4851 -0.0550
 5940TIP3    H139311   4.750   4.966   5.191  0.2097 -1.7919  0.5681
 5940TIP3    H239312   4.750   4.970   5.342  0.4772 -0.0901  0.5454
 5941TIP3   OH239313   2.186   4.631   5.638  0.1374  0.6160 -0.0609
 5941TIP3    H139314   2.266   4.675   5.666  0.6118 -0.0268 -0.3792
 5941TIP3    H239315   2.173   4.659   5.548  1.4270 -1.2320 -0.8711
 5942TIP3   OH239316   6.603   2.132  13.477 -0.4374  0.4605  0.2915
 5942TIP3    H139317   6.557   2.207  13.439  0.3137  0.9245  0.2929
 5942TIP3    H239318   6.695   2.145  13.455 -0.3114 -0.5361  0.1729
 5943TIP3   OH239319   5.878   3.301  15.377 -0.1658  0.4597  0.0906
 5943TIP3    H139320   5.793   3.343  15.387 -0.7757 -0.4270 -1.1704
 5943TIP3    H239321   5.895   3.302  15.283  0.9847  0.1839  0.2808
 5944TIP3   OH239322   2.168   5.288   0.097  0.1171 -0.6304  0.2357
 5944TIP3    H139323   2.132   5.351   0.160  1.0710  1.0729 -0.8455
 5944TIP3    H239324   2.259   5.316   0.085 -0.2765 -0.2816 -2.5844
 5945TIP3   OH239325   0.201   3.913  12.774 -0.7122  0.0881 -0.2290
 5945TIP3    H139326   0.167   3.964  12.701  0.0718  0.4531 -0.3418
 5945TIP3    H239327   0.251   3.975  12.827 -2.1021  0.0725  1.2027
 5946TIP3   OH239328   5.880   2.305  16.780  0.5496  0.4425 -0.1075
 5946TIP3    H139329   5.792   2.278  16.805  0.5255  0.9119  0.3359
 5946TIP3    H239330   5.915   2.230  16.731 -0.5167  0.7118 -1.3241
 5947TIP3   OH239331   5.329   2.960  15.278  0.4137 -0.2245 -0.6579
 5947TIP3    H139332   5.287   3.018  15.342 -1.2565  0.4577 -2.2933
 5947TIP3    H239333   5.409   2.932  15.321 -0.8117 -0.1154  1.9015
 5948TIP3   OH239334   6.587   2.460  12.458 -0.5359 -0.4369 -0.1546
 5948TIP3    H139335   6.608   2.483  12.549  0.1758 -0.9752 -0.1743
 5948TIP3    H239336   6.638   2.523  12.405 -0.9637 -0.1123 -0.1858
 5949TIP3   OH239337   5.328   0.314  12.871 -0.2441 -0.4077  0.2378
 5949TIP3    H139338   5.353   0.242  12.928 -1.6855 -1.4282 -0.3630
 5949TIP3    H239339   5.250   0.352  12.911 -0.7477 -0.5683 -0.5509
 5950TIP3   OH239340   4.076   5.415   5.938  0.1719 -0.1926  0.1119
 5950TIP3    H139341   4.049   5.324   5.926 -0.5857 -0.2150  1.7668
 5950TIP3    H239342   4.116   5.439   5.854 -1.8112 -1.2638 -1.2133
 5951TIP3   OH239343   3.309   1.910   1.833  0.1058 -0.3461  0.2672
 5951TIP3    H139344   3.251   1.908   1.757  0.7186  0.0393 -0.2135
 5951TIP3    H239345   3.252   1.886   1.906 -1.0894  1.6905  0.0894
 5952TIP3   OH239346   5.984   4.753  11.490  0.5592 -0.3648 -0.3293
 5952TIP3    H139347   6.001   4.779  11.580 -0.6878 -1.1346  0.1457
 5952TIP3    H239348   6.060   4.786  11.441  1.0289  0.4590  0.9092
 5953TIP3   OH239349   0.104   3.627   4.138  0.1443 -0.2151  0.1015
 5953TIP3    H139350   0.038   3.618   4.070 -0.9753 -0.0182  1.1232
 5953TIP3    H239351   0.077   3.565   4.206 -1.2805  2.5296  2.2665
 5954TIP3   OH239352   0.679   4.009  17.420 -0.5887  0.2502  0.4047
 5954TIP3    H139353   0.594   3.976  17.392 -0.9527  2.1444 -0.9189
 5954TIP3    H239354   0.659   4.068  17.493 -0.4027  0.5109  0.2489
 5955TIP3   OH239355   5.300   2.019   2.236 -0.2560  0.3197  0.4703
 5955TIP3    H139356   5.248   2.074   2.177  0.5232 -1.0402 -1.6142
 5955TIP3    H239357   5.372   2.076   2.264  0.3126  0.5751 -1.3248
 5956TIP3   OH239358   3.415   6.107  12.766 -0.1757 -0.5342 -0.2900
 5956TIP3    H139359   3.345   6.166  12.741 -1.4296 -1.9674 -0.3163
 5956TIP3    H239360   3.417   6.110  12.861  1.1224  1.0082 -0.3177
 5957TIP3   OH239361   2.735   0.493   3.816 -0.2151  0.1038 -0.0296
 5957TIP3    H139362   2.715   0.587   3.814 -0.3162  0.1065  0.8637
 5957TIP3    H239363   2.649   0.450   3.818 -0.1688 -0.0052 -0.4230
 5958TIP3   OH239364   6.275   4.352  15.009 -0.0161 -0.6267  0.1776
 5958TIP3    H139365   6.260   4.321  14.920  0.3589  0.3770 -0.2497
 5958TIP3    H239366   6.238   4.284  15.065  0.6027 -1.7254 -0.7177
 5959TIP3   OH239367   1.427   3.229   3.184  0.4029 -0.9137  0.3821
 5959TIP3    H139368   1.414   3.319   3.154  2.1682 -0.6182  0.4080
 5959TIP3    H239369   1.339   3.192   3.188 -0.3531  0.8013  0.3477
 5960TIP3   OH239370   0.211   1.085   0.097  0.5718  0.2569 -0.4619
 5960TIP3    H139371   0.211   1.063   0.003 -0.4737  0.7818 -0.5906
 5960TIP3    H239372   0.273   1.022   0.135  0.3402 -0.5520 -1.3597
 5961TIP3   OH239373   3.681   0.376  14.066  0.3269 -0.5390 -0.1995
 5961TIP3    H139374   3.766   0.383  14.021 -0.1453 -0.7186 -1.1325
 5961TIP3    H239375   3.680   0.288  14.103  0.4315 -0.6291 -0.4129
 5962TIP3   OH239376   4.779   2.387   1.691 -0.0663  0.2571  0.2626
 5962TIP3    H139377   4.758   2.365   1.782  1.7723  0.0482  0.6804
 5962TIP3    H239378   4.696   2.379   1.645 -1.0772  0.5175  1.9437
 5963TIP3   OH239379   1.197   3.612   4.428 -0.3095 -0.3049 -0.1396
 5963TIP3    H139380   1.267   3.663   4.387  0.3624 -0.6176  0.5978
 5963TIP3    H239381   1.204   3.633   4.521 -2.2150  0.8884 -0.2176
 5964TIP3   OH239382   5.691   4.703  14.249  0.1891  0.1772 -0.0164
 5964TIP3    H139383   5.674   4.675  14.159 -0.5928 -1.3562  0.5697
 5964TIP3    H239384   5.786   4.696  14.259  0.3571  1.0106 -0.9059
 5965TIP3   OH239385   0.322   3.750   3.664  0.3050  0.1082 -0.1071
 5965TIP3    H139386   0.336   3.690   3.737  1.5551  0.0868 -0.3416
 5965TIP3    H239387   0.409   3.784   3.644 -0.3288  1.7702 -0.1808
 5966TIP3   OH239388   2.675   3.937  13.325  0.5945 -1.1479  0.5951
 5966TIP3    H139389   2.677   3.846  13.296  1.5784  0.0963 -4.1321
 5966TIP3    H239390   2.602   3.976  13.278 -0.1515  0.4819  2.9384
 5967TIP3   OH239391   6.243   3.637  14.713 -0.4448 -0.4552  0.3148
 5967TIP3    H139392   6.257   3.542  14.718 -0.9495 -0.4621  1.9769
 5967TIP3    H239393   6.248   3.657  14.619  0.5872 -1.9753  0.0185
 5968TIP3   OH239394   1.300   6.741  17.175  0.1791  0.1126 -0.0435
 5968TIP3    H139395   1.356   6.667  17.149 -0.2595 -0.0761 -0.4557
 5968TIP3    H239396   1.221   6.700  17.209  0.4753  0.3688  0.9946
 5969TIP3   OH239397   5.602   4.747  16.726 -0.4451 -0.2977  0.0071
 5969TIP3    H139398   5.581   4.680  16.791  0.3200  3.1918  4.3128
 5969TIP3    H239399   5.524   4.802  16.722  0.4772  1.0594  0.1084
 5970TIP3   OH239400   6.275   3.216  11.694 -0.1053  0.2598  0.1721
 5970TIP3    H139401   6.354   3.198  11.744  0.0939 -1.4995 -0.6887
 5970TIP3    H239402   6.285   3.164  11.614 -1.8548  0.4534 -0.2180
 5971TIP3   OH239403   6.626   2.999  14.561  0.2616  0.5335 -0.2972
 5971TIP3    H139404   6.654   3.084  14.528 -0.5454  0.6265 -0.7592
 5971TIP3    H239405   6.676   2.987  14.642  1.7526  0.6123 -1.1708
 5972TIP3   OH239406   4.889   2.474   3.266  0.1806 -0.1539 -0.0059
 5972TIP3    H139407   4.873   2.417   3.342  1.4621 -0.8260 -0.2121
 5972TIP3    H239408   4.929   2.552   3.303 -2.1419  0.9638  0.3538
 5973TIP3   OH239409   1.819   1.179  15.245  0.4670  0.3482 -0.7547
 5973TIP3    H139410   1.748   1.164  15.308  0.3772  0.4827 -0.8233
 5973TIP3    H239411   1.799   1.122  15.172  2.6869 -2.9507  0.9487
 5974TIP3   OH239412   2.971   5.062  12.064  0.4549  0.4832 -0.5274
 5974TIP3    H139413   3.005   5.037  11.978 -0.0401  1.0076 -0.8762
 5974TIP3    H239414   2.915   5.138  12.048  0.0649  0.3643  0.2100
 5975TIP3   OH239415   5.830   4.085  16.808 -0.0340  0.1511  1.0419
 5975TIP3    H139416   5.835   4.080  16.903  2.9698  2.1049  1.1403
 5975TIP3    H239417   5.854   4.175  16.787  2.1300 -0.8846 -1.6123
 5976TIP3   OH239418   5.379   5.762  10.756  0.6745  0.2769  0.2116
 5976TIP3    H139419   5.359   5.672  10.729 -1.0447  0.8526 -0.5711
 5976TIP3    H239420   5.470   5.775  10.730  0.8965 -1.1821  0.1821
 5977TIP3   OH239421   5.659   1.609   4.095 -0.4330 -0.5038  0.2370
 5977TIP3    H139422   5.625   1.665   4.025  0.8674 -0.1174 -0.1194
 5977TIP3    H239423   5.725   1.663   4.139 -1.6353 -0.5155  2.1882
 5978TIP3   OH239424   0.493   5.876   1.328  0.6299 -0.1054 -0.6699
 5978TIP3    H139425   0.398   5.870   1.328  0.6160 -0.1298  0.2986
 5978TIP3    H239426   0.520   5.834   1.246 -0.2080  0.3508 -1.1906
 5979TIP3   OH239427   4.849   2.445  14.779 -0.4696  0.3271  0.0436
 5979TIP3    H139428   4.811   2.509  14.840  0.2704  0.2649  0.5820
 5979TIP3    H239429   4.773   2.405  14.738 -0.9696  0.9447  0.3307
 5980TIP3   OH239430   1.173   6.035  11.813 -0.1781 -0.2341  0.0463
 5980TIP3    H139431   1.241   6.102  11.805 -1.2596  1.1228  1.7232
 5980TIP3    H239432   1.117   6.049  11.736  1.1910 -1.1578 -1.1768
 5981TIP3   OH239433   0.023   6.138  14.219  0.5938  0.4752  0.4305
 5981TIP3    H139434   0.029   6.078  14.144  1.3544  0.4865  0.4684
 5981TIP3    H239435  -0.064   6.123  14.255 -0.0253  0.9064 -0.8154
 5982TIP3   OH239436   1.734   6.600   2.426 -0.1695 -0.8069  0.3876
 5982TIP3    H139437   1.650   6.554   2.429 -2.2355  2.6168  1.3986
 5982TIP3    H239438   1.765   6.599   2.517 -0.4681  0.0808  0.5117
 5983TIP3   OH239439   5.319   0.741   3.304 -0.3470 -0.0418  0.0305
 5983TIP3    H139440   5.402   0.693   3.308 -1.1168 -1.7064 -1.8820
 5983TIP3    H239441   5.252   0.672   3.302 -1.5697  1.1154 -1.8597
 5984TIP3   OH239442   3.178   5.906   5.375  0.4974 -0.3693  0.0312
 5984TIP3    H139443   3.264   5.906   5.332  1.0648 -0.2015  1.1450
 5984TIP3    H239444   3.180   5.984   5.430 -0.1586 -0.6822  0.4938
 5985TIP3   OH239445   4.018   2.580   0.922 -0.3403  0.8423  0.5856
 5985TIP3    H139446   3.966   2.526   0.863 -2.0310  1.9936  0.9491
 5985TIP3    H239447   4.104   2.586   0.881 -0.5885 -0.7921 -0.2411
 5986TIP3   OH239448   2.869   1.500  17.030  0.2726 -0.6215  0.3345
 5986TIP3    H139449   2.779   1.472  17.013  0.6334 -1.7673  0.2221
 5986TIP3    H239450   2.860   1.582  17.078 -0.8568  1.5771 -3.2295
 5987TIP3   OH239451   3.687   3.692   3.685 -0.5994 -0.6095 -0.3538
 5987TIP3    H139452   3.711   3.771   3.637 -0.4886  0.0822  0.8103
 5987TIP3    H239453   3.740   3.623   3.644  0.5540  0.2195 -0.3259
 5988TIP3   OH239454   2.984   4.428  16.404  0.3642  0.3979 -0.7405
 5988TIP3    H139455   3.057   4.366  16.412  0.1217  0.1829 -0.0900
 5988TIP3    H239456   2.953   4.439  16.494 -1.2637 -0.5266 -1.1516
 5989TIP3   OH239457   0.703   1.814   2.325  0.0603 -0.1341  1.4073
 5989TIP3    H139458   0.715   1.900   2.364 -2.7674  0.9324  0.2037
 5989TIP3    H239459   0.651   1.765   2.389 -1.9026  0.5478  0.4016
 5990TIP3   OH239460   0.147   0.231  14.949 -0.6962 -0.2324  0.3127
 5990TIP3    H139461   0.162   0.141  14.922 -2.7304 -1.2118  2.1799
 5990TIP3    H239462   0.211   0.247  15.018 -2.2354 -1.3783  2.1125
 5991TIP3   OH239463   0.143   1.506   5.414  1.0785  0.3032 -0.2045
 5991TIP3    H139464   0.078   1.507   5.485  1.5931 -0.5541  0.2969
 5991TIP3    H239465   0.096   1.470   5.339  0.3031  1.9532 -0.5553
 5992TIP3   OH239466   1.225   5.334   2.089 -0.2126  0.2407  0.1374
 5992TIP3    H139467   1.162   5.370   2.027  0.5362  0.2018 -0.6743
 5992TIP3    H239468   1.272   5.267   2.039  0.6629  0.4672  0.6354
 5993TIP3   OH239469   2.336   0.526  15.392  0.3152  0.2868 -0.2486
 5993TIP3    H139470   2.271   0.500  15.457  0.5662  0.0799 -0.0757
 5993TIP3    H239471   2.417   0.485  15.422  0.4797  0.3673 -0.5763
 5994TIP3   OH239472   0.532   6.576  12.689 -0.4069 -0.1356 -0.2331
 5994TIP3    H139473   0.443   6.564  12.722  0.0126 -1.1633  0.5783
 5994TIP3    H239474   0.523   6.641  12.619 -1.8706 -0.6324 -0.5433
 5995TIP3   OH239475   0.263   3.134  13.137  0.3471  0.5463 -0.0348
 5995TIP3    H139476   0.348   3.177  13.149  1.7042 -2.0035  0.0789
 5995TIP3    H239477   0.269   3.095  13.050 -0.6126  0.1065  0.0941
 5996TIP3   OH239478   4.648   6.114  16.557  0.2248 -0.2344 -0.2494
 5996TIP3    H139479   4.644   6.115  16.461 -2.1386  2.3227 -0.2131
 5996TIP3    H239480   4.597   6.189  16.585 -1.6012 -2.4645  3.1364
 5997TIP3   OH239481   3.131   5.217   0.722  0.5521  0.5623  0.1676
 5997TIP3    H139482   3.083   5.224   0.640  0.6573  1.5558  0.1829
 5997TIP3    H239483   3.089   5.144   0.768 -2.8137  3.0147  1.3691
 5998TIP3   OH239484   5.979   2.143   6.432  0.0397 -0.0526  0.2974
 5998TIP3    H139485   5.947   2.228   6.402 -0.2700  0.5862  2.2767
 5998TIP3    H239486   5.906   2.107   6.483  0.7441 -0.8005  0.7934
 5999TIP3   OH239487   1.974   4.760   3.739 -1.0388  0.0797 -0.6142
 5999TIP3    H139488   2.022   4.705   3.679 -0.4275  0.3864 -0.4151
 5999TIP3    H239489   1.885   4.725   3.739 -0.1292 -2.5047  1.4203
 6000TIP3   OH239490   3.448   4.498  13.939  0.2772 -0.2748 -0.1422
 6000TIP3    H139491   3.439   4.452  14.022 -1.5175  0.5802  0.1808
 6000TIP3    H239492   3.533   4.543  13.945 -0.2608  0.5966  1.6759
 6001TIP3   OH239493   2.570   6.574   4.182 -0.5479  0.5586 -0.5518
 6001TIP3    H139494   2.523   6.644   4.227 -0.3632 -0.3145  1.0997
 6001TIP3    H239495   2.658   6.577   4.219 -0.2803  0.0372 -1.1281
 6002TIP3   OH239496   0.170   2.118  14.123  0.2996 -0.6986 -1.0195
 6002TIP3    H139497   0.092   2.068  14.148 -0.7212  0.8287 -1.0397
 6002TIP3    H239498   0.244   2.061  14.147 -0.8096 -2.2537 -1.1799
 6003TIP3   OH239499   1.455   6.206   1.531 -0.8572  0.3695 -0.4697
 6003TIP3    H139500   1.550   6.216   1.526 -0.3650 -2.4135  1.0566
 6003TIP3    H239501   1.436   6.133   1.472 -1.9273  0.4140 -0.1972
 6004TIP3   OH239502   2.958   6.344  14.359  0.2621  0.7559 -0.1361
 6004TIP3    H139503   2.975   6.306  14.273 -0.3019 -0.1987  0.1630
 6004TIP3    H239504   2.864   6.337  14.370  0.2620  1.4097  0.3219
 6005TIP3   OH239505   0.192   5.010  16.690  0.5110 -0.1579  0.4103
 6005TIP3    H139506   0.174   4.916  16.683 -0.0212 -0.1762  1.8066
 6005TIP3    H239507   0.287   5.017  16.684  0.5294 -0.7510 -0.0398
 6006TIP3   OH239508   5.484   5.074  17.279  0.4237 -0.6106 -0.0341
 6006TIP3    H139509   5.557   5.136  17.278 -0.1503  0.2398 -3.8268
 6006TIP3    H239510   5.412   5.123  17.318  1.0614 -0.4270  0.9498
 6007TIP3   OH239511   2.764   4.643  11.859  0.0581  0.2186  0.2832
 6007TIP3    H139512   2.808   4.688  11.786  1.0481 -1.3229 -0.1216
 6007TIP3    H239513   2.826   4.648  11.931 -0.3881  0.6197  0.6504
 6008TIP3   OH239514   4.755   5.629  12.207 -0.5561  0.5906 -0.0054
 6008TIP3    H139515   4.682   5.646  12.148 -1.5958 -0.4483  0.9121
 6008TIP3    H239516   4.798   5.551  12.171 -0.6350  0.4920  0.1140
 6009TIP3   OH239517   1.682   5.290   3.080 -0.5464 -0.0147 -0.0576
 6009TIP3    H139518   1.670   5.241   3.161  1.9598  0.8467  0.9024
 6009TIP3    H239519   1.593   5.315   3.054 -1.3777  0.5476  2.9591
 6010TIP3   OH239520   6.608   2.886   2.507 -0.0267 -0.0600  0.1604
 6010TIP3    H139521   6.554   2.842   2.442  1.5624 -1.4932 -0.2647
 6010TIP3    H239522   6.602   2.979   2.485 -0.7310 -0.3799 -1.0858
 6011TIP3   OH239523   3.071   0.851  14.693 -0.2227  0.1377 -0.0451
 6011TIP3    H139524   3.101   0.766  14.659 -0.2645  0.0975  0.0180
 6011TIP3    H239525   3.043   0.899  14.615  2.6182  1.2789 -0.4950
 6012TIP3   OH239526   2.158   4.209  15.292  0.0466 -0.3646  0.4052
 6012TIP3    H139527   2.253   4.212  15.283  0.0460 -1.2419  0.0560
 6012TIP3    H239528   2.143   4.164  15.375 -0.0635  0.6298  0.9430
 6013TIP3   OH239529   6.475   4.078  16.108  0.3185  1.0474  1.0444
 6013TIP3    H139530   6.480   3.983  16.115 -0.8340  1.0079  1.4750
 6013TIP3    H239531   6.536   4.109  16.176  2.5729  0.6646 -0.6785
 6014TIP3   OH239532   1.623   1.819   4.899  0.5813  0.0430 -0.3499
 6014TIP3    H139533   1.561   1.767   4.950  1.1409 -0.5127 -0.2083
 6014TIP3    H239534   1.624   1.779   4.812 -0.9182  1.4428 -1.0581
 6015TIP3   OH239535   5.934   3.992  15.688 -0.6535 -0.1997  0.6440
 6015TIP3    H139536   5.880   3.996  15.609  0.2190  2.0366  0.0755
 6015TIP3    H239537   5.968   3.902  15.689  1.2385  0.2913 -2.9490
 6016TIP3   OH239538   0.116   2.898  12.619  0.4233 -0.1290 -0.0455
 6016TIP3    H139539   0.165   2.816  12.627 -0.8472 -0.8465  0.6407
 6016TIP3    H239540   0.160   2.957  12.680 -0.2307 -1.1251  1.4658
 6017TIP3   OH239541   0.453   3.986   6.109 -0.2344  0.2580 -0.4293
 6017TIP3    H139542   0.393   4.043   6.157 -1.2994  0.4120 -1.8846
 6017TIP3    H239543   0.409   3.901   6.107 -0.1367  0.2179 -0.9989
 6018TIP3   OH239544   5.978   4.612   5.370  0.1684 -0.0846 -0.2658
 6018TIP3    H139545   6.031   4.663   5.309  0.5737 -0.4100 -0.1874
 6018TIP3    H239546   6.026   4.616   5.453 -0.7919  1.0613  0.2731
 6019TIP3   OH239547   0.648   3.728  12.133 -0.5143 -0.1510  1.0768
 6019TIP3    H139548   0.602   3.786  12.194 -0.4184  2.2719 -0.9740
 6019TIP3    H239549   0.582   3.665  12.106 -1.5636  0.9159  1.0563
 6020TIP3   OH239550   2.305   2.453   2.930  0.3782 -0.8367  0.3413
 6020TIP3    H139551   2.225   2.506   2.938 -0.3348 -1.6503 -0.9121
 6020TIP3    H239552   2.328   2.460   2.837  3.1373  1.2420  1.0578
 6021TIP3   OH239553   6.418   2.465   1.398  0.0393 -0.0528 -0.3291
 6021TIP3    H139554   6.437   2.556   1.374  0.5458  0.2484  1.0958
 6021TIP3    H239555   6.504   2.424   1.409 -0.1384 -0.1015  1.1150
 6022TIP3   OH239556   4.876   5.520   0.351 -0.2003  0.6349  0.5694
 6022TIP3    H139557   4.905   5.606   0.381  0.1190  0.1863  1.6180
 6022TIP3    H239558   4.942   5.460   0.386 -0.3127 -0.0196 -0.3088
 6023TIP3   OH239559   5.539   6.363   0.016  0.0993 -0.6247  0.5011
 6023TIP3    H139560   5.602   6.329  -0.047 -2.3157 -0.4942 -2.2379
 6023TIP3    H239561   5.526   6.454  -0.009 -0.8517 -0.5282  1.2721
 6024TIP3   OH239562   2.970   5.110  12.345 -0.1569 -0.0653 -0.0785
 6024TIP3    H139563   3.014   5.044  12.397  1.9370  1.3150  0.0025
 6024TIP3    H239564   2.988   5.087  12.254  0.4176  0.2811 -0.0546
 6025TIP3   OH239565   2.453   4.758  15.530  0.2181  0.8854  0.0823
 6025TIP3    H139566   2.408   4.790  15.609 -1.7625 -0.1571 -0.5570
 6025TIP3    H239567   2.406   4.678  15.506  1.5735  0.4996 -1.4624
 6026TIP3   OH239568   3.584   5.351  12.085  0.3169  1.1836 -0.0538
 6026TIP3    H139569   3.647   5.316  12.148  0.2717 -1.6078 -1.3957
 6026TIP3    H239570   3.500   5.317  12.115  0.0490  1.3466 -0.6233
 6027TIP3   OH239571   5.249   5.010   3.062 -0.3306 -0.6763  0.3254
 6027TIP3    H139572   5.189   5.083   3.046 -0.1211 -0.3692  0.8959
 6027TIP3    H239573   5.276   5.021   3.153  1.7151  0.0482 -0.3036
 6028TIP3   OH239574   4.384   1.731   4.257  0.1374  0.2942  0.8857
 6028TIP3    H139575   4.294   1.702   4.247 -0.2179  1.7210 -0.7093
 6028TIP3    H239576   4.377   1.824   4.276  1.2547  0.4643  0.5513
 6029TIP3   OH239577   0.727   1.330  13.712 -0.0300 -0.3107 -0.9984
 6029TIP3    H139578   0.683   1.401  13.759  1.3107 -0.1397  0.0792
 6029TIP3    H239579   0.705   1.345  13.620 -2.2178 -0.2846 -0.5247
 6030TIP3   OH239580   0.697   6.342  12.633 -0.3549  0.0409  0.1411
 6030TIP3    H139581   0.652   6.313  12.554  2.3158  1.5068 -2.0808
 6030TIP3    H239582   0.645   6.417  12.664 -0.0052  1.2008 -1.8846
 6031TIP3   OH239583   6.055   3.740  16.625 -0.0701 -0.4080 -0.3688
 6031TIP3    H139584   6.150   3.751  16.629 -0.0681 -0.7004  1.8351
 6031TIP3    H239585   6.042   3.645  16.618 -0.1804 -0.4689  0.5225
 6032TIP3   OH239586   2.329   4.541   5.275  0.0846 -0.1373  0.4756
 6032TIP3    H139587   2.354   4.557   5.183 -0.7210 -0.7914  0.1310
 6032TIP3    H239588   2.333   4.446   5.285 -2.0987 -0.2833  0.4240
 6033TIP3   OH239589   5.913   6.755   5.014 -0.1715 -0.0608  0.3353
 6033TIP3    H139590   5.820   6.734   5.021 -0.0248 -0.9039 -0.0688
 6033TIP3    H239591   5.915   6.846   4.984 -0.8377  0.4611  1.7637
 6034TIP3   OH239592   1.661   6.258   0.297  0.0845 -0.1585  0.1421
 6034TIP3    H139593   1.729   6.324   0.285  0.8913 -0.7740  1.1995
 6034TIP3    H239594   1.608   6.291   0.369 -2.3150  1.5413 -2.1904
 6035TIP3   OH239595   1.292   4.730  13.866 -0.2794 -0.3325  0.3156
 6035TIP3    H139596   1.214   4.778  13.893 -2.1744 -1.3280 -2.8659
 6035TIP3    H239597   1.319   4.773  13.784 -0.5819 -3.0221 -1.3011
 6036TIP3   OH239598   3.649   6.114  12.960 -0.3449 -0.1216  0.5478
 6036TIP3    H139599   3.566   6.122  13.007 -0.5882 -1.3859  0.3938
 6036TIP3    H239600   3.673   6.022  12.972  1.5667  0.4532  1.4582
 6037TIP3   OH239601   5.010   1.844   0.729 -0.1383 -0.0143 -0.3921
 6037TIP3    H139602   5.050   1.920   0.771 -0.6044  0.4210 -0.7184
 6037TIP3    H239603   5.064   1.829   0.651 -0.4600  0.4183 -0.7009
 6038TIP3   OH239604   5.715   6.486   5.004  0.6993 -0.1617  0.6567
 6038TIP3    H139605   5.800   6.519   4.974 -0.0112 -1.2914 -3.2045
 6038TIP3    H239606   5.653   6.553   4.978  0.1059 -0.7826  0.4506
 6039TIP3   OH239607   5.058   0.429  12.983 -0.5673 -0.5888 -0.3887
 6039TIP3    H139608   5.057   0.513  12.938 -0.0987 -0.1173  0.4439
 6039TIP3    H239609   4.969   0.418  13.017 -0.6248 -0.4190 -0.4860
 6040TIP3   OH239610   0.715   5.670   1.799 -0.1188  0.3977 -0.2149
 6040TIP3    H139611   0.710   5.599   1.863 -0.7648 -0.0582 -0.7547
 6040TIP3    H239612   0.637   5.724   1.818  0.0787  0.6622 -0.1527
 6041TIP3   OH239613   5.592   5.377   4.905  0.3119 -0.2094 -0.1439
 6041TIP3    H139614   5.684   5.384   4.879  0.1485  0.9191 -0.4924
 6041TIP3    H239615   5.592   5.316   4.978  0.9860 -2.4163 -1.8674
 6042TIP3   OH239616   5.522   1.323  16.205  0.2112 -0.4132  0.3955
 6042TIP3    H139617   5.510   1.252  16.142  2.0807 -0.2114 -0.2470
 6042TIP3    H239618   5.550   1.398  16.152 -1.0374  0.6254  1.1450
 6043TIP3   OH239619   3.572   6.007  16.794 -0.3354  0.0463  0.3582
 6043TIP3    H139620   3.579   6.049  16.879  1.2638  0.2980  0.1289
 6043TIP3    H239621   3.539   6.075  16.736  0.1387  0.3615  0.4514
 6044TIP3   OH239622   1.489   6.009  14.723 -0.5203 -0.5182  0.2490
 6044TIP3    H139623   1.438   5.928  14.727 -1.3592 -0.0249 -0.2794
 6044TIP3    H239624   1.457   6.054  14.645 -1.8208  1.5041  1.8692
 6045TIP3   OH239625   0.333   1.433   4.835  0.0318  0.5402 -0.4416
 6045TIP3    H139626   0.248   1.421   4.876  0.1079  1.4916  0.0233
 6045TIP3    H239627   0.315   1.435   4.741 -0.7427  2.6130 -0.2987
 6046TIP3   OH239628   4.264   0.831  14.277 -0.0597 -0.0901 -0.3639
 6046TIP3    H139629   4.228   0.849  14.191 -0.6097  1.1076  0.1062
 6046TIP3    H239630   4.347   0.878  14.279  0.4630 -0.9708 -0.6018
 6047TIP3   OH239631   3.616   0.108  17.250 -0.3485 -0.2083  0.5492
 6047TIP3    H139632   3.560   0.047  17.299 -1.2704  0.0973 -0.0863
 6047TIP3    H239633   3.571   0.119  17.167 -0.1492  1.2606  0.6162
 6048TIP3   OH239634   2.021   0.925   0.348 -0.1885  0.0052 -0.6059
 6048TIP3    H139635   1.975   0.954   0.427  1.4645  2.2896 -0.3863
 6048TIP3    H239636   2.090   0.868   0.380 -0.3793 -0.2050 -0.5617
 6049TIP3   OH239637   4.741   6.375  16.674 -0.0932 -0.4421 -0.0576
 6049TIP3    H139638   4.727   6.415  16.589  2.2435  0.9884  0.1557
 6049TIP3    H239639   4.836   6.366  16.682 -0.1921  0.0504  2.6199
 6050TIP3   OH239640   6.535   2.515   0.870 -0.0146 -0.3571 -0.3020
 6050TIP3    H139641   6.595   2.446   0.900  1.9787 -0.0569 -3.1623
 6050TIP3    H239642   6.464   2.468   0.827  0.4652 -0.6803 -0.7556
 6051TIP3   OH239643   3.260   2.521  11.980  0.2032  0.0981  0.1353
 6051TIP3    H139644   3.293   2.519  11.890  0.4233 -2.2065  0.2055
 6051TIP3    H239645   3.336   2.548  12.032  0.6302 -0.4226 -0.1981
 6052TIP3   OH239646   5.573   5.952  10.483 -0.2470 -0.1153 -0.5367
 6052TIP3    H139647   5.489   5.993  10.463 -0.9792 -0.4495  1.5823
 6052TIP3    H239648   5.565   5.925  10.574  1.8902 -0.8700 -0.5207
 6053TIP3   OH239649   5.286   3.002   0.482  0.2566 -0.3320 -0.6025
 6053TIP3    H139650   5.318   3.092   0.481 -0.5710 -0.0235 -0.7003
 6053TIP3    H239651   5.364   2.948   0.489  0.9422  0.3058 -2.6316
 6054TIP3   OH239652   6.178   0.166   4.989 -0.1466 -0.4979  0.3908
 6054TIP3    H139653   6.217   0.079   4.985 -0.0690 -0.5942  2.1535
 6054TIP3    H239654   6.226   0.210   5.059 -1.7281  0.1270  1.1419
 6055TIP3   OH239655   6.591   1.218   4.452 -0.0534  0.1111  0.5993
 6055TIP3    H139656   6.509   1.167   4.457 -0.6659  1.1697  3.4439
 6055TIP3    H239657   6.567   1.304   4.485  1.6548  1.3337 -1.1634
 6056TIP3   OH239658   6.587   2.060  13.737 -0.3590  0.7725  0.8054
 6056TIP3    H139659   6.550   2.126  13.797  0.0530  1.3381  0.4496
 6056TIP3    H239660   6.580   2.101  13.650 -1.6265 -0.3367  0.3570
 6057TIP3   OH239661   6.474   2.202   0.647 -0.0564  0.6760  0.1624
 6057TIP3    H139662   6.552   2.164   0.688 -0.4203 -0.2113  0.0524
 6057TIP3    H239663   6.449   2.274   0.705 -1.1183 -1.1166  2.0972
 6058TIP3   OH239664   3.006   0.917  15.264  0.4912  0.2188 -0.1391
 6058TIP3    H139665   3.018   0.965  15.182  1.6977  1.0470  0.4926
 6058TIP3    H239666   2.912   0.917  15.279  0.2894  0.3775 -1.3240
 6059TIP3   OH239667   5.576   1.590   6.044 -0.7402 -0.3452 -0.4433
 6059TIP3    H139668   5.529   1.562   6.123 -1.8614 -0.1529 -1.0283
 6059TIP3    H239669   5.660   1.622   6.077 -1.1227 -0.4232  0.6634
 6060TIP3   OH239670   0.644   4.315   2.712 -0.6825  0.1595  0.3790
 6060TIP3    H139671   0.630   4.381   2.780 -0.1775  2.4674 -1.5914
 6060TIP3    H239672   0.569   4.325   2.654  0.7732  1.0470 -1.4525
 6061TIP3   OH239673   0.106   4.085  15.399  0.9847  0.0995  0.4997
 6061TIP3    H139674   0.163   4.153  15.434  0.9513 -0.5672  1.9042
 6061TIP3    H239675   0.034   4.133  15.357  2.4055  0.9431 -1.0877
 6062TIP3   OH239676   0.199   6.417   2.637 -0.0022 -0.4328  0.6882
 6062TIP3    H139677   0.244   6.472   2.701  1.1490 -0.9574  0.3511
 6062TIP3    H239678   0.249   6.429   2.556  0.7541 -2.5382  0.7819
 6063TIP3   OH239679   1.603   6.368  12.968 -1.3572  0.3387  0.7791
 6063TIP3    H139680   1.589   6.322  12.885 -3.9590  0.4009  1.1236
 6063TIP3    H239681   1.695   6.349  12.990 -1.5030 -2.3551 -0.5019
 6064TIP3   OH239682   1.431   0.694   6.336 -0.2748 -0.0012 -0.3312
 6064TIP3    H139683   1.366   0.763   6.335  0.1368  0.3931 -0.5171
 6064TIP3    H239684   1.411   0.641   6.258 -1.2344 -0.7164  0.3876
 6065TIP3   OH239685   0.128   4.528   1.636 -0.6196  0.1950 -0.0909
 6065TIP3    H139686   0.223   4.525   1.645 -0.3912  0.4609 -1.9675
 6065TIP3    H239687   0.099   4.440   1.657  0.3146 -0.5725 -1.8104
 6066TIP3   OH239688   1.819   2.114  12.619  0.4160 -0.0586  0.0339
 6066TIP3    H139689   1.802   2.201  12.656  1.0918 -0.7431  2.0791
 6066TIP3    H239690   1.880   2.130  12.548  0.9715  1.1090  0.7425
 6067TIP3   OH239691   2.934   2.772   3.666  0.2722 -1.1594  0.1800
 6067TIP3    H139692   2.873   2.698   3.662 -1.8760  0.5456 -1.4203
 6067TIP3    H239693   2.887   2.840   3.714  1.1920 -0.0048 -0.4854
 6068TIP3   OH239694   4.866   1.863   5.450  0.0437 -0.4390 -0.1632
 6068TIP3    H139695   4.773   1.846   5.467 -0.0644 -0.7635 -1.0356
 6068TIP3    H239696   4.894   1.790   5.394  1.0946 -0.9034  0.9268
 6069TIP3   OH239697   2.414   1.470  14.873  0.3777 -0.0232  0.0199
 6069TIP3    H139698   2.394   1.378  14.855  1.6669  0.0337 -2.1004
 6069TIP3    H239699   2.463   1.499  14.796  0.2212  2.3902  0.7473
 6070TIP3   OH239700   0.494   2.157  14.994 -0.1777 -0.1996 -0.6927
 6070TIP3    H139701   0.413   2.173  14.945 -1.8923  0.1570  2.0473
 6070TIP3    H239702   0.481   2.201  15.077  2.0858 -1.7177  0.5849
 6071TIP3   OH239703   4.978   6.645   1.192 -0.1039  0.1073  0.2299
 6071TIP3    H139704   4.941   6.603   1.115  2.5043 -1.1799 -0.4474
 6071TIP3    H239705   4.990   6.737   1.166 -0.7010  0.0361 -0.3142
 6072TIP3   OH239706   3.857   2.502   2.589 -0.1589 -0.0164 -0.2648
 6072TIP3    H139707   3.907   2.448   2.527 -1.7037 -1.5852 -0.2202
 6072TIP3    H239708   3.772   2.459   2.595 -0.5013  0.8557  1.9554
 6073TIP3   OH239709   6.249   5.769  17.394 -0.3178  0.1770 -0.0084
 6073TIP3    H139710   6.191   5.844  17.408  0.3343  0.7237 -0.2228
 6073TIP3    H239711   6.189   5.697  17.372 -1.0057  0.4113  1.0269
 6074TIP3   OH239712   4.371   3.549   4.083 -0.1185  0.3390 -0.4726
 6074TIP3    H139713   4.431   3.475   4.084  0.6182  0.7720 -3.6750
 6074TIP3    H239714   4.294   3.517   4.131  1.2972 -1.3941  0.7933
 6075TIP3   OH239715   5.038   0.032   3.646 -0.2481  0.3630  0.1005
 6075TIP3    H139716   5.025  -0.059   3.617 -0.3066 -0.1507  1.6194
 6075TIP3    H239717   4.949   0.066   3.659 -0.2434 -0.2114  1.9118
 6076TIP3   OH239718   6.329   1.274   4.790  0.0753 -0.4853 -0.1344
 6076TIP3    H139719   6.375   1.358   4.786 -0.9714  0.0683 -1.7536
 6076TIP3    H239720   6.395   1.209   4.765  0.0866  0.2842 -2.3958
 6077TIP3   OH239721   4.178   6.393  15.880  0.5079 -0.5416  0.0303
 6077TIP3    H139722   4.110   6.456  15.902 -1.1069 -2.4999  1.0724
 6077TIP3    H239723   4.129   6.319  15.843  1.7992 -2.7146  2.3610
 6078TIP3   OH239724   2.533   2.896  13.873 -0.5002 -0.1386  0.1932
 6078TIP3    H139725   2.568   2.959  13.810 -0.2751  0.4839  0.9161
 6078TIP3    H239726   2.444   2.878  13.842  0.0720 -0.8924 -1.0447
 6079TIP3   OH239727   5.248   3.377  13.885  0.0053 -0.4820  0.0085
 6079TIP3    H139728   5.286   3.306  13.833 -0.9710 -1.8999  1.1424
 6079TIP3    H239729   5.160   3.346  13.908 -0.5954  1.2611  0.2475
 6080TIP3   OH239730   6.633   2.667   1.506  0.3727 -0.5928 -0.2521
 6080TIP3    H139731   6.691   2.728   1.550 -1.6096  1.1521  0.0923
 6080TIP3    H239732   6.560   2.655   1.567 -1.1784 -0.1885 -1.9428
 6081TIP3   OH239733   2.711   3.421  17.410  0.8706 -0.0317 -0.0998
 6081TIP3    H139734   2.622   3.398  17.381  1.3265 -0.9241 -0.8274
 6081TIP3    H239735   2.700   3.504  17.456 -0.5610 -0.7759  0.9985
 6082TIP3   OH239736   2.156   0.851  12.314  0.2701 -0.4424  0.3758
 6082TIP3    H139737   2.150   0.783  12.381 -0.6587  0.6661  1.4543
 6082TIP3    H239738   2.071   0.895  12.316 -0.0737 -0.8662 -2.0989
 6083TIP3   OH239739   3.179   1.978   0.746  0.4705  0.3996 -0.5109
 6083TIP3    H139740   3.092   2.000   0.779  0.0482 -2.3155  0.4966
 6083TIP3    H239741   3.197   2.043   0.678 -2.3524  1.0405 -0.7650
 6084TIP3   OH239742   2.791   0.872  16.249 -0.1496 -0.2072  0.1276
 6084TIP3    H139743   2.696   0.875  16.239 -0.1584  0.3254  0.3443
 6084TIP3    H239744   2.825   0.878  16.160 -0.3434 -3.2107 -0.2689
 6085TIP3   OH239745   5.214   1.804  12.495  0.6705 -0.2091  0.4547
 6085TIP3    H139746   5.242   1.792  12.405  1.3045 -2.0954  0.8570
 6085TIP3    H239747   5.143   1.868  12.490  1.4729  0.6160 -1.2118
 6086TIP3   OH239748   5.358   2.678   2.804  0.0744 -0.0993 -0.1335
 6086TIP3    H139749   5.362   2.720   2.890 -0.7255  0.4697 -0.3609
 6086TIP3    H239750   5.328   2.589   2.822  0.4594 -0.1619  0.2223
 6087TIP3   OH239751   4.194   6.312   5.890  0.3387 -0.3396  0.2066
 6087TIP3    H139752   4.265   6.266   5.845  1.0177  0.3646  0.5458
 6087TIP3    H239753   4.218   6.309   5.982 -0.0897 -0.1132  0.3268
 6088TIP3   OH239754   2.929   4.159  12.650  0.3789 -0.0242  0.2164
 6088TIP3    H139755   2.871   4.112  12.591  0.5600  1.6594 -1.3798
 6088TIP3    H239756   2.873   4.188  12.722 -0.3365 -0.1323 -0.2910
 6089TIP3   OH239757   2.979   0.205   1.320 -0.7989  0.2315  0.5201
 6089TIP3    H139758   2.997   0.272   1.254 -0.5076 -0.1163  0.2441
 6089TIP3    H239759   3.032   0.233   1.395  0.9749 -0.7756 -0.2864
 6090TIP3   OH239760   3.052   4.386  12.201 -0.2695  0.3863 -0.1195
 6090TIP3    H139761   3.137   4.395  12.245 -0.2210  0.3300 -0.2019
 6090TIP3    H239762   3.058   4.303  12.154 -1.1299 -0.6529  1.5154
 6091TIP3   OH239763   4.275   3.614  13.822 -0.4661 -0.1986  0.2336
 6091TIP3    H139764   4.310   3.701  13.842 -0.2697  0.0379 -1.0714
 6091TIP3    H239765   4.261   3.614  13.727 -1.0211 -1.3904  0.2888
 6092TIP3   OH239766   2.082   4.590  15.865  1.0317  0.2866 -0.2019
 6092TIP3    H139767   2.086   4.650  15.939 -0.4537  0.0133  0.1472
 6092TIP3    H239768   2.016   4.525  15.891 -1.1244  1.3388 -2.5380
 6093TIP3   OH239769   1.119   5.469  17.309  0.3537  0.4043  0.6085
 6093TIP3    H139770   1.103   5.375  17.299 -1.0607  0.5637  1.2265
 6093TIP3    H239771   1.209   5.475  17.341  0.1125 -0.7919  1.5461
 6094TIP3   OH239772   0.554   2.723  11.710  0.3478 -0.1022  0.0546
 6094TIP3    H139773   0.544   2.797  11.650 -1.5366 -0.2197  0.1701
 6094TIP3    H239774   0.575   2.648  11.653  0.0647  0.0926 -0.3108
 6095TIP3   OH239775   1.691   0.352   0.895  0.1493  0.0377  0.1642
 6095TIP3    H139776   1.686   0.259   0.875 -0.1824  0.1347 -0.2259
 6095TIP3    H239777   1.742   0.357   0.976 -0.9746 -0.5704  0.9286
 6096TIP3   OH239778   4.611   1.788  12.557  0.1364  0.6152 -0.6187
 6096TIP3    H139779   4.690   1.737  12.575  0.1812  0.6379 -0.7472
 6096TIP3    H239780   4.568   1.798  12.642  0.1229  0.3548 -0.5947
 6097TIP3   OH239781   4.578   2.386   3.423  0.4786 -0.1496  0.4408
 6097TIP3    H139782   4.539   2.453   3.479  1.4380  1.5466 -0.8242
 6097TIP3    H239783   4.646   2.346   3.477  0.1212  0.1184  1.1041
 6098TIP3   OH239784   3.549   2.424  11.831 -0.1585 -0.9187  0.3689
 6098TIP3    H139785   3.529   2.330  11.830 -0.4862 -0.8493  0.3795
 6098TIP3    H239786   3.494   2.461  11.762  1.4927 -1.0375 -1.0869
 6099TIP3   OH239787   4.235   3.279  13.531  0.0499  0.9907  1.1047
 6099TIP3    H139788   4.145   3.310  13.533 -0.0299  1.0173 -0.9996
 6099TIP3    H239789   4.281   3.343  13.476  0.4387 -1.0847 -1.1595
 6100TIP3   OH239790   0.209   4.879   0.693 -0.2664  0.2633 -0.0781
 6100TIP3    H139791   0.157   4.959   0.691  0.2709  0.6119 -1.7296
 6100TIP3    H239792   0.298   4.908   0.673  0.0535 -0.6607 -0.0154
 6101TIP3   OH239793   0.941   2.498   3.772  0.1535 -0.3230  0.1377
 6101TIP3    H139794   0.866   2.518   3.827  0.8106 -0.7031  1.2181
 6101TIP3    H239795   0.983   2.582   3.755 -0.2376 -0.1673 -0.0592
 6102TIP3   OH239796   1.286   5.862  14.293 -0.0989 -0.8831 -0.2522
 6102TIP3    H139797   1.201   5.819  14.299 -0.5757 -0.2212 -1.7400
 6102TIP3    H239798   1.350   5.793  14.312 -0.8972 -1.8938 -1.1470
 6103TIP3   OH239799   1.302   5.625  11.168  0.3715 -0.1210  0.0329
 6103TIP3    H139800   1.323   5.668  11.086 -3.5766  1.3056 -0.4301
 6103TIP3    H239801   1.319   5.691  11.235 -2.9892  1.4468 -0.4358
 6104TIP3   OH239802   5.704   5.483   6.140  0.1224 -0.1094  0.3015
 6104TIP3    H139803   5.755   5.428   6.199  0.2224 -0.1516  0.1756
 6104TIP3    H239804   5.613   5.454   6.152 -0.3046  1.8557  2.6448
 6105TIP3   OH239805   0.612   3.471  15.025 -0.1359 -0.3312 -0.2554
 6105TIP3    H139806   0.651   3.433  14.946 -0.4686 -0.9744 -0.1198
 6105TIP3    H239807   0.679   3.529  15.060  0.1811 -0.3787 -0.7733
 6106TIP3   OH239808   2.014   0.689   1.879  0.2842 -0.1472  0.2425
 6106TIP3    H139809   2.004   0.596   1.901 -0.5724 -0.5361 -1.5965
 6106TIP3    H239810   1.965   0.735   1.948  0.0818 -1.1093  0.7573
 6107TIP3   OH239811   4.947   1.559   5.018 -0.0412  0.2534 -0.0443
 6107TIP3    H139812   5.034   1.523   5.035  0.5044  1.4396 -0.2093
 6107TIP3    H239813   4.889   1.510   5.076  0.9893  0.5834  1.3335
 6108TIP3   OH239814   5.476   4.736  15.869  0.2331 -0.2660  0.0885
 6108TIP3    H139815   5.527   4.731  15.950  0.3523 -0.7000 -0.0124
 6108TIP3    H239816   5.521   4.803  15.817  0.5943 -0.5067  0.0801
 6109TIP3   OH239817   3.707   5.639   3.342 -0.3322 -0.4930 -0.4279
 6109TIP3    H139818   3.631   5.696   3.351 -0.6659 -0.8071 -1.1772
 6109TIP3    H239819   3.745   5.662   3.257  0.1023 -0.7013 -0.2915
 6110TIP3   OH239820   2.971   0.574   2.287 -0.3362 -0.3198  0.2396
 6110TIP3    H139821   2.965   0.639   2.357  0.1815 -0.3947  0.3586
 6110TIP3    H239822   2.927   0.497   2.322 -1.7005  0.2277 -0.2223
 6111TIP3   OH239823   1.449   2.181   3.771 -0.1635  0.0496 -0.2412
 6111TIP3    H139824   1.472   2.105   3.716  0.3370  0.2246 -0.2794
 6111TIP3    H239825   1.361   2.162   3.802 -0.2895 -0.2555 -0.7643
 6112TIP3   OH239826   4.675   6.240  13.736 -0.0655 -0.1670 -0.4433
 6112TIP3    H139827   4.648   6.155  13.700  0.5916 -0.1345 -1.0353
 6112TIP3    H239828   4.644   6.304  13.672  0.6103 -0.0652 -0.6801
 6113TIP3   OH239829   4.896   6.138  10.528 -0.4526 -0.0883 -0.0632
 6113TIP3    H139830   4.900   6.136  10.432 -0.8485 -0.8634 -0.0692
 6113TIP3    H239831   4.973   6.189  10.553 -1.1650  1.4587 -0.8359
 6114TIP3   OH239832   2.170   0.233   2.623 -0.5771  0.0568 -0.1087
 6114TIP3    H139833   2.136   0.301   2.681 -1.9021  0.1805 -0.9898
 6114TIP3    H239834   2.264   0.232   2.640 -0.6928  1.3225  0.7403
 6115TIP3   OH239835   6.751   1.220  15.210  0.5732 -0.5714  0.0635
 6115TIP3    H139836   6.696   1.284  15.165 -0.2382 -1.1082  0.2692
 6115TIP3    H239837   6.836   1.263  15.217  0.4067 -0.0334 -0.9648
 6116TIP3   OH239838   4.482   4.641   2.193  0.8894  0.0081  0.0208
 6116TIP3    H139839   4.466   4.548   2.180  1.1392 -0.0124 -0.1481
 6116TIP3    H239840   4.543   4.665   2.124  0.0526  0.5241 -0.5545
 6117TIP3   OH239841   6.704   1.810   0.948 -0.9848  0.0929 -0.0306
 6117TIP3    H139842   6.638   1.847   0.889 -0.9592 -0.8507 -0.6591
 6117TIP3    H239843   6.666   1.728   0.979  0.0974 -0.7027 -0.7849
 6118TIP3   OH239844   4.125   6.049  12.841  0.3467 -0.0937  0.5269
 6118TIP3    H139845   4.119   6.138  12.808 -0.7797  0.0338  1.0448
 6118TIP3    H239846   4.203   6.049  12.897  0.2948  0.5759  0.6015
 6119TIP3   OH239847   6.153   5.596  12.249 -0.6713  0.0024  0.4134
 6119TIP3    H139848   6.144   5.640  12.164  0.9680 -0.4721 -0.0287
 6119TIP3    H239849   6.222   5.645  12.294 -0.8239 -0.3762  1.0628
 6120TIP3   OH239850   1.134   6.649  12.139  0.4151 -0.5965 -0.5047
 6120TIP3    H139851   1.173   6.628  12.224  0.9587 -1.6946 -1.0068
 6120TIP3    H239852   1.125   6.565  12.095  0.0403 -0.0523 -1.5002
 6121TIP3   OH239853   4.821   1.344   3.748  0.2451  0.4235  0.2713
 6121TIP3    H139854   4.854   1.267   3.795 -0.7022  0.7840  1.6187
 6121TIP3    H239855   4.790   1.402   3.818 -1.2586  0.9845 -0.8166
 6122TIP3   OH239856   5.010   5.512   5.117  0.0014  0.2292  0.0424
 6122TIP3    H139857   5.007   5.571   5.193  1.0399  0.3813 -0.0156
 6122TIP3    H239858   4.924   5.519   5.078 -1.3734 -1.5298  2.4748
 6123TIP3   OH239859   2.761   5.999  17.375 -0.2283 -0.2210 -0.1624
 6123TIP3    H139860   2.826   6.007  17.445  1.4088  1.7898 -1.7700
 6123TIP3    H239861   2.722   6.086  17.367 -0.7648 -0.5456 -1.3744
 6124TIP3   OH239862   0.536   4.931  12.274 -0.1586 -1.0499  0.1459
 6124TIP3    H139863   0.521   4.916  12.367  0.1773 -1.0851  0.1975
 6124TIP3    H239864   0.473   4.999  12.250  0.8400  0.1589  0.7797
 6125TIP3   OH239865   6.188   3.515  13.980 -0.0939 -0.2001  0.0503
 6125TIP3    H139866   6.171   3.427  14.013  0.0386 -0.0675  0.4899
 6125TIP3    H239867   6.214   3.565  14.058  0.4745  0.0650 -0.2988
 6126TIP3   OH239868   3.728   0.664   4.270 -0.3881 -0.4277  0.1119
 6126TIP3    H139869   3.661   0.729   4.287 -0.1264 -0.4068  1.0893
 6126TIP3    H239870   3.804   0.714   4.241  0.1323 -0.1900  1.8080
 6127TIP3   OH239871   4.604   5.530   1.397  0.6745  0.1792 -0.1402
 6127TIP3    H139872   4.615   5.464   1.466 -1.6725 -0.3265 -0.1718
 6127TIP3    H239873   4.627   5.484   1.316 -0.6140 -0.5345 -0.1214
 6128TIP3   OH239874   4.201   3.668   4.816  0.1103  0.2232  0.0233
 6128TIP3    H139875   4.242   3.755   4.813  1.8018 -0.5559 -0.6954
 6128TIP3    H239876   4.153   3.667   4.899  1.0021  1.4371  0.5827
 6129TIP3   OH239877   5.671   6.730   2.475  0.0132  0.5149 -0.1279
 6129TIP3    H139878   5.617   6.692   2.544  1.2351  0.4675  0.8178
 6129TIP3    H239879   5.655   6.673   2.399  1.7606 -1.9736  1.2202
 6130TIP3   OH239880   4.244   0.595   2.530 -0.2285  0.2673  0.1175
 6130TIP3    H139881   4.165   0.646   2.515 -0.6634 -1.0132 -2.5883
 6130TIP3    H239882   4.212   0.507   2.552  0.4244 -0.0919 -0.3189
 6131TIP3   OH239883   0.654   0.574  16.629 -0.0480  0.3012 -0.0596
 6131TIP3    H139884   0.573   0.593  16.581  0.5265  1.4871 -0.6043
 6131TIP3    H239885   0.626   0.523  16.704 -1.3635  1.0777  0.0097
 6132TIP3   OH239886   3.689   6.487  16.248 -0.1487  0.2699 -0.0941
 6132TIP3    H139887   3.727   6.566  16.211  1.2396 -0.2985  0.0298
 6132TIP3    H239888   3.765   6.431  16.268 -1.1297 -1.6160 -1.3551
 6133TIP3   OH239889   4.741   6.620   5.430  0.2155 -0.2003 -0.1965
 6133TIP3    H139890   4.715   6.712   5.437  1.7447  0.2287  0.2167
 6133TIP3    H239891   4.671   6.572   5.475 -0.4301  0.7840 -0.1179
 6134TIP3   OH239892   1.775   2.447   5.464 -0.0044 -0.2411 -0.3017
 6134TIP3    H139893   1.703   2.498   5.428  0.4764 -0.6609 -1.9593
 6134TIP3    H239894   1.843   2.512   5.483  0.6875 -0.1882 -2.6083
 6135TIP3   OH239895   3.671   5.848  12.991 -0.4047 -0.2662 -0.3150
 6135TIP3    H139896   3.613   5.796  12.935  0.2229 -2.3225  0.8055
 6135TIP3    H239897   3.759   5.823  12.965 -0.0009  1.6365 -0.9296
 6136TIP3   OH239898   4.894   3.668   6.018 -0.5106  0.8462 -0.0421
 6136TIP3    H139899   4.895   3.572   6.018  0.4676  0.8104  1.6677
 6136TIP3    H239900   4.972   3.693   5.969 -1.2075  0.7981 -1.1974
 6137TIP3   OH239901   0.937   6.055   4.455  0.7887 -0.3821  0.0030
 6137TIP3    H139902   0.888   6.129   4.492  1.8152  0.6281 -0.6077
 6137TIP3    H239903   0.906   6.049   4.365 -0.3741 -1.6854  0.4449
 6138TIP3   OH239904   2.343   1.729  14.241 -0.1064  0.9594 -0.2981
 6138TIP3    H139905   2.249   1.713  14.253  0.2465 -1.0428  0.3028
 6138TIP3    H239906   2.362   1.693  14.154  0.5365 -1.2738  0.6791
 6139TIP3   OH239907   2.880   2.976  16.698  0.2382 -0.3136  0.4614
 6139TIP3    H139908   2.839   3.023  16.770  1.3768 -1.6315  2.0189
 6139TIP3    H239909   2.818   2.907  16.675  0.3759 -0.6131  0.9781
 6140TIP3   OH239910   1.081   5.249  16.207 -0.3329 -0.4709 -0.7963
 6140TIP3    H139911   1.031   5.171  16.231 -2.2446  0.8591 -0.2156
 6140TIP3    H239912   1.022   5.322  16.227  1.8463  1.1959 -0.1567
 6141TIP3   OH239913   0.345   6.446  15.023 -0.3868 -0.0605  0.3998
 6141TIP3    H139914   0.258   6.472  14.991 -0.6972 -2.4463 -0.9040
 6141TIP3    H239915   0.333   6.429  15.116 -1.5064 -0.9933  0.1068
 6142TIP3   OH239916   6.658   3.009   5.089 -0.1834 -0.2366 -0.1526
 6142TIP3    H139917   6.747   3.018   5.125 -0.3768  0.0179  0.2746
 6142TIP3    H239918   6.619   2.938   5.139 -0.2137 -0.3609 -0.3534
 6143TIP3   OH239919   4.220   5.819  17.382 -0.5727 -0.0981  0.1774
 6143TIP3    H139920   4.244   5.827  17.289 -0.4991  1.2392  0.2988
 6143TIP3    H239921   4.303   5.826  17.429 -0.7006 -0.0096  0.3894
 6144TIP3   OH239922   1.019   3.611   3.873  0.0841 -0.1835 -0.5063
 6144TIP3    H139923   0.938   3.614   3.924  0.4409 -0.1033  0.0656
 6144TIP3    H239924   0.990   3.617   3.782 -0.4403  2.1158 -0.2441
 6145TIP3   OH239925   5.250   3.060  15.567  0.2936 -0.1221 -0.1189
 6145TIP3    H139926   5.222   2.980  15.612  1.2931 -0.3624  0.1161
 6145TIP3    H239927   5.171   3.112  15.558 -0.0834 -0.4481  1.1608
 6146TIP3   OH239928   2.152   4.943  12.725 -0.2182 -0.1290  0.6422
 6146TIP3    H139929   2.225   4.988  12.683 -0.8415 -0.7590 -1.2186
 6146TIP3    H239930   2.076   4.968  12.674 -0.4992 -3.8311 -1.0360
 6147TIP3   OH239931   0.672   4.028   4.592 -0.2121  0.3021 -0.0945
 6147TIP3    H139932   0.602   4.019   4.528  1.9834  1.7222 -2.9682
 6147TIP3    H239933   0.696   4.121   4.587  1.4980 -0.0286  1.1834
 6148TIP3   OH239934   6.501   0.681   4.816 -0.3878 -0.1328  0.0943
 6148TIP3    H139935   6.455   0.682   4.900  1.9423  0.9664  1.4664
 6148TIP3    H239936   6.438   0.644   4.754 -3.0990  1.3944  1.7746
 6149TIP3   OH239937   0.220   1.643  11.949  0.2390 -0.3584  0.0652
 6149TIP3    H139938   0.151   1.691  11.903  0.2089  0.0506  0.5192
 6149TIP3    H239939   0.228   1.561  11.902 -1.2361 -0.8240  0.5783
 6150TIP3   OH239940   0.756   5.956   4.954  0.3404  0.7446  0.4052
 6150TIP3    H139941   0.721   5.869   4.940 -0.3278  1.1185 -0.2970
 6150TIP3    H239942   0.785   5.956   5.046 -0.6139  0.1230  0.7182
 6151TIP3   OH239943   2.081   2.588   5.204 -0.0714 -0.4646  0.5281
 6151TIP3    H139944   2.102   2.593   5.297  0.5563  2.1268  0.3267
 6151TIP3    H239945   2.160   2.549   5.164 -0.2421 -1.3420  1.0305
 6152TIP3   OH239946   1.404   2.294   1.766 -0.0880 -0.0133  0.2799
 6152TIP3    H139947   1.318   2.297   1.723 -0.7634 -0.0920  1.5795
 6152TIP3    H239948   1.456   2.236   1.711 -1.1426 -0.6725 -0.0660
 6153TIP3   OH239949   6.053   1.977  16.916  0.0402  0.3247 -0.0528
 6153TIP3    H139950   6.052   2.019  16.830  0.1158  0.6156  0.0890
 6153TIP3    H239951   6.146   1.966  16.937  0.0204 -0.1680 -0.2135
 6154TIP3   OH239952   0.706   4.524   1.846  0.1997  0.1154 -0.3986
 6154TIP3    H139953   0.687   4.528   1.753 -0.9305 -1.7651 -0.3021
 6154TIP3    H239954   0.622   4.544   1.889  0.7021  0.9510  0.2140
 6155TIP3   OH239955   0.587   6.023   1.683 -0.2169  0.1422  0.3683
 6155TIP3    H139956   0.516   6.049   1.741 -1.1804  0.3359 -0.8358
 6155TIP3    H239957   0.569   5.930   1.664  0.5823 -0.1569  1.0488
 6156TIP3   OH239958   1.023   0.441   3.668 -0.4398 -0.2714 -0.0706
 6156TIP3    H139959   1.040   0.391   3.748  0.5335 -1.5590 -1.0423
 6156TIP3    H239960   0.953   0.502   3.692  1.1589  0.7527  2.3102
 6157TIP3   OH239961   3.035   3.472  12.877 -0.6542 -0.4179  0.0214
 6157TIP3    H139962   2.999   3.454  12.964  1.2030 -0.0594  0.8924
 6157TIP3    H239963   2.961   3.509  12.829 -2.2036 -2.2466  0.8623
 6158TIP3   OH239964   4.471   6.326   2.809  0.0836 -0.5599 -0.7397
 6158TIP3    H139965   4.462   6.241   2.853  1.8368 -0.4359 -0.0566
 6158TIP3    H239966   4.542   6.313   2.746  0.3247  0.3854 -0.6685
 6159TIP3   OH239967   0.990   0.098  12.083  0.4575  0.6755  0.0174
 6159TIP3    H139968   0.979   0.153  12.005 -1.0007 -0.5086 -0.6535
 6159TIP3    H239969   1.058   0.035  12.059  0.7257  0.9353  0.0819
 6160TIP3   OH239970   1.637   0.419  11.790 -0.2172 -0.2433  0.3298
 6160TIP3    H139971   1.594   0.339  11.818  1.4569 -1.0653  0.7105
 6160TIP3    H239972   1.705   0.390  11.729  0.6769  0.8200  0.7658
 6161TIP3   OH239973   4.973   6.621   0.433  0.3646 -0.0918 -0.3389
 6161TIP3    H139974   5.037   6.579   0.491  1.3194 -1.3572 -2.1931
 6161TIP3    H239975   4.967   6.562   0.358 -0.9515  1.3804 -1.4506
 6162TIP3   OH239976   5.543   0.912   3.878 -0.3202  0.3477 -0.0422
 6162TIP3    H139977   5.620   0.874   3.835 -0.1054 -0.0906  0.7153
 6162TIP3    H239978   5.478   0.918   3.808 -0.1028 -0.7102 -0.3552
 6163TIP3   OH239979   1.888   4.955  12.077 -0.2005  0.2259 -0.2949
 6163TIP3    H139980   1.966   4.992  12.118 -0.2585 -0.5452  0.5546
 6163TIP3    H239981   1.921   4.889  12.017 -0.1991 -0.0737  0.0361
 6164TIP3   OH239982   3.513   2.355  10.874 -0.1039 -0.1859  0.6199
 6164TIP3    H139983   3.545   2.373  10.785 -1.6152 -1.1630 -0.1744
 6164TIP3    H239984   3.423   2.389  10.873  0.1330  0.5337  2.0659
 6165TIP3   OH239985   0.946   4.325   1.958  0.2799  0.4216  0.3058
 6165TIP3    H139986   0.916   4.277   2.035  0.6923 -1.5633 -0.7077
 6165TIP3    H239987   0.882   4.395   1.947 -2.7994 -2.2936 -0.4804
 6166TIP3   OH239988   4.723   2.255   5.533  0.5067  1.3164 -0.5660
 6166TIP3    H139989   4.804   2.256   5.583  0.4350  0.7764 -0.4255
 6166TIP3    H239990   4.685   2.169   5.551 -0.1879  1.6298 -0.4905
 6167TIP3   OH239991   0.663   5.913   2.185  0.7861  0.9813 -0.2958
 6167TIP3    H139992   0.614   5.891   2.106 -1.9443  0.5118  1.3848
 6167TIP3    H239993   0.658   6.008   2.191  0.2769  0.9627 -0.3196
 6168TIP3   OH239994   1.973   6.088   4.281 -0.0380  0.1116  0.6530
 6168TIP3    H139995   1.992   6.132   4.365  0.5657  0.5434  0.3020
 6168TIP3    H239996   2.055   6.043   4.259 -0.7973 -1.6554  1.2547
 6169TIP3   OH239997   6.055   3.111  11.449  0.2058  0.3000 -0.2766
 6169TIP3    H139998   6.009   3.187  11.484  1.3394  1.6819 -1.6356
 6169TIP3    H239999   6.117   3.087  11.519 -0.5685  0.2293  0.4009
 6170TIP3   OH240000   1.078   0.095  10.709  0.6895  0.1364  0.0967
 6170TIP3    H140001   1.163   0.065  10.678  0.1647 -0.3605 -0.9463
 6170TIP3    H240002   1.098   0.162  10.774  1.8849 -1.4060  1.3887
 6171TIP3   OH240003   3.150   2.237  12.879  0.0333  0.1763  0.0281
 6171TIP3    H140004   3.186   2.270  12.961  0.8785 -1.3637  0.3166
 6171TIP3    H240005   3.186   2.295  12.812  2.0246 -0.4956  0.4489
 6172TIP3   OH240006   1.854   1.768  11.964 -0.4954  0.0803 -0.4160
 6172TIP3    H140007   1.943   1.801  11.955 -0.6209  0.5895  0.1787
 6172TIP3    H240008   1.847   1.740  12.055 -0.9592  0.0917 -0.4455
 6173TIP3   OH240009   2.218   2.741  12.463 -0.2641 -1.0364 -0.0279
 6173TIP3    H140010   2.123   2.733  12.463 -0.6662  2.2025 -0.1354
 6173TIP3    H240011   2.241   2.762  12.372  0.4093 -0.8309  0.1776
 6174TIP3   OH240012   3.640   0.161  11.361  0.0977  0.1112  0.3950
 6174TIP3    H140013   3.633   0.203  11.275  0.3446 -2.4296 -0.9685
 6174TIP3    H240014   3.721   0.111  11.357 -1.3601 -2.5103  0.8456
 6175TIP3   OH240015   6.640   3.641  12.541  0.0167  0.3932 -0.3103
 6175TIP3    H140016   6.734   3.628  12.537  0.2317  0.5365  2.4236
 6175TIP3    H240017   6.604   3.552  12.539  0.2806  0.2888 -0.4139
 6176TIP3   OH240018   3.154   3.963  11.541  0.2184 -0.9269  0.0796
 6176TIP3    H140019   3.174   3.888  11.486  1.0445 -0.3317 -0.4548
 6176TIP3    H240020   3.066   3.990  11.514  0.4615 -0.8801 -0.6832
 6177TIP3   OH240021   0.911   2.865  15.006 -0.5421 -0.1928 -0.2882
 6177TIP3    H140022   0.970   2.917  14.951  2.0397 -0.7078  1.7900
 6177TIP3    H240023   0.927   2.896  15.095 -2.1824 -1.5651  0.5413
 6178TIP3   OH240024   1.130   2.379  11.194  0.1152  0.2078 -0.4025
 6178TIP3    H140025   1.138   2.474  11.184  0.9525  0.2949  0.9458
 6178TIP3    H240026   1.201   2.343  11.140 -0.0888  0.3470 -0.7677
 6179TIP3   OH240027   2.765   4.894   2.671 -0.0466 -0.0116  0.0692
 6179TIP3    H140028   2.690   4.906   2.730 -0.2309 -0.0936 -0.1451
 6179TIP3    H240029   2.783   4.800   2.675  0.2075  0.0464  0.3153
 6180TIP3   OH240030   1.067   6.412  12.055 -0.1984  0.1932 -0.4476
 6180TIP3    H140031   1.043   6.319  12.060 -1.6625  0.5020 -1.1342
 6180TIP3    H240032   1.129   6.417  11.983  1.2867 -0.4784  0.7081
 6181TIP3   OH240033   0.344   6.537  14.626  0.1248  0.3706 -0.1739
 6181TIP3    H140034   0.378   6.457  14.667  0.0968  0.4633  0.0347
 6181TIP3    H240035   0.413   6.563  14.565 -0.0115  0.0055 -0.4867
 6182TIP3   OH240036   3.212   0.506   4.986  0.0296  0.1923 -0.8414
 6182TIP3    H140037   3.174   0.567   5.050  2.7585  0.5594  0.5837
 6182TIP3    H240038   3.194   0.547   4.901 -2.2562  0.5315 -0.2607
 6183TIP3   OH240039   2.294   2.819  14.210  0.0831 -0.0794 -0.1516
 6183TIP3    H140040   2.297   2.724  14.221 -0.7196 -0.1382 -0.3361
 6183TIP3    H240041   2.315   2.854  14.296  0.5621 -0.4260 -0.1284
 6184TIP3   OH240042   3.041   1.263  16.036  0.3322  0.1069  0.1198
 6184TIP3    H140043   3.119   1.287  15.986  1.7125 -0.9269  1.6809
 6184TIP3    H240044   3.048   1.168  16.046 -1.7767 -0.2027 -0.6917
 6185TIP3   OH240045   0.020   2.706  17.189 -0.3544  0.0445 -0.6130
 6185TIP3    H140046   0.098   2.666  17.227  0.0389 -0.5568 -2.0251
 6185TIP3    H240047  -0.017   2.639  17.132 -2.0115  0.2628  0.1355
 6186TIP3   OH240048   4.673   3.927   6.652  0.4867  0.3249 -0.5097
 6186TIP3    H140049   4.700   4.000   6.708  1.4683  0.0147 -0.5624
 6186TIP3    H240050   4.656   3.855   6.713  2.2774 -0.2395 -0.6146
 6187TIP3   OH240051   1.440   2.399  16.135  0.2219 -0.6284 -0.2520
 6187TIP3    H140052   1.452   2.446  16.218 -0.4690  1.5202 -1.2842
 6187TIP3    H240053   1.529   2.386  16.102  0.4520  2.3921 -1.1429
 6188TIP3   OH240054   5.573   4.978   5.336  0.1413 -0.4065  0.3788
 6188TIP3    H140055   5.506   5.032   5.378  1.0333  0.2473  0.9758
 6188TIP3    H240056   5.622   4.939   5.408  0.9427 -0.2012 -0.0431
 6189TIP3   OH240057   2.661   6.146   6.435 -0.3217  0.3724  0.2470
 6189TIP3    H140058   2.727   6.166   6.501  0.1356  0.7162 -0.3060
 6189TIP3    H240059   2.590   6.102   6.484  0.4524 -0.3019  0.7911
 6190TIP3   OH240060   2.628   0.023   5.631  0.0294 -0.6175  0.4605
 6190TIP3    H140061   2.595   0.033   5.720 -1.3587  2.9041 -0.2935
 6190TIP3    H240062   2.723   0.025   5.640 -0.0942  0.6747  1.8383
 6191TIP3   OH240063   6.201   2.458  13.139  0.1162 -0.0935  0.1058
 6191TIP3    H140064   6.183   2.401  13.214  0.2837 -0.9372 -0.4707
 6191TIP3    H240065   6.288   2.432  13.109 -0.5943 -0.9373 -1.3627
 6192TIP3   OH240066   6.372   4.470   4.701 -0.0202 -0.0276 -0.5597
 6192TIP3    H140067   6.360   4.481   4.607  1.0414  2.2039 -0.5085
 6192TIP3    H240068   6.288   4.435   4.732  0.3053 -2.9854 -2.5480
 6193TIP3   OH240069   4.477   2.612  14.846 -0.0724  0.6334 -0.1709
 6193TIP3    H140070   4.462   2.630  14.938 -2.3721 -1.1012 -0.1363
 6193TIP3    H240071   4.508   2.522  14.843  2.5949  1.4658 -0.9754
 6194TIP3   OH240072   3.923   2.910  16.153 -0.1174  0.7134 -0.1221
 6194TIP3    H140073   3.889   2.932  16.240 -1.5829 -1.1906 -0.1518
 6194TIP3    H240074   4.002   2.860  16.170 -0.9025 -0.4593  0.1745
 6195TIP3   OH240075   4.794   2.322   2.728 -0.2387  0.3179  0.3679
 6195TIP3    H140076   4.800   2.415   2.748 -1.1685  0.4783 -0.0579
 6195TIP3    H240077   4.703   2.300   2.744  0.3245 -0.9341  2.1630
 6196TIP3   OH240078   3.737   0.616  15.896  0.1886  0.0543  0.3094
 6196TIP3    H140079   3.649   0.654  15.899 -0.2130 -0.8105 -0.1439
 6196TIP3    H240080   3.772   0.642  15.811 -0.1753 -0.7620 -0.0981
 6197TIP3   OH240081   1.197   1.998   3.033  0.5638  0.3744  0.8006
 6197TIP3    H140082   1.167   2.086   3.009  1.5927  0.6772  0.6109
 6197TIP3    H240083   1.154   1.981   3.117 -0.7077  0.5032  0.2024
 6198TIP3   OH240084   2.729   2.677  12.796 -0.4210  0.2137  0.1842
 6198TIP3    H140085   2.819   2.656  12.772 -1.0756  0.8359 -3.3198
 6198TIP3    H240086   2.683   2.593  12.792 -0.0742 -0.1149  2.0344
 6199TIP3   OH240087   1.437   3.379  13.247 -0.1861 -0.6691  0.1963
 6199TIP3    H140088   1.443   3.289  13.281 -1.6334 -1.1284 -0.6727
 6199TIP3    H240089   1.345   3.401  13.256 -0.5841 -0.6459 -2.9561
 6200TIP3   OH240090   0.342   3.897   0.594 -0.6683 -0.0738 -0.1392
 6200TIP3    H140091   0.427   3.857   0.613  0.5258  2.5976  0.6414
 6200TIP3    H240092   0.316   3.938   0.677 -1.1050  1.9007 -1.1858
 6201TIP3   OH240093   3.085   5.138  16.567 -0.0471  0.0503  0.6177
 6201TIP3    H140094   3.043   5.177  16.644  4.1388  0.0367  3.2085
 6201TIP3    H240095   3.147   5.205  16.537  1.1586 -1.4118 -0.2860
 6202TIP3   OH240096   1.278   3.722  12.239  0.6734  0.3897 -0.7251
 6202TIP3    H140097   1.344   3.667  12.282 -0.3472 -1.6149 -1.5616
 6202TIP3    H240098   1.216   3.744  12.309  0.5766 -0.3824 -0.5538
 6203TIP3   OH240099   6.129   4.577   1.467 -0.3510  1.1547  0.6147
 6203TIP3    H140100   6.205   4.630   1.491 -0.5663  1.8673 -0.2140
 6203TIP3    H240101   6.163   4.488   1.462  0.3815  1.4359  0.4878
 6204TIP3   OH240102   6.088   5.818   0.597 -0.3390  0.0909 -0.9979
 6204TIP3    H140103   6.062   5.883   0.533  2.7550  1.6350 -0.8641
 6204TIP3    H240104   6.072   5.860   0.682 -1.2413 -0.6127 -0.7986
 6205TIP3   OH240105   0.765   5.140  16.165 -0.4313  0.1289  0.2930
 6205TIP3    H140106   0.802   5.149  16.077 -1.1727 -0.3090 -0.0646
 6205TIP3    H240107   0.754   5.230  16.195 -0.2951  0.2839 -0.1094
 6206TIP3   OH240108   0.272   5.934   5.766 -0.2807  0.4154  0.3545
 6206TIP3    H140109   0.328   5.991   5.713  0.7880 -0.7450  0.1592
 6206TIP3    H240110   0.197   5.915   5.710 -0.0143  0.6188 -0.0745
 6207TIP3   OH240111   1.064   0.558  16.736 -0.2392 -0.0328 -0.1432
 6207TIP3    H140112   1.048   0.644  16.697 -0.9712  0.2159  0.6662
 6207TIP3    H240113   1.139   0.572  16.793 -0.6595  0.2071  0.3640
 6208TIP3   OH240114   0.083   2.008  15.605  0.5369 -0.0368  0.0838
 6208TIP3    H140115   0.112   1.920  15.584 -1.4331 -0.9393  0.9471
 6208TIP3    H240116   0.059   2.046  15.520 -1.3792 -1.3961 -0.0314
 6209TIP3   OH240117   2.418   3.456   0.891 -0.2724  0.3731 -0.4551
 6209TIP3    H140118   2.490   3.514   0.916  0.1209 -0.1697 -0.3154
 6209TIP3    H240119   2.416   3.459   0.796 -1.3163  1.8904 -0.4304
 6210TIP3   OH240120   1.075   2.680   1.574 -0.5056 -0.2670  0.2343
 6210TIP3    H140121   1.107   2.599   1.533  0.4763  0.1728  0.0906
 6210TIP3    H240122   1.031   2.651   1.654 -0.1724 -0.9436  0.1802
 6211TIP3   OH240123   5.738   3.616   6.364 -0.1009  0.3317 -0.1911
 6211TIP3    H140124   5.676   3.555   6.405 -1.2149 -0.4521 -2.7666
 6211TIP3    H240125   5.801   3.559   6.320  0.7242  1.1084 -0.0310
 6212TIP3   OH240126   4.497   4.264   2.063 -0.0650 -0.4321 -0.0826
 6212TIP3    H140127   4.539   4.336   2.016  2.0338 -2.5171 -1.6417
 6212TIP3    H240128   4.432   4.230   2.002 -1.1052  0.0785  0.6805
 6213TIP3   OH240129   1.834   4.102   4.988 -0.2332 -0.7975  0.7788
 6213TIP3    H140130   1.764   4.042   4.963 -0.0099 -1.2987  1.3224
 6213TIP3    H240131   1.887   4.052   5.051 -0.2418  0.0805  1.5094
 6214TIP3   OH240132   5.304   0.976   1.923  0.3200 -0.2131 -0.3072
 6214TIP3    H140133   5.374   1.039   1.937  0.1048  0.4122 -1.8771
 6214TIP3    H240134   5.249   0.983   2.001  0.6867  1.0473 -0.1505
 6215TIP3   OH240135   5.676   6.723  13.145 -0.1028  0.1083  0.6709
 6215TIP3    H140136   5.727   6.645  13.167  2.7901  2.2481  2.1831
 6215TIP3    H240137   5.734   6.775  13.090 -0.8926  2.3373  1.8348
 6216TIP3   OH240138   4.283   4.524   4.861  0.0034 -0.7028  0.3091
 6216TIP3    H140139   4.292   4.535   4.956 -0.9706 -0.0132  0.3240
 6216TIP3    H240140   4.251   4.434   4.851  0.0425 -0.7557  0.6293
 6217TIP3   OH240141   6.226   3.884  15.762  0.0474 -0.1746  0.4012
 6217TIP3    H140142   6.227   3.913  15.671 -1.3653 -0.4785  0.2720
 6217TIP3    H240143   6.266   3.957  15.810  1.5863 -0.3533 -0.5255
 6218TIP3   OH240144   6.559   0.196   6.357  0.3103 -0.6483  0.1360
 6218TIP3    H140145   6.640   0.168   6.316  0.7695  0.5103  0.2057
 6218TIP3    H240146   6.566   0.291   6.362 -1.8135 -0.3014 -1.5033
 6219TIP3   OH240147   5.289   3.020   2.064 -0.1972 -0.2410 -0.0399
 6219TIP3    H140148   5.331   2.984   1.985  2.2720 -0.2086  1.1639
 6219TIP3    H240149   5.358   3.071   2.106 -2.1699  1.7982  0.9171
 6220TIP3   OH240150   2.005   0.552   4.008 -0.0094  0.1965  0.6336
 6220TIP3    H140151   2.081   0.605   3.981 -0.3490 -0.3836 -1.7263
 6220TIP3    H240152   1.940   0.567   3.939 -1.0382 -1.4060  1.1901
 6221TIP3   OH240153   5.157   4.165  12.896  0.4820  0.0771  0.0171
 6221TIP3    H140154   5.211   4.093  12.928  1.0464  0.6225  0.3059
 6221TIP3    H240155   5.089   4.175  12.963 -1.7235 -2.4230 -1.6292
 6222TIP3   OH240156   0.175   3.477  11.374  0.4219  0.3213  0.6473
 6222TIP3    H140157   0.134   3.446  11.455  0.1204 -0.4406  0.2129
 6222TIP3    H240158   0.230   3.404  11.345 -0.5850  0.0233 -0.5998
 6223TIP3   OH240159   0.722   1.227   2.513  0.2336  0.0471 -0.1985
 6223TIP3    H140160   0.637   1.271   2.504  0.1833  0.0047  0.0627
 6223TIP3    H240161   0.708   1.139   2.478  0.1259 -0.0125 -0.0081
 6224TIP3   OH240162   5.593   1.307   4.894 -0.5484 -0.0150  0.3364
 6224TIP3    H140163   5.659   1.369   4.926 -0.1986 -0.0346 -0.3248
 6224TIP3    H240164   5.639   1.223   4.892  0.5816  0.4960 -3.3861
 6225TIP3   OH240165   1.901   0.086   3.109  0.4712  0.0198 -0.4158
 6225TIP3    H140166   1.883   0.157   3.170 -1.2083 -0.8143  0.1493
 6225TIP3    H240167   1.966   0.032   3.153  0.9356  0.6191 -0.3642
 6226TIP3   OH240168   6.358   2.367  12.337 -0.4071  0.1037  0.3138
 6226TIP3    H140169   6.324   2.428  12.272 -2.1094  0.4806  1.4840
 6226TIP3    H240170   6.440   2.406  12.367 -0.2591  0.5659 -0.6633
 6227TIP3   OH240171   4.252   6.316   6.162 -0.2336 -0.1465 -0.7268
 6227TIP3    H140172   4.206   6.234   6.179 -0.8018  0.2373 -0.3945
 6227TIP3    H240173   4.268   6.353   6.249 -2.3727  1.4051 -0.9263
 6228TIP3   OH240174   1.254   1.317   6.031 -0.4143  0.3656 -0.4981
 6228TIP3    H140175   1.324   1.361   5.982 -0.8410  1.6228 -0.0080
 6228TIP3    H240176   1.178   1.322   5.973 -0.9222  1.8617  0.2483
 6229TIP3   OH240177   4.351   4.515  10.914 -0.1620 -0.0546  0.1085
 6229TIP3    H140178   4.446   4.506  10.906 -0.1514  0.5755 -0.5199
 6229TIP3    H240179   4.322   4.429  10.946  0.3387 -1.1769 -2.2188
 6230TIP3   OH240180   2.798   3.902   3.199  0.4305 -0.5669 -0.4884
 6230TIP3    H140181   2.891   3.919   3.182  0.7706 -1.7117  0.1273
 6230TIP3    H240182   2.774   3.834   3.136 -0.5567  1.0983 -2.0156
 6231TIP3   OH240183   5.028   4.811   1.113 -0.0408  0.0669  0.1853
 6231TIP3    H140184   5.013   4.776   1.202 -0.4417  0.5670  0.3167
 6231TIP3    H240185   5.119   4.842   1.115  0.3221 -0.9533  0.0699
 6232TIP3   OH240186   3.152   0.019  14.586 -0.0622 -0.5339 -0.1196
 6232TIP3    H140187   3.111  -0.041  14.523  1.9263 -1.1295 -0.9362
 6232TIP3    H240188   3.158  -0.032  14.667  2.4122 -1.9016 -1.0421
 6233TIP3   OH240189   2.768   2.337   0.168 -0.0611  0.5662  0.3238
 6233TIP3    H140190   2.742   2.427   0.148 -1.6493  0.2118  0.6491
 6233TIP3    H240191   2.714   2.283   0.110  1.1816 -0.1880 -0.1781
 6234TIP3   OH240192   6.638   2.873   0.541  0.3205 -0.1742 -0.3580
 6234TIP3    H140193   6.597   2.789   0.563  0.8023 -0.3214 -0.0063
 6234TIP3    H240194   6.730   2.852   0.528  0.6070  0.4309  0.5650
 6235TIP3   OH240195   2.895   0.203   1.986 -0.2881 -0.4624 -0.0009
 6235TIP3    H140196   2.808   0.223   1.954 -0.2803 -0.2080  0.1340
 6235TIP3    H240197   2.941   0.165   1.911 -0.9501 -1.9279  0.3071
 6236TIP3   OH240198   5.469   1.844   5.361  0.3190  0.6667 -0.3603
 6236TIP3    H140199   5.530   1.780   5.398 -0.8879  0.0230  0.5796
 6236TIP3    H240200   5.402   1.856   5.428 -0.7559  1.1395 -1.4681
 6237TIP3   OH240201   6.338   5.584   3.224  0.3801 -0.1123  0.2979
 6237TIP3    H140202   6.356   5.673   3.254 -1.6352  0.7304 -0.7916
 6237TIP3    H240203   6.409   5.563   3.164 -0.2182  1.6504 -1.1118
 6238TIP3   OH240204   2.402   1.343  14.318  0.0962 -0.2259 -0.1456
 6238TIP3    H140205   2.483   1.305  14.282  0.1431  1.5464 -2.0707
 6238TIP3    H240206   2.432   1.414  14.374 -0.0985  1.2229 -1.8161
 6239TIP3   OH240207   3.033   4.767  16.768 -0.0801 -0.4288  0.1987
 6239TIP3    H140208   3.073   4.808  16.691 -0.3379  0.0153  0.3007
 6239TIP3    H240209   2.939   4.781  16.757 -0.0288  0.9997  1.3593
 6240TIP3   OH240210   1.642   2.612   4.341 -0.1816 -0.4045 -0.6960
 6240TIP3    H140211   1.560   2.572   4.368 -0.1871  1.0961  1.8188
 6240TIP3    H240212   1.625   2.706   4.346  1.4432 -0.0704 -0.9444
 6241TIP3   OH240213   3.842   6.614  11.404 -0.3564  0.2123  0.1444
 6241TIP3    H140214   3.773   6.615  11.470  0.6215  0.5415  1.1862
 6241TIP3    H240215   3.798   6.638  11.322 -1.7341 -0.9777  0.5098
 6242TIP3   OH240216   3.177   4.267  17.409  0.4288 -0.4713  0.0380
 6242TIP3    H140217   3.090   4.281  17.445  0.9831 -1.0644  1.6955
 6242TIP3    H240218   3.174   4.308  17.322 -0.6321  2.0820  1.1713
 6243TIP3   OH240219   6.312   2.748  17.010 -0.0734 -0.1373 -0.5371
 6243TIP3    H140220   6.345   2.663  16.980 -1.1182 -0.3348 -1.1548
 6243TIP3    H240221   6.389   2.805  17.006  0.3780 -0.7719 -1.2127
 6244TIP3   OH240222   0.843   2.221  13.833  0.3269 -0.0989  0.3475
 6244TIP3    H140223   0.906   2.292  13.842  0.9681 -0.7189  0.8610
 6244TIP3    H240224   0.890   2.143  13.861 -0.2534 -0.7906 -0.5259
 6245TIP3   OH240225   1.617   0.622   6.539 -0.0600 -0.2399 -0.1879
 6245TIP3    H140226   1.542   0.664   6.497  0.6198 -0.6138 -1.8906
 6245TIP3    H240227   1.630   0.542   6.487  0.7977 -0.7614  0.8092
 6246TIP3   OH240228   4.535   4.604  11.822  0.1925  0.0228  0.3579
 6246TIP3    H140229   4.481   4.594  11.900  1.1517  1.2783  1.2272
 6246TIP3    H240230   4.594   4.529  11.824  0.8958  0.5748  1.4407
 6247TIP3   OH240231   6.204   3.362  14.302  0.0317  0.1573  0.5473
 6247TIP3    H140232   6.188   3.268  14.315 -4.1726  0.1799 -2.2564
 6247TIP3    H240233   6.136   3.405  14.354 -0.1083  1.4490 -0.6485
 6248TIP3   OH240234   2.542   1.556   2.458 -0.3887  0.1745  0.2152
 6248TIP3    H140235   2.469   1.527   2.513  0.7412 -0.5623  1.4039
 6248TIP3    H240236   2.620   1.519   2.501  0.5411 -0.7836 -2.1032
 6249TIP3   OH240237   5.409   1.262   0.221  0.0700  0.1474 -0.1383
 6249TIP3    H140238   5.463   1.293   0.294  1.7350  1.1272 -1.6699
 6249TIP3    H240239   5.358   1.339   0.195 -0.5800 -0.2187  0.0555
 6250TIP3   OH240240   6.144   3.995  12.466  0.1569  0.0919 -0.3310
 6250TIP3    H140241   6.170   3.944  12.542 -1.4980 -1.2566 -0.6175
 6250TIP3    H240242   6.183   4.081  12.481 -0.0392 -0.1578  2.0004
 6251TIP3   OH240243   1.032   6.449   2.590 -0.2066 -0.1960 -0.1759
 6251TIP3    H140244   1.099   6.429   2.656 -0.1793  0.7858  0.1185
 6251TIP3    H240245   1.080   6.450   2.507  0.0339 -0.1064 -0.0373
 6252TIP3   OH240246   4.504   4.333  15.410 -0.0441 -0.1721  0.5996
 6252TIP3    H140247   4.421   4.326  15.457 -0.1574 -0.5853  0.3438
 6252TIP3    H240248   4.546   4.248  15.425 -0.1225 -0.3392 -0.1128
 6253TIP3   OH240249   5.406   0.715  16.177 -0.0361 -0.4275 -0.0101
 6253TIP3    H140250   5.330   0.657  16.187 -1.1173  1.0579  0.7830
 6253TIP3    H240251   5.432   0.736  16.266 -0.2431  0.9991 -0.2656
 6254TIP3   OH240252   5.805   0.713   3.938  0.5605 -0.1579  0.1105
 6254TIP3    H140253   5.751   0.640   3.907  0.3274 -1.2614  2.8746
 6254TIP3    H240254   5.779   0.787   3.882 -3.3186 -0.7867  0.7947
 6255TIP3   OH240255   3.483   5.557  16.101 -0.1748 -0.3239 -0.3279
 6255TIP3    H140256   3.423   5.511  16.159 -1.3230  1.7917  0.2411
 6255TIP3    H240257   3.553   5.494  16.084 -2.4453 -2.8573 -0.9431
 6256TIP3   OH240258   1.850   3.587   1.156  0.1415 -0.1177 -0.1169
 6256TIP3    H140259   1.805   3.503   1.168 -0.8772  0.2124 -1.3605
 6256TIP3    H240260   1.860   3.595   1.061 -1.2468  1.8787 -0.1588
 6257TIP3   OH240261   5.545   2.459  13.898 -0.3538  0.3186 -0.1757
 6257TIP3    H140262   5.508   2.495  13.978  1.3999  0.5331  0.5723
 6257TIP3    H240263   5.601   2.528  13.863  1.2530 -0.8047  0.0468
 6258TIP3   OH240264   3.173   4.778  13.644 -0.1234  0.0468 -0.0724
 6258TIP3    H140265   3.239   4.711  13.661  0.0794  0.5343  1.1365
 6258TIP3    H240266   3.155   4.817  13.730 -1.4407  0.4286 -0.4922
 6259TIP3   OH240267   0.942   1.483   3.918 -0.4868 -0.4815  0.2716
 6259TIP3    H140268   0.880   1.455   3.850 -2.0231 -0.2055  1.4887
 6259TIP3    H240269   0.898   1.461   4.001  1.6188 -1.4500  1.2081
 6260TIP3   OH240270   4.831   2.665  13.749 -0.3366 -0.0065 -0.2456
 6260TIP3    H140271   4.836   2.592  13.811  0.0954  0.8413  0.7606
 6260TIP3    H240272   4.887   2.638  13.676 -3.0393 -2.2418 -1.6858
 6261TIP3   OH240273   6.685   5.051  14.371 -0.2556  0.2173  0.1057
 6261TIP3    H140274   6.654   5.052  14.462 -0.7523  0.2111 -0.0619
 6261TIP3    H240275   6.683   5.142  14.344 -5.0092 -0.1035 -1.5212
 6262TIP3   OH240276   1.426   4.826   0.535  0.2981  0.5374  0.3152
 6262TIP3    H140277   1.478   4.750   0.561 -1.4683 -0.8439  0.0935
 6262TIP3    H240278   1.489   4.894   0.514  1.9352 -0.6638  1.1724
 6263TIP3   OH240279   5.336   6.134  10.485 -0.1724 -0.5444  0.6799
 6263TIP3    H140280   5.251   6.162  10.519 -0.1797 -0.1832  0.3690
 6263TIP3    H240281   5.399   6.195  10.523 -0.2224  0.0969 -0.2292
 6264TIP3   OH240282   6.358   6.150  14.093  0.1672 -0.0343 -0.2798
 6264TIP3    H140283   6.282   6.113  14.139 -1.1892  2.8426 -0.0024
 6264TIP3    H240284   6.340   6.136  14.001 -0.8676  0.8198 -0.2265
 6265TIP3   OH240285   2.554   3.266   0.514  0.5675  0.0116 -0.2241
 6265TIP3    H140286   2.585   3.285   0.603  0.9804  0.5512 -0.4750
 6265TIP3    H240287   2.629   3.284   0.458  0.3986 -0.6101 -0.6623
 6266TIP3   OH240288   1.350   0.758   3.420 -0.1668  0.1209  0.0060
 6266TIP3    H140289   1.265   0.781   3.382  0.3560  2.0182 -0.1496
 6266TIP3    H240290   1.335   0.756   3.514 -1.1762 -3.3190 -0.1073
 6267TIP3   OH240291   2.911   1.729   0.743 -0.3416  0.1421 -0.0084
 6267TIP3    H140292   2.919   1.814   0.699  2.1454  0.0832  0.1920
 6267TIP3    H240293   3.000   1.708   0.770 -1.0585 -2.1155  0.7842
 6268TIP3   OH240294   0.339   4.010   1.953  0.2703  0.5181  0.0166
 6268TIP3    H140295   0.322   4.006   2.047  0.1756  1.5573  0.0593
 6268TIP3    H240296   0.387   3.929   1.934  0.6847  0.5043  1.0370
 6269TIP3   OH240297   5.083   0.315  13.294 -0.2783 -0.5364 -0.5705
 6269TIP3    H140298   5.049   0.298  13.382 -0.4255  1.3838 -0.2134
 6269TIP3    H240299   5.024   0.382  13.259  0.8644  0.0471 -1.4220
 6270TIP3   OH240300   1.371   3.584  13.865 -0.5341  0.3095 -0.2318
 6270TIP3    H140301   1.456   3.542  13.853 -0.0237  0.5709  2.0256
 6270TIP3    H240302   1.348   3.617  13.778  1.6094  0.1425 -0.9208
 6271TIP3   OH240303   2.034   3.179   0.386 -0.2566  0.3125  0.3066
 6271TIP3    H140304   2.123   3.197   0.418 -0.2249  0.3141  0.2197
 6271TIP3    H240305   1.980   3.178   0.464  0.1615 -1.8896  0.6419
 6272TIP3   OH240306   5.820   5.880   4.281 -0.0660  0.2060 -0.6402
 6272TIP3    H140307   5.761   5.949   4.309  0.8416  0.1843  1.4734
 6272TIP3    H240308   5.907   5.920   4.282  0.5596 -1.0663  1.2466
 6273TIP3   OH240309   3.885   5.317   4.379 -0.4051  0.0487 -0.0567
 6273TIP3    H140310   3.967   5.294   4.335  0.0745  2.4630 -0.5711
 6273TIP3    H240311   3.819   5.263   4.336  0.4258  0.5282 -2.0528
 6274TIP3   OH240312   1.611   0.067  16.266 -0.0656  0.1693  0.4734
 6274TIP3    H140313   1.568   0.148  16.237  1.1905  0.6082 -0.2084
 6274TIP3    H240314   1.568   0.046  16.349 -1.3552  0.7745 -0.0133
 6275TIP3   OH240315   6.761   4.004   5.833  0.3048 -0.1620  0.1336
 6275TIP3    H140316   6.742   4.093   5.863 -0.7381  0.1264 -1.2469
 6275TIP3    H240317   6.706   3.948   5.888  0.5623  0.0963  0.6554
 6276TIP3   OH240318   4.885   1.299  14.202  0.6974  0.2776 -0.0682
 6276TIP3    H140319   4.931   1.218  14.179 -2.8612 -1.5104 -1.6170
 6276TIP3    H240320   4.845   1.282  14.287 -0.4156  0.1708 -0.5912
 6277TIP3   OH240321   1.483   3.291  16.088  1.0292 -0.0449  0.5006
 6277TIP3    H140322   1.436   3.273  16.170  1.1751  0.7252  0.7588
 6277TIP3    H240323   1.548   3.357  16.112 -0.3469  1.8467 -0.6736
 6278TIP3   OH240324   4.583   1.297  14.100  0.1448 -0.1170  0.0723
 6278TIP3    H140325   4.677   1.314  14.099  0.0816  0.4714 -2.4417
 6278TIP3    H240326   4.575   1.201  14.096  0.6927 -0.1242 -1.4040
 6279TIP3   OH240327   2.632   2.093  15.715  0.1225 -0.1239  0.2743
 6279TIP3    H140328   2.622   2.102  15.620  0.9974 -2.5368 -0.1240
 6279TIP3    H240329   2.726   2.094  15.730 -0.0244  1.2010  1.2773
 6280TIP3   OH240330   5.576   6.214   2.775  0.1425 -0.3371  0.0186
 6280TIP3    H140331   5.629   6.174   2.706 -0.8030 -0.5619 -0.5985
 6280TIP3    H240332   5.556   6.142   2.835 -0.0660 -0.4082 -0.1356
 6281TIP3   OH240333   5.063   5.105  17.245 -0.2138  0.5392  0.3004
 6281TIP3    H140334   4.988   5.119  17.187 -1.1630  2.9805  1.9475
 6281TIP3    H240335   5.082   5.011  17.238 -2.5330  0.1129 -1.2303
 6282TIP3   OH240336   6.649   1.952   3.772  0.2845 -0.3583  0.0097
 6282TIP3    H140337   6.602   1.876   3.737  0.4569 -0.7287  0.5711
 6282TIP3    H240338   6.682   1.997   3.694  0.8323 -1.2860 -0.3135
 6283TIP3   OH240339   4.893   0.564   1.434 -0.8016  0.2923 -0.5884
 6283TIP3    H140340   4.852   0.650   1.447 -0.9960  0.0541  0.4536
 6283TIP3    H240341   4.822   0.509   1.401 -2.3367 -0.9384  4.0617
 6284TIP3   OH240342   2.594   1.494   5.049 -0.3055 -0.2319  0.0058
 6284TIP3    H140343   2.660   1.472   4.983  0.1380 -1.1654  0.7387
 6284TIP3    H240344   2.633   1.566   5.098 -0.3922  0.0799 -0.3744
 6285TIP3   OH240345   1.078   5.429   4.797 -0.3006  0.2129  0.8380
 6285TIP3    H140346   1.083   5.349   4.746 -1.7089  1.5344 -1.5555
 6285TIP3    H240347   1.169   5.453   4.814  0.1957 -0.6135 -0.5513
 6286TIP3   OH240348   4.295   5.877   1.460 -0.1510  0.0651 -0.2211
 6286TIP3    H140349   4.241   5.851   1.535  0.2346  1.1733  0.4628
 6286TIP3    H240350   4.256   5.958   1.429 -0.5663 -0.6024 -1.5221
 6287TIP3   OH240351   5.140   2.307  14.378 -0.0883 -0.0315  0.2177
 6287TIP3    H140352   5.109   2.367  14.445 -0.8269  1.7603 -1.6200
 6287TIP3    H240353   5.152   2.362  14.300  2.2188 -1.7292 -0.7221
 6288TIP3   OH240354   3.187   1.291  11.177  0.1267  0.8604 -0.2224
 6288TIP3    H140355   3.282   1.282  11.168 -0.0699 -0.0204 -1.9724
 6288TIP3    H240356   3.170   1.383  11.155  0.5896  1.1177  0.4532
 6289TIP3   OH240357   2.317   1.879   0.763 -0.1384  0.6143  0.5366
 6289TIP3    H140358   2.305   1.973   0.775  1.2091  0.8681 -0.0220
 6289TIP3    H240359   2.228   1.845   0.753 -0.5834  2.0148 -0.5941
 6290TIP3   OH240360   1.511   3.176   1.380  0.2265 -0.4908  0.5921
 6290TIP3    H140361   1.526   3.270   1.371 -0.2086 -0.6366 -3.2861
 6290TIP3    H240362   1.583   3.146   1.435  3.0646  1.5350 -1.6877
 6291TIP3   OH240363   2.462   4.770  11.651  0.1402 -0.0254 -0.3699
 6291TIP3    H140364   2.468   4.701  11.585 -1.3610  0.6548 -1.2495
 6291TIP3    H240365   2.492   4.849  11.607  0.5697  0.1500  0.2278
 6292TIP3   OH240366   3.092   4.007   0.113 -0.1050  0.0475  0.3090
 6292TIP3    H140367   3.000   3.998   0.138 -0.0209  2.1290  1.6337
 6292TIP3    H240368   3.090   4.059   0.033 -0.0855 -0.3317  0.0590
 6293TIP3   OH240369   6.615   6.266   0.078  0.1828 -0.1442  0.0748
 6293TIP3    H140370   6.694   6.281   0.027 -1.0049  0.7288 -1.6054
 6293TIP3    H240371   6.606   6.170   0.080 -0.0115 -0.2209 -1.9025
 6294TIP3   OH240372   0.310   1.190  12.545 -1.0284  0.3730  0.3321
 6294TIP3    H140373   0.224   1.169  12.580 -0.7358 -0.3978  0.6136
 6294TIP3    H240374   0.304   1.282  12.519 -1.4898  0.7386  1.6710
 6295TIP3   OH240375   6.489   5.200   2.985 -0.1843  0.0417 -0.5111
 6295TIP3    H140376   6.415   5.260   2.981  0.5322  1.0026  0.0929
 6295TIP3    H240377   6.530   5.207   2.899 -1.2452 -1.1056 -1.1232
 6296TIP3   OH240378   3.467   5.889   5.648  0.0185  0.2351 -0.2608
 6296TIP3    H140379   3.486   5.853   5.734  1.1373  1.5994  0.1015
 6296TIP3    H240380   3.535   5.854   5.591  1.0755  1.6210  0.0806
 6297TIP3   OH240381   3.083   0.427   5.292  1.1059  0.1497 -0.2371
 6297TIP3    H140382   3.034   0.382   5.223 -0.6644  3.0361 -1.0212
 6297TIP3    H240383   3.034   0.409   5.372  0.6049  0.4188 -0.4832
 6298TIP3   OH240384   4.813   5.189  13.757 -0.8183  0.0854 -0.0527
 6298TIP3    H140385   4.785   5.196  13.665 -0.5951 -0.4302 -0.1593
 6298TIP3    H240386   4.809   5.096  13.777 -1.4415  0.2517  0.6475
 6299TIP3   OH240387   4.471   0.997  12.067  0.1486 -0.6114 -0.1225
 6299TIP3    H140388   4.454   0.912  12.108  0.7051 -0.0482  1.3054
 6299TIP3    H240389   4.525   0.976  11.991 -0.4977 -1.6255 -0.3178
 6300TIP3   OH240390   6.178   2.204   1.084 -0.0528 -0.4786  0.0867
 6300TIP3    H140391   6.227   2.129   1.116  0.3986 -1.8330 -3.3535
 6300TIP3    H240392   6.234   2.280   1.104  1.8420 -1.6103 -0.6577
 6301TIP3   OH240393   3.424   1.281   2.111 -0.4093 -0.0291  0.2480
 6301TIP3    H140394   3.428   1.186   2.105  0.4125 -0.0048  0.2607
 6301TIP3    H240395   3.418   1.300   2.204 -0.6452 -0.0700  0.2411
 6302TIP3   OH240396   0.134   0.315   2.468  0.3563  0.2120 -0.2443
 6302TIP3    H140397   0.053   0.356   2.437 -0.5936 -0.6832  0.9661
 6302TIP3    H240398   0.201   0.345   2.406 -0.9356  0.7426 -1.4422
 6303TIP3   OH240399   2.947   5.579   3.147 -0.2311  0.0702  0.0062
 6303TIP3    H140400   2.923   5.625   3.066 -2.3101  1.7260  1.4344
 6303TIP3    H240401   2.869   5.586   3.202  1.1196 -0.9427  2.1958
 6304TIP3   OH240402   1.232   3.599   3.527 -0.3893 -0.4548 -0.0607
 6304TIP3    H140403   1.162   3.664   3.527 -0.9438 -1.0077  1.4938
 6304TIP3    H240404   1.312   3.651   3.522 -0.8564  0.2110 -1.2878
 6305TIP3   OH240405   2.954   3.589   1.811 -0.5251  0.3680 -0.5234
 6305TIP3    H140406   2.943   3.648   1.886  2.9059  0.4603  0.0751
 6305TIP3    H240407   2.973   3.504   1.850 -0.5967 -0.0227 -1.3228
 6306TIP3   OH240408   5.765   3.988  13.886 -0.3451  0.1080 -0.2786
 6306TIP3    H140409   5.834   3.928  13.916 -1.6415 -0.2691  2.2421
 6306TIP3    H240410   5.698   3.931  13.850 -0.6194  0.2016  0.0738
 6307TIP3   OH240411   2.467   1.203   2.835  0.0148 -0.3911 -0.1919
 6307TIP3    H140412   2.541   1.149   2.808 -2.2061 -2.7474 -2.1376
 6307TIP3    H240413   2.438   1.246   2.754 -0.9784  0.1512  0.4319
 6308TIP3   OH240414   6.453   3.944  13.739 -0.0359 -0.0872  0.7216
 6308TIP3    H140415   6.405   3.969  13.660  1.1157  0.9419  0.3134
 6308TIP3    H240416   6.545   3.947  13.713  0.4919  1.8430  2.4885
 6309TIP3   OH240417   4.706   5.330   5.345 -0.5532 -0.2991  0.7666
 6309TIP3    H140418   4.776   5.377   5.300 -1.4421  0.4279  0.1111
 6309TIP3    H240419   4.685   5.386   5.420 -0.1467 -0.7273  1.2030
 6310TIP3   OH240420   6.719   4.460   0.808 -0.6972  0.2961  0.0139
 6310TIP3    H140421   6.714   4.499   0.895 -1.1190  3.7833 -1.3958
 6310TIP3    H240422   6.628   4.455   0.779 -0.7004 -2.2856  0.2449
 6311TIP3   OH240423   5.844   0.959  17.193 -0.3867  0.2641  0.6795
 6311TIP3    H140424   5.787   1.013  17.247  1.3070  1.2494  1.5528
 6311TIP3    H240425   5.878   0.892  17.253 -2.1221 -1.6021 -0.2850
 6312TIP3   OH240426   5.027   3.066   5.797 -0.1286  0.1431 -0.0587
 6312TIP3    H140427   5.078   3.026   5.867 -0.6629 -1.4752 -0.5616
 6312TIP3    H240428   5.089   3.125   5.754  2.2653 -3.5878 -2.2765
 6313TIP3   OH240429   5.501   3.340   3.478 -0.0561  0.1733 -0.1867
 6313TIP3    H140430   5.589   3.371   3.458 -0.3049  2.1455  1.4235
 6313TIP3    H240431   5.455   3.417   3.513 -2.1150 -1.0291 -0.0458
 6314TIP3   OH240432   4.647   4.979   0.297  0.2547  0.9899  0.3463
 6314TIP3    H140433   4.624   4.908   0.357  1.3050  1.5105  1.4071
 6314TIP3    H240434   4.733   5.009   0.327  0.4978  1.7318 -1.0039
 6315TIP3   OH240435   5.425   4.661   0.681 -0.5567  0.1696 -0.4221
 6315TIP3    H140436   5.479   4.697   0.752  0.2527  0.5160 -1.1820
 6315TIP3    H240437   5.488   4.641   0.612 -1.3603  0.1271 -1.1565
 6316TIP3   OH240438   0.859   6.712   2.531  0.8337 -0.3926 -0.4151
 6316TIP3    H140439   0.864   6.806   2.546 -0.4202 -0.4104  0.2768
 6316TIP3    H240440   0.930   6.693   2.471  2.3029  0.6852  0.9129
 6317TIP3   OH240441   1.676   2.415   1.413  0.0944 -0.0584  0.0532
 6317TIP3    H140442   1.635   2.476   1.475  0.5913 -0.8392  1.1862
 6317TIP3    H240443   1.754   2.385   1.458 -0.3372 -1.8326 -0.3169
 6318TIP3   OH240444   0.387   5.722   0.800 -0.1870  0.0465 -0.0689
 6318TIP3    H140445   0.340   5.641   0.783 -0.8895  0.0065  1.7628
 6318TIP3    H240446   0.443   5.701   0.875 -2.1717  1.8358  2.0527
 6319TIP3   OH240447   2.583   2.460  12.611 -0.4019  0.0493  0.3141
 6319TIP3    H140448   2.529   2.539  12.619 -1.5757 -0.7454  0.4004
 6319TIP3    H240449   2.525   2.395  12.573 -0.1779 -1.4933  2.4488
 6320TIP3   OH240450   5.054   4.787   3.474  0.1116 -0.4088  0.6990
 6320TIP3    H140451   5.090   4.703   3.446 -1.6975 -0.7323 -0.8859
 6320TIP3    H240452   5.106   4.852   3.426  0.4228 -0.7153  0.6175
 6321TIP3   OH240453   6.033   6.431   0.953  0.3092  0.0865 -0.3791
 6321TIP3    H140454   6.011   6.524   0.947  0.1358  0.0390 -0.4790
 6321TIP3    H240455   5.993   6.402   1.035  1.4272  0.3904  0.2997
 6322TIP3   OH240456   5.106   0.498  15.615  0.0005 -0.0898  0.4433
 6322TIP3    H140457   5.152   0.580  15.635  0.5526 -0.3009  0.0613
 6322TIP3    H240458   5.015   0.516  15.636 -0.1370  1.1209 -1.0367
 6323TIP3   OH240459   1.448   2.640  17.394 -0.1842  0.7828 -0.3510
 6323TIP3    H140460   1.537   2.631  17.427 -0.6079 -0.2673  0.5728
 6323TIP3    H240461   1.454   2.707  17.326  1.3776  0.4471 -0.5800
 6324TIP3   OH240462   3.390   0.447   0.681 -0.2505  0.3061  0.4665
 6324TIP3    H140463   3.324   0.458   0.613  0.4669  0.5362 -0.2169
 6324TIP3    H240464   3.387   0.528   0.731  0.1704  0.7278 -0.1694
 6325TIP3   OH240465   2.663   1.330  13.442 -0.0987  0.3935 -0.2097
 6325TIP3    H140466   2.748   1.296  13.414 -0.4641  1.1055 -2.4618
 6325TIP3    H240467   2.602   1.258  13.424 -0.2805  0.7037 -0.8503
 6326TIP3   OH240468   1.140   0.024   3.959 -0.2218  0.4302  0.2181
 6326TIP3    H140469   1.097  -0.057   3.932 -0.8021 -0.1977  2.7942
 6326TIP3    H240470   1.225   0.021   3.915 -0.0127 -1.8445  0.6558
 6327TIP3   OH240471   2.957   0.378   5.824 -0.3173  0.3533 -0.2950
 6327TIP3    H140472   2.982   0.453   5.770  1.4715 -0.1657 -0.2505
 6327TIP3    H240473   3.003   0.391   5.907 -0.0280 -0.7352 -0.2651
 6328TIP3   OH240474   2.354   3.356  12.606  0.1424  0.2715 -0.4847
 6328TIP3    H140475   2.361   3.278  12.552  1.3823  0.1579 -0.1998
 6328TIP3    H240476   2.437   3.360  12.653 -0.5061  0.9266  0.6499
 6329TIP3   OH240477   6.126   3.350  11.162 -0.0151 -0.1834  0.0028
 6329TIP3    H140478   6.107   3.286  11.093  1.5403 -1.6552  0.8614
 6329TIP3    H240479   6.221   3.348  11.172 -0.1562  0.2918  1.8802
 6330TIP3   OH240480   0.993   4.983   0.599  0.4250 -0.0985 -0.2459
 6330TIP3    H140481   0.979   4.889   0.590  1.2863 -0.2035 -0.5953
 6330TIP3    H240482   0.943   5.022   0.527 -0.3501 -0.2424  0.2036
 6331TIP3   OH240483   2.749   3.425   4.651 -0.4643 -0.0875 -0.5957
 6331TIP3    H140484   2.816   3.383   4.705 -0.8464  0.3180  0.2016
 6331TIP3    H240485   2.689   3.353   4.628 -1.8102  0.1730  1.8014
 6332TIP3   OH240486   6.095   6.234   0.780  0.2273  0.0874 -0.2225
 6332TIP3    H140487   6.069   6.315   0.823 -0.9738 -1.4259  2.1147
 6332TIP3    H240488   6.014   6.201   0.740  0.0504 -1.1976  1.1056
 6333TIP3   OH240489   1.524   1.539  17.324 -0.3295  0.1639 -0.2291
 6333TIP3    H140490   1.462   1.585  17.381 -1.0369 -1.3734  0.3057
 6333TIP3    H240491   1.557   1.607  17.265  0.2040  1.7798  1.7741
 6334TIP3   OH240492   4.413   1.580   3.033 -0.4611 -0.2363 -0.2701
 6334TIP3    H140493   4.457   1.575   2.948 -0.8293 -0.4183 -0.4520
 6334TIP3    H240494   4.347   1.511   3.030  0.5325 -1.2760  0.7467
 6335TIP3   OH240495   1.788   0.652  14.757  0.1787  0.1596 -0.0903
 6335TIP3    H140496   1.805   0.655  14.851 -0.6645  2.0236  0.0413
 6335TIP3    H240497   1.807   0.562  14.732 -1.7333 -1.0177  2.2913
 6336TIP3   OH240498   3.511   4.799  13.131 -0.0736 -0.7783  0.2624
 6336TIP3    H140499   3.437   4.780  13.074  0.5078 -0.2635 -0.6904
 6336TIP3    H240500   3.570   4.852  13.078 -0.3701  1.3702  1.9250
 6337TIP3   OH240501   1.868   6.660   0.367 -0.0037  0.1068 -0.6009
 6337TIP3    H140502   1.806   6.721   0.408  0.4423  1.0812 -1.3340
 6337TIP3    H240503   1.921   6.628   0.440 -1.9565 -1.5036  0.1895
 6338TIP3   OH240504   3.733   2.833  13.928  0.0620  0.2024 -0.5096
 6338TIP3    H140505   3.694   2.801  13.847  0.2378 -1.5005  0.0357
 6338TIP3    H240506   3.659   2.844  13.988 -0.2815  3.0461 -1.3303
 6339TIP3   OH240507   2.631   4.056   0.808  0.3785 -0.4122  0.2039
 6339TIP3    H140508   2.712   4.081   0.853 -0.1201  1.0415  0.3317
 6339TIP3    H240509   2.661   4.009   0.730  1.4218  1.2429 -0.4460
 6340TIP3   OH240510   3.300   3.954   4.573 -0.7615 -0.4115  0.1598
 6340TIP3    H140511   3.306   3.875   4.627 -0.8636  0.3214  1.2742
 6340TIP3    H240512   3.388   3.992   4.576 -0.7854 -0.3265 -0.1401
 6341TIP3   OH240513   5.119   5.247  11.412  0.4849  0.5593 -0.1836
 6341TIP3    H140514   5.190   5.196  11.450  1.3122  1.5239 -0.3844
 6341TIP3    H240515   5.044   5.187  11.411  1.0164 -0.1569  0.9534
 6342TIP3   OH240516   4.069   3.430  13.020 -0.1720  0.1818 -0.4513
 6342TIP3    H140517   4.163   3.435  13.040 -0.1867 -1.3393  0.0621
 6342TIP3    H240518   4.026   3.430  13.105 -0.5002 -1.4091 -0.5936
 6343TIP3   OH240519   6.527   1.228  12.282  0.7674 -0.1398 -0.0219
 6343TIP3    H140520   6.473   1.307  12.281  1.2612  0.2461 -2.1923
 6343TIP3    H240521   6.481   1.167  12.225  2.3389  0.0675 -1.6068
 6344TIP3   OH240522   4.805   5.257  16.386  0.1561  0.6877  0.1492
 6344TIP3    H140523   4.803   5.202  16.464  1.8903 -1.9835 -1.5010
 6344TIP3    H240524   4.896   5.287  16.380  0.3231  0.0230 -1.2680
 6345TIP3   OH240525   1.603   6.043  12.261 -0.3005 -0.1941 -0.2582
 6345TIP3    H140526   1.528   6.088  12.299 -0.9874 -1.9727  0.5741
 6345TIP3    H240527   1.607   5.959  12.306  1.3835 -0.6973 -1.2437
 6346TIP3   OH240528   3.315   0.207  14.481  0.2043  0.5255 -0.1470
 6346TIP3    H140529   3.265   0.147  14.536  0.6634 -0.1336 -0.4329
 6346TIP3    H240530   3.259   0.284  14.472  0.9403  1.6057  3.0272
 6347TIP3   OH240531   2.546   5.177  11.416  0.4811  0.2673 -0.5122
 6347TIP3    H140532   2.587   5.177  11.503 -0.4915  1.4050 -0.0336
 6347TIP3    H240533   2.559   5.087  11.384  0.5698 -0.2695  0.9312
 6348TIP3   OH240534   1.004   5.322   0.095  0.1160  0.3969 -0.0523
 6348TIP3    H140535   1.051   5.240   0.085  1.0074  0.5741  2.2446
 6348TIP3    H240536   0.936   5.319   0.027  1.5864 -1.1390 -1.5664
 6349TIP3   OH240537   0.492   3.540   0.292 -0.2565  0.2552 -0.0177
 6349TIP3    H140538   0.435   3.519   0.366 -0.2261  1.9589  0.5407
 6349TIP3    H240539   0.541   3.459   0.275  1.1678  0.3265  3.1298
 6350TIP3   OH240540   6.227   3.574   0.626  0.1464 -0.0461  0.0024
 6350TIP3    H140541   6.247   3.481   0.637  0.9671  0.0196 -0.8012
 6350TIP3    H240542   6.305   3.620   0.657  0.1015  0.3378 -0.4382
 6351TIP3   OH240543   5.587   5.465  13.127 -0.4750 -0.3374 -0.1430
 6351TIP3    H140544   5.533   5.467  13.047  1.0182  0.1412 -1.1872
 6351TIP3    H240545   5.601   5.372  13.145 -1.2492 -0.4565 -0.1260
 6352TIP3   OH240546   0.449   3.195   2.959 -0.3088 -0.8897 -0.3469
 6352TIP3    H140547   0.511   3.161   2.895 -2.9117 -3.0931 -1.9327
 6352TIP3    H240548   0.468   3.148   3.039  0.6249 -0.8270 -0.5189
 6353TIP3   OH240549   5.012   6.306   5.451 -0.2172  0.4006 -0.2798
 6353TIP3    H140550   5.006   6.380   5.511 -1.1491 -0.5566  0.8791
 6353TIP3    H240551   4.961   6.332   5.374 -0.2765  1.0737 -0.0128
 6354TIP3   OH240552   1.553   6.731  15.399 -0.5239  0.2450 -0.4157
 6354TIP3    H140553   1.532   6.739  15.492 -1.8043  1.5961 -0.7913
 6354TIP3    H240554   1.495   6.662  15.368 -0.3864  0.0753 -0.2972
 6355TIP3   OH240555   4.210   6.297   0.031 -0.1483 -0.0720 -0.4358
 6355TIP3    H140556   4.144   6.277   0.098  0.6328 -0.8993  0.1182
 6355TIP3    H240557   4.162   6.296  -0.051 -1.2899  1.7506  0.1535
 6356TIP3   OH240558   5.495   2.993  12.539  0.0129 -0.3554 -0.2404
 6356TIP3    H140559   5.418   2.979  12.483  1.0141 -0.7166 -1.5861
 6356TIP3    H240560   5.526   2.905  12.559  0.2027 -0.2062  0.1192
 6357TIP3   OH240561   4.698   5.288   6.160 -0.0146 -0.5317 -0.3273
 6357TIP3    H140562   4.704   5.194   6.144  2.5449 -0.4334 -0.3857
 6357TIP3    H240563   4.747   5.302   6.241  1.0447  0.9182 -1.1655
 6358TIP3   OH240564   2.440   3.301  12.135 -0.2231  0.1572  0.2464
 6358TIP3    H140565   2.521   3.316  12.182 -0.0787  0.0595  0.0292
 6358TIP3    H240566   2.438   3.368  12.066 -0.3049  0.1324  0.2236
 6359TIP3   OH240567   1.117   6.141   0.305 -0.3274 -0.3483  0.0842
 6359TIP3    H140568   1.057   6.183   0.367 -0.1388 -0.0787  0.0860
 6359TIP3    H240569   1.122   6.202   0.232  0.3496 -0.1178  0.3110
 6360TIP3   OH240570   3.955   0.690  12.292  0.1400  0.0499  1.0211
 6360TIP3    H140571   3.886   0.717  12.353 -0.5516 -1.2220  0.8493
 6360TIP3    H240572   3.968   0.597  12.310  3.0561  0.5712  2.2277
 6361TIP3   OH240573   4.285   5.509  12.630  0.3690  0.4300  0.1932
 6361TIP3    H140574   4.353   5.558  12.584  0.2133  1.9728  1.5294
 6361TIP3    H240575   4.254   5.569  12.697 -0.0293 -1.4164  1.7378
 6362TIP3   OH240576   6.427   3.154   3.549 -0.8709 -0.3236  0.8541
 6362TIP3    H140577   6.473   3.233   3.578  0.3535 -0.8816  0.4933
 6362TIP3    H240578   6.366   3.185   3.482 -0.1751  0.2793  0.4872
 6363TIP3   OH240579   3.832   5.130  16.198  0.1653 -0.3765  0.2760
 6363TIP3    H140580   3.822   5.214  16.153 -1.3835 -1.2112 -1.0398
 6363TIP3    H240581   3.868   5.153  16.284 -0.9551  1.7056  0.2423
 6364TIP3   OH240582   1.493   4.717   6.542  0.0030  0.3791  0.0857
 6364TIP3    H140583   1.542   4.758   6.612  2.1833 -1.6312 -0.1335
 6364TIP3    H240584   1.493   4.781   6.471  3.2111  0.1915 -0.2286
 6365TIP3   OH240585   5.627   4.875  17.042 -0.1489  0.5294  0.2081
 6365TIP3    H140586   5.581   4.901  17.122 -0.0423 -0.0765  0.4765
 6365TIP3    H240587   5.572   4.807  17.004 -0.2560  0.8978 -0.2991
 6366TIP3   OH240588   4.408   0.297   2.978 -0.0508 -0.0577 -0.3595
 6366TIP3    H140589   4.486   0.249   2.949 -0.2212 -0.5041 -0.1005
 6366TIP3    H240590   4.380   0.251   3.057  0.4864  1.2309  0.6224
 6367TIP3   OH240591   6.428   2.606   3.380 -0.1614  0.0094 -0.3747
 6367TIP3    H140592   6.495   2.659   3.336 -0.4801  3.0064  2.3158
 6367TIP3    H240593   6.475   2.529   3.412  1.1970  0.3549 -1.4503
 6368TIP3   OH240594   3.827   3.281  15.724  0.1786 -0.2537 -0.3543
 6368TIP3    H140595   3.873   3.218  15.779  0.3592 -0.4546 -0.7343
 6368TIP3    H240596   3.881   3.360  15.727  0.7666 -0.6158 -1.1209
 6369TIP3   OH240597   3.031   1.092  13.305 -0.1742  0.2322  0.2689
 6369TIP3    H140598   3.040   1.161  13.372 -2.4945  1.1653 -0.2710
 6369TIP3    H240599   3.021   1.011  13.355 -0.3073  0.6944  1.0080
 6370TIP3   OH240600   4.897   1.796  14.771 -0.4444  0.0295 -0.2468
 6370TIP3    H140601   4.863   1.824  14.686 -0.5869 -2.5459 -1.1226
 6370TIP3    H240602   4.988   1.825  14.771  0.0824 -1.4783 -2.0978
 6371TIP3   OH240603   6.333   1.216  13.751 -0.0404 -0.1513  0.6550
 6371TIP3    H140604   6.398   1.272  13.794  1.2180 -0.5171 -0.6861
 6371TIP3    H240605   6.309   1.152  13.818  0.4446  0.4172  1.3913
 6372TIP3   OH240606   0.564   0.606  16.274  0.5233 -0.0313  0.1642
 6372TIP3    H140607   0.521   0.690  16.288 -0.3954  0.1260 -2.8871
 6372TIP3    H240608   0.529   0.549  16.343 -1.8080  1.0709 -0.0156
 6373TIP3   OH240609   6.529   3.848  13.145  0.4860 -0.4304 -0.0361
 6373TIP3    H140610   6.522   3.754  13.162 -0.9671 -0.5406 -0.9980
 6373TIP3    H240611   6.608   3.857  13.093 -0.6272 -1.5069 -2.0529
 6374TIP3   OH240612   0.491   5.509   4.369 -0.2230 -0.2784 -0.2480
 6374TIP3    H140613   0.442   5.493   4.449  1.1679 -2.4106  0.2618
 6374TIP3    H240614   0.446   5.457   4.302 -1.6861  1.8907 -1.0611
 6375TIP3   OH240615   3.242   0.921   6.373  0.8195  0.6537 -0.5182
 6375TIP3    H140616   3.313   0.979   6.400  0.9171  0.4637 -0.3601
 6375TIP3    H240617   3.183   0.917   6.449  0.8357  0.5132 -0.5118
 6376TIP3   OH240618   0.964   0.345   1.808  0.1848  0.8131 -0.1700
 6376TIP3    H140619   1.055   0.316   1.813  0.7839  2.2815 -1.6832
 6376TIP3    H240620   0.955   0.408   1.880 -0.5813 -1.4849  1.9101
 6377TIP3   OH240621   1.396   5.491   4.007  0.4740 -0.1579 -0.3901
 6377TIP3    H140622   1.437   5.407   4.027  1.2807 -0.0618 -1.5372
 6377TIP3    H240623   1.303   5.470   3.999  0.5914 -0.8298 -0.0950
 6378TIP3   OH240624   3.318   4.884  12.543 -0.2748 -0.0430 -0.5331
 6378TIP3    H140625   3.304   4.947  12.472 -0.7847 -0.3871 -0.7436
 6378TIP3    H240626   3.260   4.914  12.614  0.4161  0.4421 -0.1617
 6379TIP3   OH240627   4.218   4.692   3.930  0.6197  0.4869  0.1431
 6379TIP3    H140628   4.183   4.727   4.011  1.6669  0.4937  0.6101
 6379TIP3    H240629   4.253   4.606   3.954  0.7799  0.4120 -0.3389
 6380TIP3   OH240630   3.397   0.843  16.946 -0.3750 -0.0544  0.3232
 6380TIP3    H140631   3.313   0.885  16.963 -0.7733 -0.8867  0.4231
 6380TIP3    H240632   3.403   0.773  17.010  0.1060 -0.4058 -0.0990
 6381TIP3   OH240633   5.596   6.078   2.299 -0.2599 -0.1527 -0.1526
 6381TIP3    H140634   5.550   6.073   2.215 -1.0045  0.4078  0.2147
 6381TIP3    H240635   5.685   6.049   2.278 -0.4756 -0.1816 -1.1047
 6382TIP3   OH240636   1.891   1.735   1.280 -0.3502  0.0382 -0.0234
 6382TIP3    H140637   1.950   1.772   1.214 -0.4092  0.9476  0.4263
 6382TIP3    H240638   1.938   1.659   1.315  0.0479  0.0656 -0.4890
 6383TIP3   OH240639   4.423   0.102   3.925 -0.6509  0.2508 -0.9634
 6383TIP3    H140640   4.336   0.116   3.962 -1.1022 -1.6019 -1.2102
 6383TIP3    H240641   4.411   0.108   3.831 -0.3247  0.8299 -0.9747
 6384TIP3   OH240642   1.884   6.006  15.350 -0.2231 -0.3968  0.6671
 6384TIP3    H140643   1.838   5.927  15.325 -1.6431  0.9507 -1.3008
 6384TIP3    H240644   1.877   6.063  15.273  0.4782  1.7453  2.0953
 6385TIP3   OH240645   0.840   3.197  16.697 -0.9383 -0.8714  0.1167
 6385TIP3    H140646   0.926   3.167  16.667 -0.8897 -1.1497  0.5405
 6385TIP3    H240647   0.781   3.173  16.626 -0.6201 -0.4039 -0.3138
 6386TIP3   OH240648   3.378   3.819  13.236 -0.1085 -0.5207 -0.9842
 6386TIP3    H140649   3.450   3.755  13.231  0.4107 -0.1060  0.4928
 6386TIP3    H240650   3.345   3.809  13.326  0.7384  2.0456 -0.3007
 6387TIP3   OH240651   4.939   3.056   1.572 -0.2596  0.1637 -0.1963
 6387TIP3    H140652   4.867   3.040   1.634  0.6926 -0.2653  0.8213
 6387TIP3    H240653   4.905   3.124   1.514 -0.4082  2.2381  2.1540
 6388TIP3   OH240654   2.065   6.258   3.967 -0.0977 -0.3827 -0.4423
 6388TIP3    H140655   2.056   6.335   4.022  0.3923  1.5827 -2.9335
 6388TIP3    H240656   2.152   6.224   3.986  0.5583  1.0154 -0.8795
 6389TIP3   OH240657   2.371   1.591  16.172 -0.4041 -0.2337  0.9645
 6389TIP3    H140658   2.371   1.508  16.219 -0.3925 -0.7094  0.1547
 6389TIP3    H240659   2.462   1.621  16.174  0.1633 -1.5972 -0.9958
 6390TIP3   OH240660   4.582   5.251  16.241  0.5316 -0.7413 -0.1505
 6390TIP3    H140661   4.677   5.253  16.252  0.4651  1.3033  0.3906
 6390TIP3    H240662   4.566   5.301  16.161 -0.0954 -1.1413 -0.2851
 6391TIP3   OH240663   0.230   2.506  16.915 -0.5753 -0.2992  0.0870
 6391TIP3    H140664   0.176   2.585  16.906 -0.1062 -0.0783 -0.9890
 6391TIP3    H240665   0.248   2.500  17.009 -2.4436 -0.3747  0.4820
 6392TIP3   OH240666   5.392   2.651  12.770  0.0121  0.1120 -0.6502
 6392TIP3    H140667   5.344   2.569  12.784 -1.3014  0.9304 -0.1683
 6392TIP3    H240668   5.453   2.631  12.699 -0.2018 -1.3132 -0.4620
 6393TIP3   OH240669   0.909   1.306   4.236 -0.2828 -0.2221  0.4860
 6393TIP3    H140670   0.851   1.369   4.193  1.2772 -0.2927 -1.9078
 6393TIP3    H240671   0.993   1.352   4.244  0.6261 -1.6416 -0.4592
 6394TIP3   OH240672   0.760   2.589  13.632  0.3868 -0.4240  0.1281
 6394TIP3    H140673   0.706   2.669  13.633  0.4551 -0.3823  0.4377
 6394TIP3    H240674   0.705   2.524  13.589  0.0523 -0.4063  0.5234
 6395TIP3   OH240675   1.323   0.189   1.549 -1.0401 -0.5473  0.5536
 6395TIP3    H140676   1.345   0.125   1.481 -1.1130 -0.2782  0.2746
 6395TIP3    H240677   1.292   0.266   1.501  0.2786  0.1904  0.8219
 6396TIP3   OH240678   1.485   1.844  12.039  0.3031 -0.5408 -0.3904
 6396TIP3    H140679   1.521   1.895  11.967  0.6882 -1.4713 -0.8682
 6396TIP3    H240680   1.527   1.880  12.117  0.2514  0.1459 -0.6738
 6397TIP3   OH240681   1.932   2.704  14.640  0.0583  0.0082  0.3225
 6397TIP3    H140682   2.016   2.718  14.682 -0.6992  1.9052  1.3278
 6397TIP3    H240683   1.927   2.609  14.625  2.5473 -0.0930 -0.2267
 6398TIP3   OH240684   6.722   0.527   5.642  0.1254 -0.5879 -0.1815
 6398TIP3    H140685   6.633   0.560   5.633  0.4325  0.2048 -0.4098
 6398TIP3    H240686   6.771   0.601   5.680  0.6729 -1.0257 -0.0218
 6399TIP3   OH240687   1.604   3.496   3.147 -0.5718 -0.0315  0.2015
 6399TIP3    H140688   1.654   3.415   3.156 -0.2310  0.2063  0.4606
 6399TIP3    H240689   1.610   3.517   3.053  1.3735  0.9637  0.4920
 6400TIP3   OH240690   0.321   2.237  12.401 -0.2687 -0.1815 -0.4029
 6400TIP3    H140691   0.259   2.224  12.472 -1.9099 -0.0371 -1.7498
 6400TIP3    H240692   0.333   2.150  12.363 -3.2291  0.3413 -2.9326
 6401TIP3   OH240693   4.460   6.404  15.147  0.3734  0.2734 -0.2943
 6401TIP3    H140694   4.527   6.436  15.207  1.1473 -0.3983 -0.7749
 6401TIP3    H240695   4.498   6.415  15.059 -0.1464 -0.1050 -0.5761
 6402TIP3   OH240696   3.468   0.188   2.220  0.0761 -0.5696 -0.4116
 6402TIP3    H140697   3.477   0.160   2.129 -1.7587 -2.0837 -0.1969
 6402TIP3    H240698   3.432   0.112   2.265 -1.8917  1.0695  0.9675
 6403TIP3   OH240699   0.204   1.572   1.040  0.2607  0.2836  0.7548
 6403TIP3    H140700   0.133   1.564   0.976 -0.1397  1.0860  1.0753
 6403TIP3    H240701   0.242   1.484   1.046 -0.0114  0.0921 -0.2129
 6404TIP3   OH240702   5.149   4.687   3.878 -0.7054  0.0271  0.2968
 6404TIP3    H140703   5.077   4.721   3.824 -0.3751 -1.9105 -1.5002
 6404TIP3    H240704   5.108   4.622   3.934 -0.2673 -2.2157 -1.8031
 6405TIP3   OH240705   5.286   6.194  15.962  0.2879 -0.2635  0.6086
 6405TIP3    H140706   5.330   6.173  16.045  3.8629  0.6143 -0.8489
 6405TIP3    H240707   5.338   6.147  15.896 -1.1911  0.6973 -1.3338
 6406TIP3   OH240708   1.182   2.144  15.909 -0.4070  0.2879 -0.1908
 6406TIP3    H140709   1.151   2.093  15.834  1.1377 -1.3277  0.2039
 6406TIP3    H240710   1.125   2.220  15.911 -1.6507 -0.5262 -1.9145
 6407TIP3   OH240711   0.910   2.390  16.657  0.0698  0.0463  0.8123
 6407TIP3    H140712   0.996   2.375  16.696  0.8233 -1.6342 -1.2632
 6407TIP3    H240713   0.848   2.366  16.726  1.2987 -1.2436  1.5322
 6408TIP3   OH240714   0.261   1.553  15.128 -0.0616 -0.2882  0.2624
 6408TIP3    H140715   0.193   1.593  15.075 -1.5061 -1.6309  1.0272
 6408TIP3    H240716   0.315   1.626  15.158 -1.4459  0.8528  0.0262
 6409TIP3   OH240717   2.176   4.891   4.848 -0.7120  0.3357 -0.0152
 6409TIP3    H140718   2.103   4.902   4.909  1.0044 -2.0971  2.7658
 6409TIP3    H240719   2.235   4.963   4.868 -1.2988  1.0576 -0.7647
 6410TIP3   OH240720   4.532   3.668  15.025 -0.5286  0.2858  0.1989
 6410TIP3    H140721   4.459   3.676  14.962  0.7439 -0.5255 -1.4562
 6410TIP3    H240722   4.611   3.675  14.971  0.6241 -1.1882  1.6004
 6411TIP3   OH240723   4.904   3.118  14.388  0.4289  0.0265 -0.1757
 6411TIP3    H140724   4.881   3.052  14.323 -1.3283  1.7275 -1.4350
 6411TIP3    H240725   4.830   3.118  14.450  0.1407  1.0993 -0.4879
 6412TIP3   OH240726   5.102   0.701  11.696  0.2537  0.3313 -0.3716
 6412TIP3    H140727   5.045   0.746  11.759  2.2144 -0.4168  2.1102
 6412TIP3    H240728   5.179   0.676  11.747  0.5508 -3.3086 -2.2572
 6413TIP3   OH240729   4.486   6.738   3.311 -0.4396 -0.1578  0.0192
 6413TIP3    H140730   4.532   6.796   3.371 -1.4585  0.0944  0.5664
 6413TIP3    H240731   4.529   6.653   3.322 -0.1680  0.0497  0.5891
 6414TIP3   OH240732   3.895   6.319  16.032  0.5868 -0.1301 -0.1172
 6414TIP3    H140733   3.947   6.240  16.021 -1.2591 -1.5169  0.6283
 6414TIP3    H240734   3.898   6.337  16.126  1.1897  0.8599 -0.3071
 6415TIP3   OH240735   3.360   3.240  10.767 -0.6535  0.3784  0.3193
 6415TIP3    H140736   3.360   3.327  10.806 -0.1292 -0.2520  1.7876
 6415TIP3    H240737   3.271   3.207  10.779 -0.9656  0.8509 -0.6071
 6416TIP3   OH240738   4.905   2.242   3.432  0.0058  0.4739  1.0597
 6416TIP3    H140739   4.894   2.148   3.418  0.1676  0.4829  0.8603
 6416TIP3    H240740   4.932   2.250   3.524 -1.7204  0.4614  1.6047
 6417TIP3   OH240741   1.816   5.105   5.570 -0.4481 -0.5078 -0.2077
 6417TIP3    H140742   1.837   5.135   5.482 -1.4117 -1.9997 -0.9937
 6417TIP3    H240743   1.901   5.082   5.609  0.0468  0.7782 -0.4766
 6418TIP3   OH240744   1.696   6.127   4.382 -0.7286  0.4688 -0.2749
 6418TIP3    H140745   1.759   6.103   4.314 -0.4209  0.7088 -0.0711
 6418TIP3    H240746   1.727   6.083   4.461 -0.5656  0.9497 -0.0705
 6419TIP3   OH240747   2.257   4.059  13.046  0.2918 -0.3700  0.0742
 6419TIP3    H140748   2.296   4.048  12.960  2.2193  1.3200  0.6430
 6419TIP3    H240749   2.283   3.980  13.095  0.0875 -0.8339 -0.5525
 6420TIP3   OH240750   6.519   6.363  15.416 -0.5251  0.0465  0.4556
 6420TIP3    H140751   6.488   6.289  15.364 -0.0702  0.2166 -0.0702
 6420TIP3    H240752   6.441   6.398  15.459 -1.1264  0.6849 -1.1127
 6421TIP3   OH240753   0.378   1.021   3.782  0.4451 -0.2109  0.1166
 6421TIP3    H140754   0.360   0.928   3.769  0.2205 -0.0753 -0.6391
 6421TIP3    H240755   0.451   1.040   3.722  0.8002  0.0001  0.6093
 6422TIP3   OH240756   0.347   5.182  13.414  0.1226  0.0869 -0.3436
 6422TIP3    H140757   0.353   5.088  13.430 -0.5706  0.1600  0.3720
 6422TIP3    H240758   0.299   5.189  13.332 -1.4137 -0.1535  0.5031
 6423TIP3   OH240759   2.511   4.533  10.803 -0.5318 -0.1807 -0.1505
 6423TIP3    H140760   2.441   4.579  10.757  0.5549  2.8763  1.0514
 6423TIP3    H240761   2.486   4.535  10.895  0.2051 -0.8140  0.0809
 6424TIP3   OH240762   2.768   1.518  15.155  0.1160 -0.0315  0.6604
 6424TIP3    H140763   2.863   1.513  15.154  0.1155 -1.0296  2.3713
 6424TIP3    H240764   2.742   1.502  15.064  1.5320 -0.7767  0.3627
 6425TIP3   OH240765   5.437   1.017   5.472  0.2174 -0.5276  0.2227
 6425TIP3    H140766   5.483   0.934   5.464  0.1261 -0.4859 -0.8521
 6425TIP3    H240767   5.350   1.001   5.437 -0.2214 -0.2970  1.1687
 6426TIP3   OH240768   1.183   2.339   6.304 -0.4577  0.3038 -0.1649
 6426TIP3    H140769   1.196   2.257   6.352 -1.2526  0.0085 -0.4484
 6426TIP3    H240770   1.173   2.405   6.373  0.7731  0.2702  0.0635
 6427TIP3   OH240771   4.772   0.828  13.158  0.2887 -0.7168 -0.0626
 6427TIP3    H140772   4.684   0.792  13.172  0.6841 -1.9963 -0.7220
 6427TIP3    H240773   4.773   0.856  13.067  0.7424 -1.2474 -0.2266
 6428TIP3   OH240774   5.667   4.034   3.871 -0.1803  0.0938 -0.5647
 6428TIP3    H140775   5.712   4.115   3.846  0.7375 -0.9676 -2.5971
 6428TIP3    H240776   5.623   4.006   3.791  0.9542 -2.3004 -0.4394
 6429TIP3   OH240777   4.101   0.023   3.015 -0.3023 -0.2369  0.0404
 6429TIP3    H140778   4.090  -0.050   3.076 -0.0190  1.0414  1.6806
 6429TIP3    H240779   4.084  -0.016   2.929 -0.4759 -2.1548  0.8781
 6430TIP3   OH240780   5.140   1.883   1.434 -0.4547  0.0642  0.6377
 6430TIP3    H140781   5.217   1.915   1.480  2.0647  0.1494 -3.1333
 6430TIP3    H240782   5.151   1.788   1.430 -2.0491 -0.2427  2.3218
 6431TIP3   OH240783   0.735   6.187   0.804  0.1811  0.0627 -0.5695
 6431TIP3    H140784   0.743   6.187   0.899  0.9287  0.2931 -0.6235
 6431TIP3    H240785   0.673   6.258   0.785  0.2960  0.2410 -0.2760
 6432TIP3   OH240786   4.646   5.554   0.189  0.4431 -0.0637  0.5539
 6432TIP3    H140787   4.730   5.539   0.233 -1.0329 -2.3359  2.9087
 6432TIP3    H240788   4.596   5.605   0.253 -1.4029 -2.5268  1.2070
 6433TIP3   OH240789   1.804   3.810  16.101 -0.4260  0.0431 -0.0601
 6433TIP3    H140790   1.762   3.896  16.105 -0.2815  0.0932  2.3451
 6433TIP3    H240791   1.737   3.750  16.133  0.3777 -0.2822  1.0691
 6434TIP3   OH240792   6.226   5.612  11.789  0.0134 -0.3793 -0.0666
 6434TIP3    H140793   6.134   5.602  11.765 -0.1902 -0.4641  0.7246
 6434TIP3    H240794   6.259   5.523  11.795 -0.0819 -0.3787  0.5006
 6435TIP3   OH240795   0.638   5.248   4.455 -0.3693 -0.0374  0.4104
 6435TIP3    H140796   0.656   5.339   4.434 -0.2022 -0.2057 -0.2098
 6435TIP3    H240797   0.701   5.199   4.402  0.0788 -0.4829  1.3355
 6436TIP3   OH240798   1.755   0.063   4.118  0.3078 -0.3701 -0.1477
 6436TIP3    H140799   1.718   0.005   4.185  1.4507  0.0032  0.8333
 6436TIP3    H240800   1.738   0.151   4.150 -1.3382 -0.0984 -1.5928
 6437TIP3   OH240801   5.810   2.549   5.597 -0.3703  0.2360  0.2742
 6437TIP3    H140802   5.834   2.554   5.689  2.2092  0.4792 -0.3495
 6437TIP3    H240803   5.891   2.527   5.552 -2.0718 -2.6981 -1.7063
 6438TIP3   OH240804   1.790   1.907   0.950  0.3417 -0.9380  0.3664
 6438TIP3    H140805   1.871   1.958   0.953  0.7680 -1.6114  0.6242
 6438TIP3    H240806   1.735   1.945   1.019  1.0388 -1.4448  1.2220
 6439TIP3   OH240807   6.056   3.340  17.147 -0.1642  0.2989 -0.7260
 6439TIP3    H140808   5.975   3.311  17.188 -0.1375  1.4785  0.2255
 6439TIP3    H240809   6.095   3.260  17.112 -1.2285 -0.4351 -0.2913
 6440TIP3   OH240810   4.617   5.397   1.980 -0.2304  0.7883 -0.7292
 6440TIP3    H140811   4.533   5.419   2.019  0.1892  3.3728 -1.0747
 6440TIP3    H240812   4.680   5.402   2.053 -0.1848  0.1398 -0.7173
 6441TIP3   OH240813   0.601   3.262   4.539 -0.3573 -0.1799 -0.4329
 6441TIP3    H140814   0.643   3.178   4.558 -0.5844 -0.0146  0.9149
 6441TIP3    H240815   0.661   3.307   4.480 -0.2895 -1.3381 -1.2600
 6442TIP3   OH240816   0.077   5.276  12.004 -0.5311  0.0326  0.3717
 6442TIP3    H140817   0.081   5.244  11.914 -0.4107 -0.4557  0.5459
 6442TIP3    H240818   0.169   5.280  12.031 -0.5472  0.5075  0.3617
 6443TIP3   OH240819   5.753   0.601  15.206 -0.4324  0.1950 -0.1414
 6443TIP3    H140820   5.746   0.674  15.267 -1.2470  0.4960 -0.5714
 6443TIP3    H240821   5.666   0.595  15.166  0.5602  1.2278 -2.6533
 6444TIP3   OH240822   0.341   1.888  17.306 -0.0389 -0.4454 -0.7142
 6444TIP3    H140823   0.387   1.834  17.371 -0.5964 -0.1797 -0.0910
 6444TIP3    H240824   0.334   1.832  17.229 -0.8755 -1.3822  0.0173
 6445TIP3   OH240825   4.556   0.232  11.691  0.6866 -0.1298  0.2233
 6445TIP3    H140826   4.579   0.207  11.601  0.7000  0.7117 -0.0174
 6445TIP3    H240827   4.522   0.151  11.730  0.9981 -0.5912 -0.4300
 6446TIP3   OH240828   1.753   3.992   3.286  0.0966 -0.1038 -0.3681
 6446TIP3    H140829   1.683   3.930   3.266  0.7586 -0.5396 -1.4261
 6446TIP3    H240830   1.820   3.974   3.220 -0.0475  2.3349 -1.2883
 6447TIP3   OH240831   2.130   5.945  13.782  0.4749  0.1976  0.4377
 6447TIP3    H140832   2.190   6.018  13.769 -0.5825  1.5483  2.5600
 6447TIP3    H240833   2.165   5.898  13.857  0.5399 -0.8365 -0.2313
 6448TIP3   OH240834   3.208   5.596   5.848  0.1327  0.6522 -0.7450
 6448TIP3    H140835   3.209   5.669   5.786 -1.4226  1.6617  0.3462
 6448TIP3    H240836   3.248   5.632   5.928 -0.1036  0.1197 -0.3870
 6449TIP3   OH240837   0.389   6.158  12.665  0.1374  0.9560 -0.5445
 6449TIP3    H140838   0.404   6.186  12.756  0.9085  1.6879 -0.8842
 6449TIP3    H240839   0.408   6.064  12.666 -0.9628  0.7097  0.2807
 6450TIP3   OH240840   3.361   0.819   0.106  0.6938 -0.5786 -0.2011
 6450TIP3    H140841   3.368   0.910   0.135  0.2165 -0.9115  1.0060
 6450TIP3    H240842   3.444   0.780   0.133 -0.0051 -1.0469  1.3484
 6451TIP3   OH240843   4.285   2.728   3.722 -0.5756 -0.1476 -0.4040
 6451TIP3    H140844   4.226   2.728   3.798 -0.9849  0.7438 -0.7053
 6451TIP3    H240845   4.319   2.817   3.718  0.2787 -0.4753 -0.6405
 6452TIP3   OH240846   0.366   0.421  15.539  0.5887  0.0139  0.4727
 6452TIP3    H140847   0.388   0.479  15.466 -0.2509  1.2244  1.1535
 6452TIP3    H240848   0.302   0.470  15.590  0.1972 -1.3399  1.3259
 6453TIP3   OH240849   1.764   3.184   5.931  0.0638 -0.3240  0.4869
 6453TIP3    H140850   1.706   3.260   5.939 -0.8806 -1.0628  0.9212
 6453TIP3    H240851   1.773   3.170   5.837 -1.9851 -1.2737  0.3635
 6454TIP3   OH240852   6.367   6.350   4.057  0.5968  0.8038 -0.3302
 6454TIP3    H140853   6.378   6.340   3.962 -1.5385  0.7999 -0.6248
 6454TIP3    H240854   6.432   6.415   4.082  2.0153 -0.0812 -1.5859
 6455TIP3   OH240855   3.703   0.348   3.113  0.4035 -0.0002  0.1832
 6455TIP3    H140856   3.715   0.421   3.052 -0.1392 -0.0760 -0.0124
 6455TIP3    H240857   3.744   0.379   3.195  1.9674 -0.2544 -0.4591
 6456TIP3   OH240858   0.239   5.253  11.550 -0.5172 -0.7121  0.3998
 6456TIP3    H140859   0.263   5.324  11.609 -0.0397 -1.0970  0.6782
 6456TIP3    H240860   0.208   5.297  11.471  3.1758 -0.0867 -0.8799
 6457TIP3   OH240861   4.011   3.655  14.650  0.2034 -0.2676  0.2669
 6457TIP3    H140862   4.079   3.606  14.696  0.7856 -0.7294 -1.0403
 6457TIP3    H240863   4.044   3.663  14.561 -1.3472 -0.2675 -0.3233
 6458TIP3   OH240864   1.525   1.204  16.866 -0.0190 -0.4575  0.1001
 6458TIP3    H140865   1.496   1.261  16.937 -0.8436 -0.8666  0.1039
 6458TIP3    H240866   1.541   1.263  16.792 -0.4606 -0.1788  0.2271
 6459TIP3   OH240867   0.483   1.388   0.680 -0.9754  0.2920  0.4917
 6459TIP3    H140868   0.495   1.471   0.634 -0.1776 -0.0960 -0.0164
 6459TIP3    H240869   0.396   1.395   0.719 -0.2649  2.0317  1.8536
 6460TIP3   OH240870   3.123   0.581   5.643 -0.5504  0.5052  0.2599
 6460TIP3    H140871   3.113   0.490   5.617 -2.1035  0.8097 -0.3032
 6460TIP3    H240872   3.200   0.612   5.595  1.0746 -0.9538  1.8070
 6461TIP3   OH240873   1.471   1.743   0.780 -0.0197 -0.0610  0.0898
 6461TIP3    H140874   1.404   1.732   0.847  2.1579 -2.8474  2.0677
 6461TIP3    H240875   1.467   1.662   0.728 -0.1177  1.0538 -1.7371
 6462TIP3   OH240876   3.578   3.542  15.426  0.5737  0.5496 -0.3293
 6462TIP3    H140877   3.551   3.594  15.350 -0.8401 -0.6820 -0.7095
 6462TIP3    H240878   3.499   3.495  15.453  1.3180  0.1067  1.2391
 6463TIP3   OH240879   6.483   1.753   4.872  0.1320 -0.0821 -0.2472
 6463TIP3    H140880   6.529   1.825   4.917 -0.5697 -0.1826  0.6581
 6463TIP3    H240881   6.398   1.748   4.915 -0.0110 -1.1493 -0.6184
 6464TIP3   OH240882   3.833   0.407   4.228  0.2352  0.1836  0.6455
 6464TIP3    H140883   3.831   0.374   4.138  2.1019  2.4590 -0.3602
 6464TIP3    H240884   3.788   0.492   4.224  1.8443  1.1373  1.3853
 6465TIP3   OH240885   0.377   2.372   3.407 -0.3616 -0.0594 -0.8811
 6465TIP3    H140886   0.370   2.287   3.450 -1.2793 -0.4566 -1.7941
 6465TIP3    H240887   0.453   2.413   3.449  0.3207 -1.4587 -0.6777
 6466TIP3   OH240888   6.319   6.769   0.248 -0.3215  0.0128 -0.2303
 6466TIP3    H140889   6.234   6.769   0.291 -0.3577  1.4841 -0.2562
 6466TIP3    H240890   6.327   6.682   0.210 -0.9178 -0.8339  1.5126
 6467TIP3   OH240891   2.185   5.789   1.014  0.5340 -0.0693 -0.2171
 6467TIP3    H140892   2.150   5.709   0.975  0.2908 -0.1421  0.1477
 6467TIP3    H240893   2.180   5.775   1.109  2.5224 -0.4910 -0.1481
 6468TIP3   OH240894   4.095   0.400  16.477  0.2751  0.2150 -0.9692
 6468TIP3    H140895   4.031   0.361  16.418 -2.4785  0.9799  1.2866
 6468TIP3    H240896   4.083   0.494  16.467 -0.7394  0.3747  1.1532
 6469TIP3   OH240897   3.413   2.992  16.343 -0.0486 -0.2604  0.7560
 6469TIP3    H140898   3.505   3.001  16.318 -0.2386 -0.2072  0.0436
 6469TIP3    H240899   3.404   3.049  16.419  0.6587 -0.7846  1.2473
 6470TIP3   OH240900   5.935   2.462  14.705 -0.3521 -0.0765 -0.5785
 6470TIP3    H140901   5.974   2.377  14.727  1.1659  0.1488 -2.1454
 6470TIP3    H240902   6.008   2.512  14.667 -1.9373  0.7696 -2.6770
 6471TIP3   OH240903   0.259   0.749   3.026 -0.3484 -0.7324  0.6069
 6471TIP3    H140904   0.246   0.843   3.009  0.5913 -0.9274 -1.5328
 6471TIP3    H240905   0.324   0.745   3.096 -0.4093  0.2141  0.7284
 6472TIP3   OH240906   2.510   0.077   0.685 -0.0406  0.2528  0.5308
 6472TIP3    H140907   2.509   0.061   0.590  1.5523  1.6332  0.2185
 6472TIP3    H240908   2.564   0.156   0.694 -0.8409  0.6213  2.5353
 6473TIP3   OH240909   5.484   1.524   5.563  0.2257  0.6304 -0.6295
 6473TIP3    H140910   5.565   1.506   5.515  0.7867  1.1977  0.0679
 6473TIP3    H240911   5.426   1.452   5.540  0.7004  0.5574 -1.6496
 6474TIP3   OH240912   1.362   5.990  15.544  0.5248 -0.2370 -0.0794
 6474TIP3    H140913   1.455   5.980  15.524  0.8692 -3.9415  2.4234
 6474TIP3    H240914   1.321   5.912  15.507 -0.7502 -0.9534  2.6175
 6475TIP3   OH240915   0.412   4.700  14.323 -0.4017 -0.2975 -0.4916
 6475TIP3    H140916   0.353   4.669  14.392  1.2245 -1.4212  0.4691
 6475TIP3    H240917   0.391   4.792  14.313 -2.4817 -0.7191 -0.3850
 6476TIP3   OH240918   3.535   1.484   4.042 -0.2629  0.4101  0.0866
 6476TIP3    H140919   3.485   1.514   4.118 -0.2061 -0.3128  0.4151
 6476TIP3    H240920   3.546   1.563   3.988  0.6616  1.2039  1.3655
 6477TIP3   OH240921   0.218   2.537   4.960  0.3853 -0.2053  0.3039
 6477TIP3    H140922   0.147   2.486   5.000  0.9905 -1.0513  0.3361
 6477TIP3    H240923   0.296   2.481   4.970  0.7519 -0.0065 -1.1576
 6478TIP3   OH240924   2.672   4.020  15.449  0.3325  0.8225  0.0644
 6478TIP3    H140925   2.669   3.947  15.510 -0.1378  0.6070 -0.2130
 6478TIP3    H240926   2.583   4.056  15.449  0.2888  0.7345 -0.5907
 6479TIP3   OH240927   1.960   2.889   0.097 -0.0383  0.3204  0.0748
 6479TIP3    H140928   1.978   2.818   0.158  1.6202  1.0037  0.4227
 6479TIP3    H240929   2.005   2.864   0.016 -1.5478 -0.1892 -0.6608
 6480TIP3   OH240930   5.753   4.344  14.911  0.0793 -0.8053 -0.0637
 6480TIP3    H140931   5.667   4.356  14.953 -1.5843 -3.8873 -2.1463
 6480TIP3    H240932   5.799   4.283  14.969  0.2744 -0.3009  0.3164
 6481TIP3   OH240933   5.577   0.899   0.044 -0.0597 -0.0317 -0.3067
 6481TIP3    H140934   5.637   0.963   0.006  0.9579  0.2357  1.6002
 6481TIP3    H240935   5.497   0.908  -0.007  1.1824  0.2896 -2.3191
 6482TIP3   OH240936   1.635   5.704  11.983  0.2530  0.0311 -0.4404
 6482TIP3    H140937   1.698   5.688  12.053 -0.2181 -2.3600 -0.4986
 6482TIP3    H240938   1.687   5.702  11.903  0.2520 -1.1913 -0.4299
 6483TIP3   OH240939   4.862   4.974  15.906 -0.1048 -0.0017  0.1561
 6483TIP3    H140940   4.775   4.935  15.897 -0.2456  0.5472 -1.0621
 6483TIP3    H240941   4.885   4.960  15.998 -0.8474 -1.4592  0.1550
 6484TIP3   OH240942   6.104   5.003   1.901  0.5915 -0.6050 -0.1725
 6484TIP3    H140943   6.104   4.997   1.996 -3.0960 -1.0112 -0.0494
 6484TIP3    H240944   6.164   5.075   1.881  0.7621  0.1084  2.5330
 6485TIP3   OH240945   5.894   3.337  12.076  0.1322  0.3767  0.5793
 6485TIP3    H140946   5.898   3.422  12.031  1.3185  0.2168  0.3475
 6485TIP3    H240947   5.981   3.299  12.063  0.1042 -0.2221  1.9485
 6486TIP3   OH240948   3.111   1.601   2.168  0.0213  0.0660 -0.2400
 6486TIP3    H140949   3.160   1.554   2.101  0.4413 -0.0777  0.1639
 6486TIP3    H240950   3.152   1.575   2.251  0.3616  1.2578 -0.0169
 6487TIP3   OH240951   0.432   6.555   0.856  0.2797 -0.9145  0.2247
 6487TIP3    H140952   0.364   6.617   0.828  1.7178 -0.4067 -2.3560
 6487TIP3    H240953   0.419   6.549   0.951 -2.4264  0.2612  0.0403
 6488TIP3   OH240954   4.828   4.572  16.459  0.4646 -0.3690 -0.1932
 6488TIP3    H140955   4.843   4.587  16.552  1.2832 -1.2033 -0.1766
 6488TIP3    H240956   4.792   4.483  16.454 -0.3406 -0.0341 -0.6155
 6489TIP3   OH240957   5.300   2.151  12.189 -0.3889 -0.1637 -0.3710
 6489TIP3    H140958   5.269   2.084  12.128 -0.5186  0.2991 -0.8233
 6489TIP3    H240959   5.395   2.151  12.178 -0.4252  0.0299 -0.6957
 6490TIP3   OH240960   2.412   4.795   0.154  0.3762  0.3121 -0.6657
 6490TIP3    H140961   2.458   4.736   0.094  2.7092 -0.0275  1.3268
 6490TIP3    H240962   2.370   4.737   0.217  0.8096  0.7344  0.0171
 6491TIP3   OH240963   5.689   2.462   2.596  0.1479 -0.0272  0.6033
 6491TIP3    H140964   5.617   2.402   2.616 -2.2642  2.5472  0.2777
 6491TIP3    H240965   5.728   2.428   2.515 -1.7061 -0.7106 -0.0438
 6492TIP3   OH240966   3.090   6.550  12.241 -0.0195  0.2308 -0.0016
 6492TIP3    H140967   3.076   6.508  12.156 -0.8469 -1.1955  0.7839
 6492TIP3    H240968   3.115   6.640  12.220 -2.3676  0.5685 -1.7170
 6493TIP3   OH240969   2.659   3.680  13.241 -0.5770 -0.6385  0.0621
 6493TIP3    H140970   2.745   3.659  13.277 -0.2467  0.0091 -0.3278
 6493TIP3    H240971   2.617   3.595  13.227  0.9102 -1.1138 -1.9696
 6494TIP3   OH240972   5.268   1.613   5.328  0.6881 -0.2781 -0.7296
 6494TIP3    H140973   5.358   1.641   5.313  0.1983  0.6560 -2.1248
 6494TIP3    H240974   5.255   1.539   5.269  0.3146  0.0726 -1.0891
 6495TIP3   OH240975   5.506   4.837   5.098 -0.5482  0.4684  0.0924
 6495TIP3    H140976   5.536   4.889   5.172  1.7575 -2.1058  1.1340
 6495TIP3    H240977   5.411   4.834   5.108 -0.4837  1.9274  1.6969
 6496TIP3   OH240978   3.351   2.004   2.356  0.0814 -0.4815 -0.3450
 6496TIP3    H140979   3.281   2.068   2.370 -1.6212 -2.2434 -0.2367
 6496TIP3    H240980   3.377   2.017   2.265 -0.6194  0.0216 -0.4872
 6497TIP3   OH240981   1.835   5.699  12.172 -0.0708  0.3507  0.3784
 6497TIP3    H140982   1.914   5.710  12.120 -0.2104  0.3430  0.1598
 6497TIP3    H240983   1.842   5.764  12.242 -0.2369  0.8721 -0.0901
 6498TIP3   OH240984   4.724   6.767  15.067  0.2851 -0.7112 -0.4346
 6498TIP3    H140985   4.715   6.863  15.067 -0.6197 -0.7849 -1.0679
 6498TIP3    H240986   4.813   6.752  15.098 -0.0276  0.2993  1.0926
 6499TIP3   OH240987   2.972   2.647  15.320 -0.3774  0.2663  0.1235
 6499TIP3    H140988   3.061   2.682  15.314 -0.8037  1.5765  1.1301
 6499TIP3    H240989   2.935   2.687  15.399 -1.2914 -1.5861  0.7038
 6500TIP3   OH240990   4.489   5.988   6.337  0.0616 -0.0633  0.1328
 6500TIP3    H140991   4.504   6.035   6.255  0.2195 -0.8039 -0.2711
 6500TIP3    H240992   4.573   5.990   6.382  0.0185  0.1969  0.2059
 6501TIP3   OH240993   5.182   4.781  13.191 -0.0462  0.2188  0.1256
 6501TIP3    H140994   5.116   4.712  13.201 -3.0738  2.6248 -1.6709
 6501TIP3    H240995   5.207   4.777  13.099  0.7398  0.7239  0.3075
 6502TIP3   OH240996   6.001   6.726   3.177 -0.2721  0.3680  0.6877
 6502TIP3    H140997   6.005   6.802   3.235  3.9953  0.6796  0.3178
 6502TIP3    H240998   6.023   6.652   3.233  0.1710  0.1078  0.1734
 6503TIP3   OH240999   0.616   3.493  13.364  0.7839 -0.1081  0.0713
 6503TIP3    H141000   0.597   3.433  13.291 -0.8840 -0.0555  0.4238
 6503TIP3    H241001   0.601   3.580  13.328 -1.2606 -0.1215  0.7415
 6504TIP3   OH241002   4.960   5.396   0.797 -0.0676 -0.5443 -0.3265
 6504TIP3    H141003   5.037   5.443   0.827 -0.3852  1.5167 -2.4511
 6504TIP3    H241004   4.891   5.424   0.857 -0.1432  1.4903 -1.2486
 6505TIP3   OH241005   2.779   0.714  16.944 -0.1736 -0.5899  0.0083
 6505TIP3    H141006   2.714   0.783  16.932 -0.9667 -1.1979  0.6619
 6505TIP3    H241007   2.863   0.757  16.928 -0.6348  0.5735  0.5783
 6506TIP3   OH241008   1.599   0.108  11.553  0.1632  0.0518  0.4092
 6506TIP3    H141009   1.665   0.042  11.573  0.4791  0.0775 -0.4986
 6506TIP3    H241010   1.649   0.179  11.512 -0.4165  0.0918 -0.2380
 6507TIP3   OH241011   5.739   4.326  15.366 -0.0198  0.1666  0.1596
 6507TIP3    H141012   5.665   4.384  15.385  0.1589 -0.0468  1.5685
 6507TIP3    H241013   5.775   4.303  15.451 -0.3535 -2.3844 -0.2850
 6508TIP3   OH241014   1.880   4.316   5.526  0.3513  0.5434  0.5796
 6508TIP3    H141015   1.911   4.272   5.447  0.1080  2.6654 -0.7724
 6508TIP3    H241016   1.789   4.286   5.536  0.2591  0.5419 -0.1847
 6509TIP3   OH241017   2.718   6.063  16.539  0.3233 -0.1165  0.4850
 6509TIP3    H141018   2.642   6.021  16.499 -0.1212  1.1358 -0.0529
 6509TIP3    H241019   2.731   6.016  16.621 -0.0990 -1.3215 -0.1149
 6510TIP3   OH241020   5.483   3.142  14.826  0.4861  0.0711 -0.7359
 6510TIP3    H141021   5.552   3.198  14.791  0.6448  0.0694 -0.4323
 6510TIP3    H241022   5.513   3.121  14.915  0.3309 -0.3279 -0.7772
 6511TIP3   OH241023   4.692   5.332  11.118 -0.3587 -0.4964  0.2690
 6511TIP3    H141024   4.734   5.342  11.033 -0.8952 -0.6482 -0.0116
 6511TIP3    H241025   4.601   5.355  11.104 -0.3369  0.0430  0.9308
 6512TIP3   OH241026   6.662   6.475   2.660  0.0734 -0.4849  0.4392
 6512TIP3    H141027   6.741   6.436   2.623 -0.6625  0.5084 -2.4643
 6512TIP3    H241028   6.689   6.563   2.687  0.1344 -0.3906  0.0822
 6513TIP3   OH241029   0.199   4.159   5.455 -0.0856 -0.1494  0.0188
 6513TIP3    H141030   0.268   4.129   5.397  0.5093 -0.0422  0.6571
 6513TIP3    H241031   0.238   4.231   5.504 -0.3827 -0.6076  0.9501
 6514TIP3   OH241032   2.924   3.095   6.585  0.0517  0.0053  0.1721
 6514TIP3    H141033   2.924   3.012   6.633 -0.8582 -0.1828 -0.1342
 6514TIP3    H241034   2.987   3.150   6.632  0.1469 -0.6216  0.7920
 6515TIP3   OH241035   1.231   6.195   3.828 -0.4592  0.2359 -0.1942
 6515TIP3    H141036   1.300   6.137   3.797  0.5122  2.0891 -1.7160
 6515TIP3    H241037   1.274   6.249   3.895 -0.6878  0.7346 -0.4441
 6516TIP3   OH241038   4.071   4.262  13.791 -0.4147 -0.0069 -0.0118
 6516TIP3    H141039   4.120   4.180  13.786  0.5376  0.6347 -2.5592
 6516TIP3    H241040   4.042   4.278  13.701 -0.8521  2.3008  0.4871
 6517TIP3   OH241041   5.205   1.513  17.081  0.0507 -0.4949  0.4779
 6517TIP3    H141042   5.247   1.495  16.997 -0.3083 -0.1084  0.2118
 6517TIP3    H241043   5.117   1.476  17.073 -0.0289 -0.3445  0.6345
 6518TIP3   OH241044   1.266   1.237   6.663 -0.1143  0.2464 -0.1567
 6518TIP3    H141045   1.247   1.317   6.614  0.4001 -0.8520 -2.2585
 6518TIP3    H241046   1.186   1.185   6.654  0.4852 -0.5452 -1.0830
 6519TIP3   OH241047   5.566   6.075   4.012 -0.2264  0.2964 -0.4616
 6519TIP3    H141048   5.632   6.140   3.987 -0.6037  0.8538 -0.0482
 6519TIP3    H241049   5.596   6.042   4.097  0.1756 -0.3714 -0.8572
 6520TIP3   OH241050   1.835   1.566   5.769  0.2437  0.7793  0.7996
 6520TIP3    H141051   1.924   1.601   5.772  0.8310 -0.4742 -0.5532
 6520TIP3    H241052   1.844   1.480   5.727 -1.7553  1.1741 -0.6485
 6521TIP3   OH241053   3.903   2.435   6.025 -0.0104 -0.1436  0.6654
 6521TIP3    H141054   3.946   2.515   5.995 -2.6345  1.4454  0.7728
 6521TIP3    H241055   3.897   2.446   6.120 -1.3608  0.1561  0.5792
 6522TIP3   OH241056   5.054   3.225   1.923  0.4476  0.2868  0.8750
 6522TIP3    H141057   5.132   3.191   1.966  1.3487  0.0614 -0.8632
 6522TIP3    H241058   5.078   3.230   1.830 -0.9663  1.9877  0.5564
 6523TIP3   OH241059   1.878   1.262   1.723 -0.3275  0.0274  0.3286
 6523TIP3    H141060   1.836   1.188   1.767 -3.3335  0.8461 -0.9211
 6523TIP3    H241061   1.812   1.331   1.724  1.0783  1.5106 -1.6249
 6524TIP3   OH241062   0.496   1.042   4.880 -0.6996  0.1081  0.0429
 6524TIP3    H141063   0.437   1.036   4.955  0.7576  0.4285  1.2513
 6524TIP3    H241064   0.437   1.042   4.804 -2.1500 -1.6956  1.0677
 6525TIP3   OH241065   1.815   2.366   4.377 -0.0834 -0.1107 -0.3040
 6525TIP3    H141066   1.887   2.422   4.405 -1.2041  0.8360  0.8490
 6525TIP3    H241067   1.750   2.427   4.342 -0.4017 -0.9231 -1.1680
 6526TIP3   OH241068   2.293   6.147   4.069 -0.3822 -0.2246 -0.5000
 6526TIP3    H141069   2.351   6.091   4.121 -0.5718  0.2833  0.2599
 6526TIP3    H241070   2.351   6.214   4.033 -0.6453  0.9707  1.1996
 6527TIP3   OH241071   2.432   5.468   3.856 -0.4093  0.2549 -0.3305
 6527TIP3    H141072   2.524   5.494   3.859 -0.4015  0.2074 -0.1066
 6527TIP3    H241073   2.395   5.517   3.783 -0.0242 -0.3306 -0.9241
 6528TIP3   OH241074   2.636   1.376   1.684  0.1704 -0.1614 -0.2595
 6528TIP3    H141075   2.694   1.383   1.608  0.8682 -1.7173  0.0958
 6528TIP3    H241076   2.619   1.467   1.709  1.0026  0.3607 -1.4544
 6529TIP3   OH241077   5.132   5.902  13.171  0.2369  0.0769 -0.4955
 6529TIP3    H141078   5.144   5.940  13.084  0.4267 -2.2438 -1.5725
 6529TIP3    H241079   5.218   5.868  13.194 -0.2875 -1.2728 -0.4285
 6530TIP3   OH241080   5.393   4.292  11.165 -0.3308 -0.3428 -0.0144
 6530TIP3    H141081   5.329   4.363  11.165  0.9293  0.8299  0.3194
 6530TIP3    H241082   5.390   4.257  11.076  0.5454  1.5681 -0.8447
 6531TIP3   OH241083   3.953   3.533   0.303  0.3541 -0.4605  0.2678
 6531TIP3    H141084   3.952   3.472   0.377 -0.8693  0.7352  1.2696
 6531TIP3    H241085   3.973   3.618   0.342  0.3732  0.0769 -0.8738
 6532TIP3   OH241086   0.844   2.746   0.786  0.1967  0.2166  0.2712
 6532TIP3    H141087   0.841   2.803   0.709 -0.1179 -0.8839 -0.5721
 6532TIP3    H241088   0.774   2.777   0.842  0.3081  0.9237  0.0287
 6533TIP3   OH241089   3.498   5.948   5.304  0.3228  0.0237  0.1637
 6533TIP3    H141090   3.500   5.897   5.224 -0.1561  0.6629 -0.2582
 6533TIP3    H241091   3.530   5.888   5.372  2.4130 -0.0213 -0.7737
 6534TIP3   OH241092   1.009   0.576  13.388  0.0347  0.4804  0.5964
 6534TIP3    H141093   1.084   0.621  13.350 -0.1840  2.0904  1.9525
 6534TIP3    H241094   0.942   0.644  13.397 -1.8019 -0.9811 -0.9787
 6535TIP3   OH241095   4.361   0.524   3.112  0.0504  0.6418 -0.0841
 6535TIP3    H141096   4.429   0.546   3.176  0.2447  0.2209 -0.1391
 6535TIP3    H241097   4.380   0.434   3.088 -0.3326  0.6310 -0.3519
 6536TIP3   OH241098   5.828   2.323  11.496 -0.1853  0.3514  0.1453
 6536TIP3    H141099   5.870   2.242  11.524 -0.3578 -0.5306 -1.9900
 6536TIP3    H241100   5.736   2.313  11.524 -0.1599 -0.0813  0.0741
 6537TIP3   OH241101   6.019   2.345  17.023  0.0798 -0.3590 -0.0735
 6537TIP3    H141102   5.935   2.347  17.068  1.2294 -0.9859  2.2632
 6537TIP3    H241103   6.008   2.406  16.950 -1.6112  1.6158  1.6759
 6538TIP3   OH241104   4.623   0.193   2.318  0.6537 -0.2218 -0.1733
 6538TIP3    H141105   4.549   0.141   2.285  0.8657 -0.3009 -0.5264
 6538TIP3    H241106   4.689   0.188   2.249  1.2095 -0.6039  0.3685
 6539TIP3   OH241107   0.153   2.494  15.780  0.3152  0.0383  0.2094
 6539TIP3    H141108   0.186   2.457  15.698  0.2475  0.9209 -0.2351
 6539TIP3    H241109   0.224   2.551  15.810  1.3950 -2.1760  2.1175
 6540TIP3   OH241110   2.532   2.905  13.547  0.1022 -0.1797 -0.0317
 6540TIP3    H141111   2.520   2.882  13.455 -1.1168  0.1797  0.0267
 6540TIP3    H241112   2.497   2.993  13.555 -1.0001 -0.6891  1.0310
 6541TIP3   OH241113   4.849   4.239  15.087 -0.0628 -0.8335 -0.3575
 6541TIP3    H141114   4.758   4.247  15.059 -0.0575 -0.3588 -0.2439
 6541TIP3    H241115   4.849   4.164  15.147 -1.3615  2.0012  3.5963
 6542TIP3   OH241116   1.222   1.682   2.524  0.2892 -0.3517 -0.0861
 6542TIP3    H141117   1.185   1.699   2.437  1.3107  1.0800 -0.2623
 6542TIP3    H241118   1.236   1.769   2.562 -0.1522 -0.9508  1.5332
 6543TIP3   OH241119   5.218   2.407  12.590 -0.3674 -0.8002 -0.4722
 6543TIP3    H141120   5.239   2.319  12.560  2.6522 -0.4571  0.2810
 6543TIP3    H241121   5.226   2.403  12.685  0.0270  0.3033 -0.4379
 6544TIP3   OH241122   3.150   6.207   6.002 -0.5797 -0.0154  0.0160
 6544TIP3    H141123   3.076   6.210   5.941 -0.9853 -0.4407  0.4787
 6544TIP3    H241124   3.147   6.291   6.048  0.1535  0.6140 -1.0179
 6545TIP3   OH241125   6.071   2.552  14.968 -0.6077  0.3163  0.7682
 6545TIP3    H141126   6.081   2.630  14.915 -0.1055  0.8775  1.6599
 6545TIP3    H241127   5.985   2.517  14.944  1.2053 -1.8992 -3.5464
 6546TIP3   OH241128   1.472   0.771  13.134 -0.5800  0.3433  0.8338
 6546TIP3    H141129   1.557   0.810  13.152  0.6584 -0.6980 -2.1962
 6546TIP3    H241130   1.468   0.696  13.194  1.5787 -0.7377 -0.2549
 6547TIP3   OH241131   1.777   5.182  13.851 -0.7223  0.4355  0.0655
 6547TIP3    H141132   1.763   5.123  13.925 -1.5588 -0.0086 -0.4214
 6547TIP3    H241133   1.850   5.238  13.877 -2.2050  1.5922  2.0145
 6548TIP3   OH241134   3.862   3.181   0.069 -0.5891 -0.1118  0.7527
 6548TIP3    H141135   3.824   3.263   0.037  0.8746 -0.0540 -0.9663
 6548TIP3    H241136   3.789   3.119   0.068 -1.4569  0.8650  1.0221
 6549TIP3   OH241137   5.811   4.115  12.199  0.3205 -0.1225 -0.2089
 6549TIP3    H141138   5.820   4.025  12.230 -2.6436  0.0924  1.6918
 6549TIP3    H241139   5.721   4.121  12.168 -0.2966  2.6511  1.6946
 6550TIP3   OH241140   2.026   4.890   5.528 -0.0363  0.2369  0.6505
 6550TIP3    H141141   2.062   4.826   5.466  0.2628  0.1870  0.8759
 6550TIP3    H241142   1.967   4.838   5.584 -1.4199  0.5205 -0.4721
 6551TIP3   OH241143   0.461   5.945  15.532 -0.4776  0.3514 -0.7173
 6551TIP3    H141144   0.504   5.862  15.511  0.3512  0.8674 -1.1332
 6551TIP3    H241145   0.408   5.964  15.455 -0.8301  0.1160 -0.5375
 6552TIP3   OH241146   2.838   0.712  13.143  0.3227 -0.4211  0.0204
 6552TIP3    H141147   2.779   0.652  13.189  0.0711  0.8178  1.3846
 6552TIP3    H241148   2.783   0.788  13.122  0.9143 -0.1673 -0.6661
 6553TIP3   OH241149   2.062   4.146  14.125  0.0004 -0.0668  0.2744
 6553TIP3    H141150   2.074   4.075  14.062  1.2375 -0.3222  0.7781
 6553TIP3    H241151   1.972   4.135  14.156  0.3068 -1.7486  0.7111
 6554TIP3   OH241152   3.947   1.368   3.846 -0.2516  0.2356  0.1408
 6554TIP3    H141153   4.026   1.317   3.831 -0.0948  0.7500 -0.9443
 6554TIP3    H241154   3.933   1.366   3.941  1.9627  1.4490  0.5491
 6555TIP3   OH241155   6.757   3.397  11.554 -0.0075 -0.3663 -0.1751
 6555TIP3    H141156   6.738   3.305  11.539  2.3088 -1.1155  0.9880
 6555TIP3    H241157   6.712   3.418  11.635 -1.0191 -0.2779 -0.7444
 6556TIP3   OH241158   3.155   2.388   6.682  0.1227  0.1925  0.2989
 6556TIP3    H141159   3.146   2.481   6.661  0.1861  0.4928  1.5288
 6556TIP3    H241160   3.250   2.372   6.678  0.0533 -0.0194 -0.6838
 6557TIP3   OH241161   0.047   2.340   3.625 -0.3251 -0.3025  0.1420
 6557TIP3    H141162   0.067   2.422   3.580 -1.4502  0.1292  0.3913
 6557TIP3    H241163   0.074   2.272   3.563 -1.7249  0.2801 -1.1893
 6558TIP3   OH241164   3.973   6.193  16.997  0.2445  0.7313  0.8867
 6558TIP3    H141165   3.930   6.251  17.059 -1.9282  1.0223 -0.7506
 6558TIP3    H241166   3.928   6.210  16.914  1.2265 -1.5018 -0.1840
 6559TIP3   OH241167   6.619   4.954  12.498 -0.2974 -0.7156 -0.0376
 6559TIP3    H141168   6.709   4.963  12.465 -0.4290 -0.8119 -0.4308
 6559TIP3    H241169   6.568   5.014  12.444 -0.3793 -0.2208  0.5770
 6560TIP3   OH241170   3.265   5.147  16.313 -0.2179 -0.4340  0.6941
 6560TIP3    H141171   3.289   5.164  16.404  0.2120  1.2827  0.2860
 6560TIP3    H241172   3.349   5.141  16.267 -0.4427  1.7575 -0.0848
 6561TIP3   OH241173   0.313   5.341  16.861  0.0101  0.4166 -0.0011
 6561TIP3    H141174   0.305   5.360  16.767 -2.3026  1.2369  0.3070
 6561TIP3    H241175   0.312   5.426  16.903 -2.3667  0.0206  0.9204
 6562TIP3   OH241176   3.184   0.014  13.640 -0.4924  0.5574  0.5222
 6562TIP3    H141177   3.095   0.005  13.608 -0.1757 -0.7168 -0.0827
 6562TIP3    H241178   3.226   0.074  13.579 -0.5383  0.0039 -0.0567
 6563TIP3   OH241179   3.930   6.057  15.527  1.3192  0.1779 -0.1483
 6563TIP3    H141180   3.910   6.072  15.620  1.9662  0.2859 -0.0246
 6563TIP3    H241181   3.945   5.963  15.521  2.1681  0.2991  0.0318
 6564TIP3   OH241182   5.500   5.467   3.797 -0.2791  0.5111  0.2492
 6564TIP3    H141183   5.589   5.498   3.810 -0.4650  0.7365  1.0289
 6564TIP3    H241184   5.510   5.378   3.761  0.2507  0.8832 -0.5413
 6565TIP3   OH241185   2.426   2.802   4.217  0.3802  0.8383  0.3265
 6565TIP3    H141186   2.359   2.844   4.163  0.9270  0.8497 -0.3587
 6565TIP3    H241187   2.458   2.729   4.164  0.6732  0.6266  0.7823
 6566TIP3   OH241188   6.225   5.723   1.011 -0.7234  0.3073 -0.0794
 6566TIP3    H141189   6.208   5.716   0.917 -1.0416 -1.8963  0.0849
 6566TIP3    H241190   6.173   5.798   1.039 -1.8814  0.0397 -1.4007
 6567TIP3   OH241191   6.369   4.115   3.227 -0.1244 -0.2351 -0.0547
 6567TIP3    H141192   6.274   4.115   3.223 -0.2664 -2.3057  1.4941
 6567TIP3    H241193   6.390   4.117   3.320  1.3480 -0.0232 -0.3584
 6568TIP3   OH241194   1.198   1.123  15.288  0.4382 -0.2095 -0.3027
 6568TIP3    H141195   1.241   1.129  15.374  2.6171 -0.0808 -1.3182
 6568TIP3    H241196   1.123   1.065  15.303  0.2890  0.4368  1.8367
 6569TIP3   OH241197   0.891   3.546   1.558 -0.2254  0.0543  0.0332
 6569TIP3    H141198   0.975   3.512   1.589  0.9282  0.4704 -2.3992
 6569TIP3    H241199   0.843   3.468   1.529 -0.2468 -0.0795  0.4186
 6570TIP3   OH241200   2.200   4.839   5.133  0.2207  0.1636  0.7337
 6570TIP3    H141201   2.158   4.782   5.197 -0.6359 -1.2762 -1.0069
 6570TIP3    H241202   2.177   4.801   5.048  0.9018  2.2431 -0.4755
 6571TIP3   OH241203   5.443   5.330   2.356  0.1586 -0.0296  0.3147
 6571TIP3    H141204   5.437   5.276   2.435  2.1026  0.0471  0.5785
 6571TIP3    H241205   5.531   5.367   2.359 -0.4167  1.5606 -0.9044
 6572TIP3   OH241206   0.592   1.870  15.041  0.0087  0.4507 -0.0515
 6572TIP3    H141207   0.540   1.945  15.012 -1.0193  0.6775  2.1610
 6572TIP3    H241208   0.663   1.908  15.092 -0.0065 -0.0356  0.3391
 6573TIP3   OH241209   1.073   5.326  15.038 -0.0509  0.0237 -0.1472
 6573TIP3    H141210   1.036   5.251  15.086  0.4995 -1.2523 -1.6251
 6573TIP3    H241211   1.142   5.288  14.985 -0.0782  1.5286 -1.3150
 6574TIP3   OH241212   0.384   0.169   4.058 -0.5236  0.0616 -0.1512
 6574TIP3    H141213   0.376   0.260   4.084 -1.4942  0.3872 -1.5154
 6574TIP3    H241214   0.373   0.120   4.140  0.2151  1.1384  0.6303
 6575TIP3   OH241215   5.591   6.175   1.820 -0.2103  0.3703 -0.2178
 6575TIP3    H141216   5.631   6.099   1.862 -1.7716 -0.3539  0.0227
 6575TIP3    H241217   5.541   6.138   1.747 -0.2023  1.2771 -0.6990
 6576TIP3   OH241218   4.766   3.000  16.129 -0.1439  0.5283 -0.6023
 6576TIP3    H141219   4.795   3.083  16.166  2.2508 -0.9285  1.0643
 6576TIP3    H241220   4.846   2.949  16.117 -1.5698 -1.8347 -0.7821
 6577TIP3   OH241221   2.066   3.907   5.446  0.3023  0.0388  0.3222
 6577TIP3    H141222   2.146   3.945   5.482  0.8543 -1.6487  1.0116
 6577TIP3    H241223   2.092   3.818   5.421 -1.2260 -0.3354 -0.0189
 6578TIP3   OH241224   1.342   2.318   0.453  0.0966 -0.2579  0.5191
 6578TIP3    H141225   1.279   2.349   0.518 -0.6076  0.1463 -0.3372
 6578TIP3    H241226   1.424   2.306   0.502 -0.6647 -0.9082  1.6779
 6579TIP3   OH241227   4.195   4.410   3.103 -0.6173  0.1053  0.5970
 6579TIP3    H141228   4.280   4.449   3.084 -1.1482  0.7847 -0.4814
 6579TIP3    H241229   4.215   4.321   3.132  0.6031  1.0570  2.9092
 6580TIP3   OH241230   5.281   3.357   0.247  0.1421  0.6040  0.9618
 6580TIP3    H141231   5.237   3.275   0.226 -0.4252  0.5944  2.1220
 6580TIP3    H241232   5.361   3.330   0.293  1.6893  0.5979 -1.5313
 6581TIP3   OH241233   2.446   0.827   1.617 -0.1439  0.2312 -0.0957
 6581TIP3    H141234   2.354   0.833   1.595  0.2133 -1.1734 -2.3457
 6581TIP3    H241235   2.479   0.917   1.614 -0.9473  0.5004 -1.8029
 6582TIP3   OH241236   6.195   4.904   4.341 -0.2200 -0.7792 -0.4793
 6582TIP3    H141237   6.182   4.897   4.435  0.1504 -0.8778 -0.4351
 6582TIP3    H241238   6.277   4.858   4.324  2.9669  3.9817 -0.0326
 6583TIP3   OH241239   1.819   5.139   0.351  0.0043  0.3303 -0.0318
 6583TIP3    H141240   1.821   5.194   0.273  1.5153  2.8235  1.6120
 6583TIP3    H241241   1.727   5.136   0.376 -0.8128 -2.0931 -2.8077
 6584TIP3   OH241242   1.868   3.847   2.774 -0.3645  0.6824 -0.0082
 6584TIP3    H141243   1.885   3.817   2.685  1.0802 -0.8741  0.7207
 6584TIP3    H241244   1.814   3.778   2.813 -1.5670  1.6805  0.1539
 6585TIP3   OH241245   1.488   4.530  11.445 -0.2586  0.2040  0.3503
 6585TIP3    H141246   1.565   4.574  11.409 -0.0021 -3.2438 -4.2045
 6585TIP3    H241247   1.525   4.462  11.502 -0.1379  0.5375  0.6712
 6586TIP3   OH241248   1.721   4.879   3.734 -0.2092  0.6034 -0.5565
 6586TIP3    H141249   1.633   4.856   3.704 -0.7116  0.9663  0.5755
 6586TIP3    H241250   1.732   4.970   3.708 -0.4093  0.7405 -0.1615
 6587TIP3   OH241251   0.380   0.995  14.207  0.8411 -0.4189  0.4845
 6587TIP3    H141252   0.403   0.908  14.238  4.0086 -0.5655 -1.8461
 6587TIP3    H241253   0.311   0.980  14.142  0.4011 -1.0055  1.0785
 6588TIP3   OH241254   4.506   5.303   1.750 -0.2586 -0.4261 -0.6830
 6588TIP3    H141255   4.441   5.233   1.760 -1.6249  1.0256  1.2461
 6588TIP3    H241256   4.537   5.320   1.839  1.1129  0.4650 -1.2961
 6589TIP3   OH241257   1.627   3.667   5.805  0.0795  0.2281  0.1140
 6589TIP3    H141258   1.719   3.674   5.778  0.7983  1.6986  2.6074
 6589TIP3    H241259   1.623   3.584   5.852 -0.3143 -0.6316 -1.3844
 6590TIP3   OH241260   5.237   5.128  16.768  0.6829  0.4228 -0.1709
 6590TIP3    H141261   5.209   5.213  16.732  1.5806  1.6747  1.9020
 6590TIP3    H241262   5.287   5.151  16.846 -1.7166 -2.1467  2.3210
 6591TIP3   OH241263   1.903   5.679  15.613 -0.1536  1.1750  0.0848
 6591TIP3    H141264   1.895   5.597  15.663 -0.1940  1.4382  0.5199
 6591TIP3    H241265   1.993   5.679  15.582 -1.0991 -0.8319 -3.1273
 6592TIP3   OH241266   6.604   1.416  17.363  0.3211 -0.0347  0.4886
 6592TIP3    H141267   6.680   1.362  17.384 -0.3770 -0.9019  0.8320
 6592TIP3    H241268   6.536   1.354  17.338  0.0832  0.7958 -1.0443
 6593TIP3   OH241269   0.468   0.070  14.678  0.6718 -0.1763  0.1830
 6593TIP3    H141270   0.484  -0.005  14.621 -1.3970 -0.5539  0.0315
 6593TIP3    H241271   0.375   0.065  14.699  0.7880  1.5692  1.3068
 6594TIP3   OH241272   2.243   6.512   2.434  0.6431  0.0786  0.5148
 6594TIP3    H141273   2.170   6.485   2.377  0.9513 -1.8896  0.9769
 6594TIP3    H241274   2.309   6.445   2.422  1.2335  0.2914  2.2400
 6595TIP3   OH241275   2.058   2.446  12.370 -0.2820  0.0616 -0.0706
 6595TIP3    H141276   2.015   2.504  12.307 -0.1661  1.0457  0.7396
 6595TIP3    H241277   1.995   2.376  12.385  0.0438 -0.6805 -1.9501
 6596TIP3   OH241278   1.240   2.057  16.944 -0.1331 -0.4507  0.6120
 6596TIP3    H141279   1.152   2.058  16.908 -0.7705 -0.9755  2.0951
 6596TIP3    H241280   1.284   1.986  16.898 -0.5652 -0.3810  0.0831
 6597TIP3   OH241281   5.846   4.334  15.633  0.1814  0.0575 -0.1633
 6597TIP3    H141282   5.799   4.417  15.639 -0.0139 -0.0950  0.5201
 6597TIP3    H241283   5.877   4.317  15.723 -1.5807 -1.6523  0.1794
 6598TIP3   OH241284   6.035   0.974   5.652 -0.3250  0.1014  0.4895
 6598TIP3    H141285   6.023   1.030   5.575  0.0110 -0.3210  0.1193
 6598TIP3    H241286   5.994   1.022   5.724  0.7209  1.2213  0.3573
 6599TIP3   OH241287   5.179   0.879   4.249 -0.1026  0.3484  0.6042
 6599TIP3    H141288   5.254   0.937   4.264 -0.3823  0.5799  1.1692
 6599TIP3    H241289   5.180   0.818   4.323 -0.1023 -0.0542  0.2765
 6600TIP3   OH241290   5.250   3.184  12.214 -0.2619 -0.2479  0.3068
 6600TIP3    H141291   5.174   3.203  12.158 -1.3586 -1.8557  1.1871
 6600TIP3    H241292   5.289   3.270  12.230 -1.8501  0.6229 -0.2307
 6601TIP3   OH241293   0.648   2.567  10.397 -0.0171  0.2400  0.1171
 6601TIP3    H141294   0.695   2.586  10.478  1.8996  0.5754 -1.0073
 6601TIP3    H241295   0.629   2.473  10.402 -0.1517  0.3060  1.0545
 6602TIP3   OH241296   1.746   4.106  14.979  0.0865  0.5823  0.2624
 6602TIP3    H141297   1.778   4.016  14.972  0.3781  0.5948  1.2925
 6602TIP3    H241298   1.654   4.100  14.956 -0.2701 -0.2519  1.7582
 6603TIP3   OH241299   4.999   6.749   3.950  0.3425  0.3865 -0.3022
 6603TIP3    H141300   4.964   6.824   3.997 -0.7676  0.8326 -1.7608
 6603TIP3    H241301   5.005   6.778   3.859  0.7809 -0.9915 -0.7433
 6604TIP3   OH241302   1.099   5.057   7.060 -0.1397  0.0415 -0.1795
 6604TIP3    H141303   1.116   5.136   7.008 -1.5878  1.0769  0.8207
 6604TIP3    H241304   1.018   5.022   7.023 -1.1734  0.7728  1.2789
 6605TIP3   OH241305   6.079   2.439   4.418 -0.5687 -0.6660  0.5124
 6605TIP3    H141306   6.082   2.361   4.474 -0.1929 -0.1831  1.1763
 6605TIP3    H241307   6.094   2.512   4.478  2.7384 -0.2935 -0.5542
 6606TIP3   OH241308   4.647   1.054  15.559  0.0386 -0.4660  0.6113
 6606TIP3    H141309   4.633   1.012  15.644 -0.7885 -0.3355  0.5523
 6606TIP3    H241310   4.623   1.146  15.573  0.4288 -0.3218  0.3696
 6607TIP3   OH241311   5.381   1.463   1.486  0.1612  0.2894  0.1912
 6607TIP3    H141312   5.339   1.378   1.496 -1.1975  0.8514 -0.5025
 6607TIP3    H241313   5.309   1.523   1.465  1.2091  1.4516 -0.1891
 6608TIP3   OH241314   1.171   0.709  12.993  0.5670 -0.1449  0.3706
 6608TIP3    H141315   1.248   0.742  13.039  2.2166 -1.1513 -1.5404
 6608TIP3    H241316   1.183   0.614  12.992 -0.7963 -0.3283  0.1893
 6609TIP3   OH241317   3.624   0.186   1.377  0.0102  0.7588  0.2477
 6609TIP3    H141318   3.663   0.133   1.307  0.0881  0.1464  0.7419
 6609TIP3    H241319   3.699   0.216   1.429 -0.1171  0.1924  0.7712
 6610TIP3   OH241320   3.586   4.348  12.018 -0.3489 -0.0611  0.6044
 6610TIP3    H141321   3.655   4.413  12.026 -1.5114  1.2226  0.6256
 6610TIP3    H241322   3.564   4.347  11.925  0.2873 -1.1364  0.4433
 6611TIP3   OH241323   1.047   2.144  13.493  0.4859  0.3288  0.0915
 6611TIP3    H141324   1.130   2.096  13.490  0.7481  0.7407  0.5508
 6611TIP3    H241325   1.071   2.230  13.529 -0.3782 -0.0754  1.7009
 6612TIP3   OH241326   5.469   4.843  15.449 -0.0371 -0.0260 -0.5380
 6612TIP3    H141327   5.399   4.811  15.393 -0.7412  0.5701 -0.0314
 6612TIP3    H241328   5.457   4.796  15.532  1.2426 -1.2053 -0.9801
 6613TIP3   OH241329   1.894   5.479  16.502 -0.5447 -0.0450  0.4868
 6613TIP3    H141330   1.914   5.475  16.408  0.8009  0.3046  0.7337
 6613TIP3    H241331   1.862   5.391  16.523  1.1692 -0.8152  0.0998
 6614TIP3   OH241332   0.603   5.069  14.170 -0.2656  0.1591 -0.1751
 6614TIP3    H141333   0.527   5.022  14.136 -0.7587  1.2772 -0.6854
 6614TIP3    H241334   0.580   5.089  14.261 -0.4399  0.1979 -0.2259
 6615TIP3   OH241335   1.452   6.480   2.438  0.0415  0.3759 -0.5695
 6615TIP3    H141336   1.447   6.389   2.466  2.5529  0.3547  0.0428
 6615TIP3    H241337   1.361   6.504   2.417 -0.9324 -1.6910  0.9642
 6616TIP3   OH241338   1.781   1.747   3.640  0.1335  0.4898 -0.9677
 6616TIP3    H141339   1.774   1.834   3.601  3.7369  0.5095 -1.9971
 6616TIP3    H241340   1.781   1.688   3.565  2.7691  0.1503 -0.8061
 6617TIP3   OH241341   4.593   3.622   2.313 -0.3130  0.0321  0.2639
 6617TIP3    H141342   4.503   3.588   2.309 -0.5698  0.7870 -0.9988
 6617TIP3    H241343   4.623   3.622   2.223  0.8038  0.2381  0.6173
 6618TIP3   OH241344   4.644   1.776  13.723  0.4781  0.0188 -0.6030
 6618TIP3    H141345   4.652   1.726  13.804  0.2994 -0.8818 -1.1251
 6618TIP3    H241346   4.556   1.756  13.691 -0.2542  2.0063  0.0186
 6619TIP3   OH241347   3.621   3.411  14.127 -0.1246 -0.6716  0.2435
 6619TIP3    H141348   3.624   3.319  14.153  2.6372 -1.0052 -0.9107
 6619TIP3    H241349   3.668   3.414  14.043 -1.3639  1.6004 -0.4524
 6620TIP3   OH241350   1.830   4.892   3.124 -0.5770  0.2300  0.4708
 6620TIP3    H141351   1.917   4.876   3.088 -1.7089 -1.4800 -1.7245
 6620TIP3    H241352   1.839   4.873   3.217  1.0693 -1.4123  0.0430
 6621TIP3   OH241353   3.967   5.296  16.732  0.2027 -0.7633  0.1598
 6621TIP3    H141354   3.988   5.368  16.671  0.8446 -0.5514  0.6215
 6621TIP3    H241355   3.920   5.232  16.678  0.3320 -0.3590 -0.4457
 6622TIP3   OH241356   6.212   0.678  11.889 -0.0531  0.3913  0.0885
 6622TIP3    H141357   6.139   0.639  11.937  0.5715  0.3734  1.0487
 6622TIP3    H241358   6.290   0.630  11.919  0.2671 -0.2857 -1.6649
 6623TIP3   OH241359   1.796   4.862   0.441 -0.0307  0.7036 -0.0279
 6623TIP3    H141360   1.833   4.950   0.440  0.2182  0.6021 -1.8620
 6623TIP3    H241361   1.801   4.835   0.533 -0.8993  2.9113  0.7140
 6624TIP3   OH241362   0.313   4.650  16.225  0.1108  0.1761 -0.1666
 6624TIP3    H141363   0.284   4.731  16.184 -0.1796  0.1116 -0.0913
 6624TIP3    H241364   0.346   4.677  16.311  0.4005  0.2657 -0.3070
 6625TIP3   OH241365   2.851   4.140  13.332 -0.4175 -0.4909  0.1925
 6625TIP3    H141366   2.793   4.064  13.323 -1.3424  0.2660 -0.4116
 6625TIP3    H241367   2.893   4.148  13.246 -0.8427  0.0823  0.0323
 6626TIP3   OH241368   2.058   1.882   4.530  0.2077  0.1475 -1.1887
 6626TIP3    H141369   2.007   1.843   4.460  0.1465  1.0592 -1.6745
 6626TIP3    H241370   2.005   1.956   4.560 -0.7347 -1.3975  1.2419
 6627TIP3   OH241371   0.018   2.679  15.152 -0.4302  0.2592  0.2304
 6627TIP3    H141372  -0.077   2.667  15.154 -0.4803  0.2697 -1.3588
 6627TIP3    H241373   0.032   2.757  15.100  0.4198  1.1520  1.7116
 6628TIP3   OH241374   5.007   6.479   3.222  0.1946  0.5948 -0.0281
 6628TIP3    H141375   4.914   6.471   3.241  0.4531  2.0082  2.2339
 6628TIP3    H241376   5.026   6.407   3.162 -2.4214  0.5767 -0.9460
 6629TIP3   OH241377   2.419   2.977  17.136 -0.0605  0.0403  0.3997
 6629TIP3    H141378   2.462   2.916  17.196 -1.0075 -1.3621 -0.2934
 6629TIP3    H241379   2.403   2.925  17.057 -0.7091  1.2584 -0.2950
 6630TIP3   OH241380   3.355   6.155  14.639 -0.1221 -0.1616  0.1990
 6630TIP3    H141381   3.380   6.162  14.547  1.7528  0.5153  0.7294
 6630TIP3    H241382   3.267   6.192  14.643 -0.6628 -1.1616 -1.4770
 6631TIP3   OH241383   1.021   2.950   6.056  0.4952 -0.3351  0.2297
 6631TIP3    H141384   0.996   2.994   6.137  1.1950  0.7848 -0.1320
 6631TIP3    H241385   0.947   2.894   6.034  0.7520 -1.5161  2.2257
 6632TIP3   OH241386   4.126   2.930   1.655 -0.3629  0.4451  0.1234
 6632TIP3    H141387   4.181   2.899   1.584 -0.1201  0.2597  0.3881
 6632TIP3    H241388   4.081   3.007   1.620 -1.8622 -0.8469 -0.9619
 6633TIP3   OH241389   5.916   2.097   1.662 -0.3318  0.3115 -0.4006
 6633TIP3    H141390   5.886   2.027   1.604 -0.4607 -0.2169  0.2922
 6633TIP3    H241391   6.011   2.085   1.667 -0.5145 -0.7816  0.9276
 6634TIP3   OH241392   0.985   2.504   2.706  0.4361  0.5611  0.3620
 6634TIP3    H141393   1.075   2.477   2.687  0.0586 -1.2332  0.9743
 6634TIP3    H241394   0.967   2.469   2.793 -1.0885  0.2646 -0.0441
 6635TIP3   OH241395   3.254   5.648  14.558  0.2160 -0.2677  0.1965
 6635TIP3    H141396   3.206   5.715  14.509 -0.9707 -1.3828 -0.2165
 6635TIP3    H241397   3.192   5.617  14.624  1.2128 -0.0230  1.2820
 6636TIP3   OH241398   2.611   1.357   5.444  0.1227 -0.1710 -0.3797
 6636TIP3    H141399   2.578   1.410   5.517  0.0867  1.3953 -1.4960
 6636TIP3    H241400   2.674   1.413   5.400  0.0777 -1.0550 -1.6089
 6637TIP3   OH241401   4.043   0.233  10.798  0.2076 -0.2599  0.2583
 6637TIP3    H141402   4.013   0.298  10.736  0.5303  0.6085  0.9873
 6637TIP3    H241403   3.964   0.183  10.821 -0.7750  1.9622  2.1259
 6638TIP3   OH241404   2.611   1.779   6.508 -0.3839  0.0991 -0.2330
 6638TIP3    H141405   2.549   1.772   6.581  0.5876 -0.7173  0.5504
 6638TIP3    H241406   2.697   1.789   6.551 -0.0010  1.6608 -1.2843
 6639TIP3   OH241407   2.656   5.735  17.068 -0.4081 -0.4701 -0.2397
 6639TIP3    H141408   2.579   5.754  17.015 -0.1561 -1.5310 -1.0082
 6639TIP3    H241409   2.647   5.643  17.092 -0.5118 -0.0319  1.5917
 6640TIP3   OH241410   6.586   6.338   0.366 -0.5318  0.3261  0.5917
 6640TIP3    H141411   6.595   6.354   0.272  1.5239  1.1842  0.8677
 6640TIP3    H241412   6.511   6.390   0.393 -0.2888  1.1953 -0.3549
 6641TIP3   OH241413   1.380   3.976  13.792 -0.0892  0.2961  0.0479
 6641TIP3    H141414   1.362   4.062  13.752 -0.3348  0.2618  0.0808
 6641TIP3    H241415   1.335   3.914  13.736  1.5820 -0.0062 -1.0238
 6642TIP3   OH241416   0.704   2.973   2.111 -0.0127 -0.1227  0.4883
 6642TIP3    H141417   0.679   2.892   2.156 -1.1112  0.1538  0.4022
 6642TIP3    H241418   0.762   3.017   2.173  1.6421 -1.5386  0.0258
 6643TIP3   OH241419   3.026   0.900   0.790  0.1173 -0.6125  0.5991
 6643TIP3    H141420   3.067   0.986   0.779 -0.8188 -0.1996  0.2809
 6643TIP3    H241421   3.063   0.847   0.719 -2.2407  0.6702 -1.7430
 6644TIP3   OH241422   5.477   5.772  11.296 -0.6670  0.0792 -0.1874
 6644TIP3    H141423   5.548   5.836  11.289  0.8598 -1.6467 -1.4968
 6644TIP3    H241424   5.397   5.823  11.280  0.4990  1.6211 -1.4466
 6645TIP3   OH241425   2.812   2.496  15.163  0.2771 -0.4586 -0.2975
 6645TIP3    H141426   2.852   2.548  15.233 -1.1494  2.1853 -1.3205
 6645TIP3    H241427   2.886   2.466  15.110  1.1831  0.1371  0.5953
 6646TIP3   OH241428   5.649   3.249   0.109  0.3242  0.2450 -0.0209
 6646TIP3    H141429   5.580   3.240   0.042 -0.5189  2.6916  0.3999
 6646TIP3    H241430   5.666   3.343   0.112  1.7509 -0.0317  1.8522
 6647TIP3   OH241431   1.094   2.249  15.651 -0.3636 -0.0544 -0.2227
 6647TIP3    H141432   1.057   2.336  15.667  0.2921  0.2644 -0.4207
 6647TIP3    H241433   1.178   2.266  15.609 -0.1327 -0.7807 -0.0616
 6648TIP3   OH241434   0.680   6.634   1.081 -0.3699  0.1707 -0.2026
 6648TIP3    H141435   0.601   6.683   1.058 -0.5599 -0.0305  0.0157
 6648TIP3    H241436   0.652   6.542   1.082 -0.5659  0.2224  1.6298
 6649TIP3   OH241437   0.342   5.277   2.720  0.3112  0.0749  0.5502
 6649TIP3    H141438   0.375   5.309   2.636 -0.9576  3.8391  1.2910
 6649TIP3    H241439   0.421   5.260   2.772  1.0796 -0.1887 -0.6557
 6650TIP3   OH241440   1.650   3.667   2.591  0.1408  0.8882  0.2660
 6650TIP3    H141441   1.559   3.644   2.611 -0.1411  0.9767 -0.8478
 6650TIP3    H241442   1.653   3.672   2.496  1.3376  0.8205  0.2844
 6651TIP3   OH241443   6.078   2.912   0.399 -0.4407 -0.3886  0.0298
 6651TIP3    H141444   6.174   2.913   0.409 -0.5140 -0.8989  0.8887
 6651TIP3    H241445   6.064   2.922   0.305  0.4121  1.2470  0.0355
 6652TIP3   OH241446   3.515   3.597   5.945 -0.0580  0.1329 -0.0729
 6652TIP3    H141447   3.610   3.589   5.934 -0.2575  0.3121 -2.3427
 6652TIP3    H241448   3.487   3.510   5.976  0.7180 -0.2486 -0.4116
 6653TIP3   OH241449   2.454   5.297   5.561 -0.0873  0.7057 -0.5619
 6653TIP3    H141450   2.443   5.371   5.620  0.5151  0.8749 -0.6594
 6653TIP3    H241451   2.526   5.322   5.504  0.5879 -0.2470 -0.1438
 6654TIP3   OH241452   3.997   5.677   5.789  0.1900 -0.5285 -0.1036
 6654TIP3    H141453   4.041   5.749   5.834 -1.3893 -0.3954  1.3383
 6654TIP3    H241454   3.995   5.606   5.853 -1.2954 -0.6580 -0.2437
 6655TIP3   OH241455   2.379   3.108  12.854  0.8959 -0.0003 -0.5378
 6655TIP3    H141456   2.291   3.122  12.819  0.9081 -0.8091 -0.9158
 6655TIP3    H241457   2.432   3.175  12.810  0.5235  0.3276 -0.5000
 6656TIP3   OH241458   2.126   3.072  12.639 -0.4238  0.8463 -0.0008
 6656TIP3    H141459   2.160   2.987  12.613 -0.3786  0.5071  1.1287
 6656TIP3    H241460   2.180   3.135  12.591 -0.9351  0.2556 -1.4169
 6657TIP3   OH241461   0.679   3.211  15.937  0.6476 -0.1506 -0.0764
 6657TIP3    H141462   0.614   3.140  15.937  2.5035 -1.9584 -1.1499
 6657TIP3    H241463   0.656   3.264  15.861  0.5830 -0.9648 -0.6434
 6658TIP3   OH241464   3.809   1.255   4.440  0.1562  0.5257 -0.4959
 6658TIP3    H141465   3.775   1.213   4.520 -0.4319  0.9969 -0.4904
 6658TIP3    H241466   3.849   1.183   4.391 -0.3937  0.0391 -0.2517
 6659TIP3   OH241467   1.373   1.464   3.619 -0.5593  0.0642 -0.0186
 6659TIP3    H141468   1.317   1.388   3.635  0.0143 -0.3789 -0.0599
 6659TIP3    H241469   1.326   1.538   3.658 -0.0567 -0.6759  2.1468
 6660TIP3   OH241470   2.897   3.906  13.721  0.2620 -0.7060  0.2002
 6660TIP3    H141471   2.930   3.831  13.672 -1.0771 -0.2710 -1.4562
 6660TIP3    H241472   2.805   3.913  13.695  0.2988  1.3562  0.5037
 6661TIP3   OH241473   0.644   6.718   5.882  0.0341 -0.4994 -0.8673
 6661TIP3    H141474   0.551   6.698   5.892 -0.1476 -0.0071 -1.5345
 6661TIP3    H241475   0.649   6.813   5.881  0.5953 -0.5139 -0.4536
 6662TIP3   OH241476   0.843   4.075  13.558  0.4591  0.1500  0.2989
 6662TIP3    H141477   0.847   4.004  13.494  0.9020 -0.0071  0.4927
 6662TIP3    H241478   0.880   4.037  13.638 -0.6069  0.1650  0.8191
 6663TIP3   OH241479   1.107   2.963  12.166  0.9233  0.7213 -0.3325
 6663TIP3    H141480   1.058   2.914  12.100  2.6122  0.3309 -1.3590
 6663TIP3    H241481   1.051   3.039  12.186 -0.9125 -0.6470 -0.0349
 6664TIP3   OH241482   2.287   3.640  11.426 -0.2302  0.4062 -0.5342
 6664TIP3    H141483   2.322   3.712  11.478 -1.6793  0.7631 -0.0090
 6664TIP3    H241484   2.314   3.659  11.336  1.9275  0.0140 -0.0086
 6665TIP3   OH241485   2.278   6.776  11.755  0.1292 -0.6392 -0.8069
 6665TIP3    H141486   2.264   6.694  11.708 -0.0614 -0.4276 -1.1225
 6665TIP3    H241487   2.297   6.749  11.845 -0.3194 -1.0111 -0.8213
 6666TIP3   OH241488   5.622   3.157   0.861 -0.4418  0.0144 -0.2439
 6666TIP3    H141489   5.609   3.151   0.767  0.6327 -2.4332 -0.3244
 6666TIP3    H241490   5.585   3.075   0.895 -2.7644  1.7535  1.7670
 6667TIP3   OH241491   2.846   0.958  15.994  0.1607  0.0718  0.2661
 6667TIP3    H141492   2.778   1.013  16.033 -1.8125 -2.2848  0.4146
 6667TIP3    H241493   2.802   0.912  15.923  1.3809 -2.0700  0.8077
 6668TIP3   OH241494   6.026   4.329   1.841 -0.1899 -0.3161 -0.3139
 6668TIP3    H141495   6.075   4.409   1.824 -0.8148  0.3360  0.8830
 6668TIP3    H241496   5.962   4.324   1.770 -1.1893  1.1051  0.4394
 6669TIP3   OH241497   0.398   0.678  11.926  0.4007  0.0147  0.4064
 6669TIP3    H141498   0.437   0.762  11.948  0.9479  0.2634 -1.3573
 6669TIP3    H241499   0.310   0.681  11.963  0.9392  0.7156  1.6981
 6670TIP3   OH241500   4.108   3.044  15.679 -0.3187  0.3924 -0.5899
 6670TIP3    H141501   4.017   3.014  15.683  0.0241 -0.5260  0.7925
 6670TIP3    H241502   4.139   3.038  15.769  0.7775  1.7980 -0.8437
 6671TIP3   OH241503   2.285   0.710  14.324  0.1367  0.3559 -0.0301
 6671TIP3    H141504   2.307   0.748  14.239  0.7051 -0.6651 -0.3646
 6671TIP3    H241505   2.256   0.784  14.377  0.8038  1.1731 -0.7764
 6672TIP3   OH241506   1.712   1.485   1.691  0.0478 -0.2004  0.6240
 6672TIP3    H141507   1.636   1.428   1.703 -0.5899  0.1947 -1.3065
 6672TIP3    H241508   1.727   1.523   1.778 -0.8188 -1.6699  1.4555
 6673TIP3   OH241509   5.398   4.286   4.820 -0.6145 -0.6634 -0.4210
 6673TIP3    H141510   5.311   4.253   4.843 -0.5740 -1.1344 -0.8895
 6673TIP3    H241511   5.434   4.218   4.762  0.2279 -0.6697  0.0971
 6674TIP3   OH241512   0.922   2.064  15.733  0.4036 -0.0328  1.0091
 6674TIP3    H141513   0.938   1.989  15.676 -3.7176 -0.3990 -0.0036
 6674TIP3    H241514   0.977   2.134  15.697 -1.5723 -0.3654 -3.3498
 6675TIP3   OH241515   2.527   0.044   2.610  0.6675  0.5902 -0.5553
 6675TIP3    H141516   2.456   0.036   2.547  1.4022  1.2467 -1.5098
 6675TIP3    H241517   2.580  -0.035   2.597  0.3401  0.3010 -0.1367
 6676TIP3   OH241518   4.049   6.343   0.791 -0.0412  0.1336  0.2110
 6676TIP3    H141519   4.080   6.318   0.879 -1.1299 -0.1137  0.5393
 6676TIP3    H241520   3.955   6.323   0.792  0.2537 -1.7074 -1.6516
 6677TIP3   OH241521   4.605   1.838   4.926  0.4353 -0.2065 -0.1402
 6677TIP3    H141522   4.509   1.831   4.931  0.5527 -1.0930  1.6353
 6677TIP3    H241523   4.632   1.857   5.016  2.0728 -2.2760 -0.1250
 6678TIP3   OH241524   5.644   6.711  16.677 -0.1261  0.8625 -0.1167
 6678TIP3    H141525   5.645   6.801  16.644 -2.4969  0.9404 -0.1013
 6678TIP3    H241526   5.737   6.691  16.693  0.5429  2.9472 -1.0154
 6679TIP3   OH241527   4.390   0.009   4.382 -0.3274  0.0471 -0.5937
 6679TIP3    H141528   4.439   0.061   4.445 -0.0471  1.6052 -2.0294
 6679TIP3    H241529   4.455  -0.014   4.315 -0.8174 -0.7766 -0.7978
 6680TIP3   OH241530   4.926   3.234   5.311  0.1581 -0.1495  0.1121
 6680TIP3    H141531   4.943   3.188   5.229  2.6758  0.2787  0.3074
 6680TIP3    H241532   4.945   3.169   5.380 -3.9607 -1.1966  0.5152
 6681TIP3   OH241533   0.578   2.612  16.956 -0.2266 -0.0356 -0.1095
 6681TIP3    H141534   0.649   2.666  16.920  0.1346 -0.6390 -0.3088
 6681TIP3    H241535   0.508   2.675  16.975  0.3820  0.5741  0.1508
 6682TIP3   OH241536   0.907   3.340   0.262 -0.2793  0.5511 -0.1085
 6682TIP3    H141537   0.926   3.276   0.194 -2.0074  1.4187 -1.4986
 6682TIP3    H241538   0.904   3.424   0.217 -0.7377  1.2581  1.1701
 6683TIP3   OH241539   3.766   5.074  16.900  0.2400  0.6489  0.0814
 6683TIP3    H141540   3.697   5.015  16.868  0.6213  1.0920 -1.6592
 6683TIP3    H241541   3.735   5.162  16.876  0.4787  1.0297  1.1222
 6684TIP3   OH241542   3.395   0.297   5.065 -0.8862  0.2578 -0.3422
 6684TIP3    H141543   3.385   0.376   5.012 -1.2955  1.3512  1.3222
 6684TIP3    H241544   3.325   0.302   5.130  0.4921 -0.2803  1.2509
 6685TIP3   OH241545   0.688   5.704   0.813  0.1454 -0.2924  0.1631
 6685TIP3    H141546   0.639   5.655   0.747 -0.3850  0.8488 -0.3108
 6685TIP3    H241547   0.685   5.795   0.783  2.4515 -0.1596  0.1959
 6686TIP3   OH241548   6.681   1.847  16.145  0.1775  0.1088 -0.1958
 6686TIP3    H141549   6.758   1.873  16.094  0.5280  1.3741  0.9176
 6686TIP3    H241550   6.718   1.804  16.222 -0.2080  0.9918  0.4900
 6687TIP3   OH241551   3.720   3.764   5.121  0.0081  0.2360 -0.4351
 6687TIP3    H141552   3.654   3.751   5.053  0.9591  0.9866 -1.5389
 6687TIP3    H241553   3.702   3.850   5.157  0.1527  0.2804 -0.4682
 6688TIP3   OH241554   3.955   4.930   4.138 -0.0020 -0.2832  0.4056
 6688TIP3    H141555   3.932   4.855   4.083  0.2136 -1.0531  1.3455
 6688TIP3    H241556   4.036   4.905   4.182  0.0375  0.4668  0.7851
 6689TIP3   OH241557   0.001   6.436  13.108  0.2439 -0.4833  0.3814
 6689TIP3    H141558   0.035   6.520  13.139 -1.2848 -0.0377  0.9913
 6689TIP3    H241559   0.078   6.388  13.080  1.2997  0.6478  1.1813
 6690TIP3   OH241560   0.483   3.115   5.680 -0.5655  0.3387  0.2301
 6690TIP3    H141561   0.476   3.154   5.593 -1.3043 -0.2047  0.0292
 6690TIP3    H241562   0.445   3.028   5.670 -1.7548  0.6839  1.3497
 6691TIP3   OH241563   3.093   2.384   4.193  0.0173 -0.0063 -0.1260
 6691TIP3    H141564   3.170   2.437   4.168  0.1046 -0.3108 -0.5154
 6691TIP3    H241565   3.019   2.443   4.181 -0.0149 -0.3286 -1.7915
 6692TIP3   OH241566   2.935   5.144  16.052  0.3454  0.5648  0.2077
 6692TIP3    H141567   2.874   5.072  16.063  0.6345  0.0833 -1.1334
 6692TIP3    H241568   2.881   5.223  16.060 -0.0147  0.2067  1.4275
 6693TIP3   OH241569   5.468   5.011  11.915 -0.2561  0.0580 -0.4475
 6693TIP3    H141570   5.400   4.961  11.869 -0.6562 -0.2285  0.4401
 6693TIP3    H241571   5.529   4.945  11.947 -0.6996  0.1412  0.5892
 6694TIP3   OH241572   5.287   0.556  13.105  0.4197 -0.3536  0.0145
 6694TIP3    H141573   5.227   0.492  13.066  0.3927  0.3408 -1.1470
 6694TIP3    H241574   5.325   0.602  13.030 -2.1195  3.3703  0.7016
 6695TIP3   OH241575   0.094   6.529   0.390  0.3989 -0.7614  0.6188
 6695TIP3    H141576   0.057   6.444   0.415 -0.2628 -0.5934  0.2346
 6695TIP3    H241577   0.101   6.525   0.294 -1.3854  0.2802  0.3900
 6696TIP3   OH241578   6.013   1.148  11.535  0.2141 -0.4574 -0.7379
 6696TIP3    H141579   6.094   1.195  11.555 -0.5363  0.9771 -0.9461
 6696TIP3    H241580   5.991   1.102  11.616  0.8026 -0.1855 -0.4224
 6697TIP3   OH241581   4.482   3.675  15.884  0.4604 -0.3019 -0.0342
 6697TIP3    H141582   4.424   3.598  15.881 -1.0215  0.7070  1.1542
 6697TIP3    H241583   4.568   3.640  15.862 -0.5221 -1.9151 -1.6867
 6698TIP3   OH241584   3.162   1.843  15.348  0.0092  0.5096 -0.1926
 6698TIP3    H141585   3.072   1.826  15.377  0.4370 -1.3761  0.1688
 6698TIP3    H241586   3.155   1.857  15.254 -0.6852  0.5646 -0.1368
 6699TIP3   OH241587   5.332   2.350  16.372  0.1041  0.4316  0.2521
 6699TIP3    H141588   5.262   2.286  16.357 -2.1739  2.7374  0.5240
 6699TIP3    H241589   5.401   2.299  16.415 -1.0633 -2.0896 -0.6501
 6700TIP3   OH241590   6.724   1.466  12.363  0.3728 -0.2184  0.1763
 6700TIP3    H141591   6.736   1.449  12.457  0.7957 -1.7312 -0.1142
 6700TIP3    H241592   6.689   1.384  12.328 -0.5348  0.5848 -0.8762
 6701TIP3   OH241593   3.151   0.299   2.492 -0.3878  0.1392 -0.2651
 6701TIP3    H141594   3.206   0.314   2.569  1.5925  0.5552 -1.6870
 6701TIP3    H241595   3.130   0.206   2.495 -0.0032  0.0725  0.5568
 6702TIP3   OH241596   0.985   1.713  14.299 -0.0662 -0.4772 -0.1100
 6702TIP3    H141597   1.016   1.625  14.320  1.0871  0.0667  0.6638
 6702TIP3    H241598   0.890   1.705  14.292  0.0112 -1.7505  0.0712
 6703TIP3   OH241599   4.627   0.942   0.023  0.5287  0.0007 -0.2421
 6703TIP3    H141600   4.589   0.896  -0.052  0.7171  1.4391 -1.2540
 6703TIP3    H241601   4.554   0.990   0.062  0.6555  0.1276 -0.1616
 6704TIP3   OH241602   1.764   3.438  14.100  0.1088 -0.4202  0.6185
 6704TIP3    H141603   1.775   3.365  14.161  1.1854 -1.2779 -0.5425
 6704TIP3    H241604   1.851   3.450  14.061 -1.0667 -1.8298 -2.8566
 6705TIP3   OH241605   2.608   1.446   4.194 -0.7324 -0.3246  0.0686
 6705TIP3    H141606   2.628   1.352   4.200 -2.6882 -0.9180 -1.4421
 6705TIP3    H241607   2.512   1.449   4.192 -0.7840  1.8703  1.8720
 6706TIP3   OH241608   5.317   3.080   3.056 -0.5380  0.5932 -0.1564
 6706TIP3    H141609   5.346   2.990   3.064  2.6633  1.4690 -0.6358
 6706TIP3    H241610   5.323   3.115   3.145 -4.2127 -0.1605  0.5735
 6707TIP3   OH241611   3.927   5.355   4.651  0.0174  0.0044 -0.1360
 6707TIP3    H141612   3.952   5.442   4.619 -0.3652  0.4912  0.8286
 6707TIP3    H241613   3.944   5.296   4.578  1.1636  0.7524 -0.4932
 6708TIP3   OH241614   0.450   6.103   5.515  0.2740 -0.2615  0.1477
 6708TIP3    H141615   0.484   6.031   5.462  1.1701 -0.5933  1.1338
 6708TIP3    H241616   0.511   6.175   5.500 -1.1039  0.6148 -1.5139
 6709TIP3   OH241617   5.914   0.156   1.307 -0.6160  0.0334 -0.4221
 6709TIP3    H141618   5.892   0.077   1.356 -3.3611  0.1053 -1.3621
 6709TIP3    H241619   5.838   0.213   1.318  0.5701  1.8735 -1.1714
 6710TIP3   OH241620   5.992   1.262  15.074  0.2017 -0.2951  0.6553
 6710TIP3    H141621   5.961   1.185  15.122 -1.0245 -0.6493 -0.6338
 6710TIP3    H241622   5.918   1.286  15.018  1.5335  0.1393 -0.9839
 6711TIP3   OH241623   5.041   1.447  10.813 -0.0957 -0.0724  0.3595
 6711TIP3    H141624   4.976   1.459  10.882 -0.2471 -0.6667  0.3263
 6711TIP3    H241625   5.059   1.353  10.812 -0.1483 -0.0872 -0.4541
 6712TIP3   OH241626   2.091   6.066   1.113  0.4017 -0.4014 -0.4725
 6712TIP3    H141627   2.095   6.049   1.207 -0.1622 -0.6140 -0.4843
 6712TIP3    H241628   2.110   5.982   1.072 -0.2883 -0.5326 -0.5397
 6713TIP3   OH241629   4.141   0.198   6.246 -0.4210  0.3277  0.4478
 6713TIP3    H141630   4.207   0.263   6.224  1.0609 -1.7296 -1.7389
 6713TIP3    H241631   4.149   0.187   6.341  0.2081  2.3149  0.6601
 6714TIP3   OH241632   1.544   6.366   5.878  0.0372 -0.0976  0.1822
 6714TIP3    H141633   1.573   6.428   5.944 -0.2193  1.2663 -0.9385
 6714TIP3    H241634   1.623   6.343   5.830 -0.1798  1.0179 -0.7382
 6715TIP3   OH241635   0.181   5.930   0.111  0.0707  0.5053  0.0399
 6715TIP3    H141636   0.268   5.949   0.146  0.0403  0.5692  0.0821
 6715TIP3    H241637   0.197   5.878   0.033  0.2917  2.4788 -1.3206
 6716TIP3   OH241638   2.224   2.193   0.205  0.5618 -0.1774  0.6272
 6716TIP3    H141639   2.147   2.169   0.154  0.4962 -0.0715  0.6751
 6716TIP3    H241640   2.278   2.114   0.207  0.3070 -0.3486  0.8546
 6717TIP3   OH241641   3.528   0.593   4.954  0.3220  0.0360 -0.4353
 6717TIP3    H141642   3.612   0.546   4.949  1.6266  2.2844 -1.1714
 6717TIP3    H241643   3.540   0.656   5.024 -1.0849 -0.1504 -0.0051
 6718TIP3   OH241644   1.375   0.058   0.550  0.0714  0.3425  0.4659
 6718TIP3    H141645   1.359   0.069   0.456  0.0587  1.0855  0.5505
 6718TIP3    H241646   1.426   0.135   0.575 -0.5165  0.4990  1.2067
 6719TIP3   OH241647   3.328   6.375   3.752 -0.0045 -0.0836  0.0854
 6719TIP3    H141648   3.414   6.342   3.725 -1.0624 -1.9015 -1.1783
 6719TIP3    H241649   3.326   6.465   3.719  1.4355  0.0211  0.2141
 6720TIP3   OH241650   6.689   2.149   3.199 -0.9242  0.2286 -0.3634
 6720TIP3    H141651   6.739   2.129   3.279 -0.9007 -1.3300 -0.7461
 6720TIP3    H241652   6.687   2.245   3.196 -1.3397  0.3473  1.7661
 6721TIP3   OH241653   2.807   5.172  11.877  0.2398 -0.1361  0.3477
 6721TIP3    H141654   2.876   5.189  11.813  0.3275 -0.4826  0.3502
 6721TIP3    H241655   2.775   5.259  11.901 -1.2859 -0.0362 -1.7738
 6722TIP3   OH241656   1.494   3.097  16.859  0.2761  0.1617  0.0924
 6722TIP3    H141657   1.542   3.050  16.927  1.2350  1.0686  0.0586
 6722TIP3    H241658   1.405   3.103  16.893 -0.0444 -2.1584 -0.1568
 6723TIP3   OH241659   5.268   0.268   1.416  0.1228  0.1392 -0.0075
 6723TIP3    H141660   5.191   0.266   1.474  1.0415  0.9710  1.3082
 6723TIP3    H241661   5.270   0.181   1.376 -1.1978 -0.0746  0.3475
 6724TIP3   OH241662   3.444   4.048   3.504 -0.7483  0.2612 -0.0842
 6724TIP3    H141663   3.468   3.989   3.432 -0.3488  1.5184 -1.0254
 6724TIP3    H241664   3.372   4.101   3.470  0.4313  1.9106 -0.1660
 6725TIP3   OH241665   0.469   3.525  11.506 -0.4290 -0.2665  0.0016
 6725TIP3    H141666   0.451   3.493  11.417 -2.1217 -0.3803  0.3391
 6725TIP3    H241667   0.537   3.468  11.539  0.2295 -0.2293 -1.2185
 6726TIP3   OH241668   6.420   0.313  16.632 -0.3238  0.0689 -0.0455
 6726TIP3    H141669   6.460   0.398  16.650 -0.7379  0.3801 -0.5631
 6726TIP3    H241670   6.491   0.259  16.598  0.4058 -0.4238  2.0920
 6727TIP3   OH241671   6.234   2.652   2.721 -0.4505  0.3514 -0.3075
 6727TIP3    H141672   6.327   2.648   2.743 -0.8382  1.3635  1.8378
 6727TIP3    H241673   6.208   2.561   2.709  0.1696 -0.2565  2.3248
 6728TIP3   OH241674   3.019   6.269   3.392 -0.1363  0.6501 -0.0897
 6728TIP3    H141675   3.100   6.308   3.359 -0.4154  0.5507 -0.9140
 6728TIP3    H241676   3.013   6.185   3.348 -0.7784  0.7380 -0.1780
 6729TIP3   OH241677   6.669   3.944  17.425  0.2143  0.2065 -0.1718
 6729TIP3    H141678   6.595   3.931  17.366  1.4988 -0.7179 -1.6616
 6729TIP3    H241679   6.640   3.903  17.508 -1.2224  0.5972 -0.4474
 6730TIP3   OH241680   3.050   1.248  17.347  0.3062 -0.4159  0.3734
 6730TIP3    H141681   3.060   1.300  17.427  0.8354 -1.7791  1.2349
 6730TIP3    H241682   3.140   1.229  17.320  0.1252 -0.8257  0.0534
 6731TIP3   OH241683   0.343   3.856   6.643 -0.4039  0.0381  0.2516
 6731TIP3    H141684   0.334   3.786   6.578  0.6737 -1.5786  1.7650
 6731TIP3    H241685   0.303   3.821   6.722 -1.4230  1.8549  0.6054
 6732TIP3   OH241686   0.571   3.203   2.056 -0.2767 -0.1308  0.3644
 6732TIP3    H141687   0.514   3.196   1.979  0.0892 -1.1213  0.1577
 6732TIP3    H241688   0.597   3.112   2.074 -0.2374  0.1071  1.5701
 6733TIP3   OH241689   4.106   0.677  15.195 -0.4875  0.9704  0.1701
 6733TIP3    H141690   4.033   0.649  15.139  1.5998  0.2537 -2.4099
 6733TIP3    H241691   4.094   0.771  15.204 -1.4875  0.9329 -0.6033
 6734TIP3   OH241692   4.473   0.720   1.927  0.0929  0.7471  0.3788
 6734TIP3    H141693   4.450   0.811   1.909  1.3152  0.8601 -0.7163
 6734TIP3    H241694   4.547   0.725   1.987  0.5146  0.4906 -0.1128
 6735TIP3   OH241695   3.723   3.671   0.602  0.3272 -0.5434 -0.3052
 6735TIP3    H141696   3.676   3.697   0.523 -0.7572 -0.5778  0.3139
 6735TIP3    H241697   3.677   3.716   0.673  0.8023 -1.1389  0.3881
 6736TIP3   OH241698   2.527   4.454  12.701  0.3456 -0.3471  0.2949
 6736TIP3    H141699   2.459   4.512  12.735 -0.0871 -0.8814  0.3599
 6736TIP3    H241700   2.599   4.512  12.677 -0.3086  0.2682 -0.2002
 6737TIP3   OH241701   6.231   0.757  16.806  0.0446  0.5277 -0.3674
 6737TIP3    H141702   6.238   0.852  16.798 -1.0001  0.8480  1.7765
 6737TIP3    H241703   6.203   0.727  16.719  0.0732  2.1999 -0.9837
 6738TIP3   OH241704   5.897   4.843  14.756 -0.3060  0.4301 -0.2933
 6738TIP3    H141705   5.968   4.793  14.715 -2.1325 -1.0689 -1.7644
 6738TIP3    H241706   5.839   4.776  14.792 -0.8237  1.6427  1.2197
 6739TIP3   OH241707   4.404   1.028  14.767 -0.0960  0.8171  0.3956
 6739TIP3    H141708   4.314   1.002  14.783  0.7101 -1.7048  1.3478
 6739TIP3    H241709   4.409   1.040  14.672 -1.4326  1.1017  0.3473
 6740TIP3   OH241710   4.634   3.998   0.180 -0.4621  0.1414  0.3319
 6740TIP3    H141711   4.612   4.091   0.172 -1.0200  0.2386  2.5078
 6740TIP3    H241712   4.558   3.952   0.145 -0.9549  0.5005  0.9339
 6741TIP3   OH241713   4.771   6.595   2.944  0.4539 -0.4823 -0.2453
 6741TIP3    H141714   4.802   6.598   2.854  3.0777 -0.1967  0.5966
 6741TIP3    H241715   4.812   6.517   2.981  0.3644  0.0531  1.0159
 6742TIP3   OH241716   6.247   5.891  13.519 -0.3323 -0.2996  0.1001
 6742TIP3    H141717   6.225   5.856  13.432 -1.5330  0.7485 -0.0390
 6742TIP3    H241718   6.169   5.873  13.572 -0.4248  0.9092  0.3930
 6743TIP3   OH241719   2.453   3.925  15.632 -0.2929 -0.2336 -0.1016
 6743TIP3    H141720   2.528   3.868  15.649  1.0351  0.7618 -2.0547
 6743TIP3    H241721   2.377   3.877  15.665  1.1001 -1.6657  1.1943
 6744TIP3   OH241722   4.381   5.823   4.333  0.4658  0.1405  0.0920
 6744TIP3    H141723   4.294   5.856   4.358 -0.0223 -1.8484  1.2298
 6744TIP3    H241724   4.443   5.881   4.378 -0.3535 -0.8484  2.6508
 6745TIP3   OH241725   5.033   5.971  13.548 -0.7862 -0.2308 -0.9436
 6745TIP3    H141726   5.017   6.064  13.568  1.0315  0.2344 -1.5303
 6745TIP3    H241727   4.997   5.924  13.623 -1.9686  0.9203 -0.7546
 6746TIP3   OH241728   3.532   4.408  11.237  0.1861 -0.3496 -0.5864
 6746TIP3    H141729   3.529   4.331  11.181  2.8585  0.0646 -1.4217
 6746TIP3    H241730   3.499   4.479  11.183 -0.3654 -0.5338 -0.4967
 6747TIP3   OH241731   2.272   5.258   2.358  0.9233  0.4003 -0.2701
 6747TIP3    H141732   2.182   5.228   2.357  1.2231 -0.5047 -0.4166
 6747TIP3    H241733   2.282   5.307   2.276  0.6541  0.2474 -0.3949
 6748TIP3   OH241734   4.541   1.616  10.592 -0.4864 -0.0589  0.3796
 6748TIP3    H141735   4.533   1.528  10.555 -2.0741  0.1289  0.2083
 6748TIP3    H241736   4.623   1.614  10.641  1.4908 -0.4752 -2.6522
 6749TIP3   OH241737   5.555   5.224   1.263  0.0001  0.3049 -0.0040
 6749TIP3    H141738   5.597   5.205   1.347  0.5146  0.8283 -0.1341
 6749TIP3    H241739   5.604   5.174   1.199  0.1799  0.6044 -0.1045
 6750TIP3   OH241740   4.573   5.778   5.935  0.7268  0.3932  0.3918
 6750TIP3    H141741   4.613   5.855   5.893  0.9568 -0.4618 -1.0145
 6750TIP3    H241742   4.626   5.763   6.013  1.5286  0.8596 -0.0489
 6751TIP3   OH241743   6.715   2.137  15.848  0.4837  0.2817  0.2189
 6751TIP3    H141744   6.647   2.193  15.810  1.2596  0.7609 -0.5107
 6751TIP3    H241745   6.759   2.098  15.772  0.1058 -1.1503  0.7049
 6752TIP3   OH241746   4.836   4.990   2.172 -0.5195 -0.1565 -0.3782
 6752TIP3    H141747   4.836   5.024   2.083  0.0715  0.5845 -0.1051
 6752TIP3    H241748   4.904   5.040   2.217  0.0924 -1.4191  0.1543
 6753TIP3   OH241749   4.354   1.015   2.791 -0.1463 -0.1477 -0.6576
 6753TIP3    H141750   4.385   1.002   2.701 -0.8558 -1.9910 -0.6911
 6753TIP3    H241751   4.371   0.931   2.834  0.4318  0.7905  1.0349
 6754TIP3   OH241752   0.053   3.126   0.882  0.1811  0.0155  0.3254
 6754TIP3    H141753   0.004   3.117   0.800 -2.8451 -1.2159  2.1108
 6754TIP3    H241754   0.049   3.219   0.901 -2.9967 -0.1641  1.1312
 6755TIP3   OH241755   6.031   1.729   2.791  0.6048 -0.3981 -0.0144
 6755TIP3    H141756   6.087   1.787   2.740 -0.7253  0.1928 -0.8660
 6755TIP3    H241757   6.051   1.641   2.758  1.1747 -0.2195 -0.1532
 6756TIP3   OH241758   0.434   0.897   0.986 -0.0806  0.4524 -0.2101
 6756TIP3    H141759   0.497   0.831   0.955 -0.4592 -0.3314  0.6512
 6756TIP3    H241760   0.485   0.953   1.045  0.0734  0.5231 -0.4070
 6757TIP3   OH241761   1.328   3.815   4.311 -0.0772 -0.3308  0.3611
 6757TIP3    H141762   1.332   3.840   4.219  0.1763 -1.8334 -0.0584
 6757TIP3    H241763   1.306   3.896   4.357  0.4685  0.5871 -0.9443
 6758TIP3   OH241764   2.704   3.790  15.612  0.0112 -0.1207 -0.2257
 6758TIP3    H141765   2.731   3.711  15.566 -1.2913 -0.3899 -0.5529
 6758TIP3    H241766   2.754   3.788  15.694  1.3435 -0.3224 -1.0098
 6759TIP3   OH241767   5.793   5.134   6.162 -0.0466 -0.1471 -0.0446
 6759TIP3    H141768   5.835   5.052   6.136  0.1743 -1.1708  3.1799
 6759TIP3    H241769   5.700   5.120   6.147  0.0923 -0.5692 -0.5208
 6760TIP3   OH241770   6.230   4.077   2.095  0.0735 -0.3504 -0.0456
 6760TIP3    H141771   6.157   4.137   2.102  0.7316  0.4739 -0.0709
 6760TIP3    H241772   6.198   4.006   2.039 -1.0280 -0.5315  0.7940
 6761TIP3   OH241773   4.545   2.376  13.893 -0.0410  0.2684 -0.1124
 6761TIP3    H141774   4.519   2.296  13.939  1.1888 -1.3585 -2.0386
 6761TIP3    H241775   4.507   2.367  13.806 -0.7375  2.3348 -0.0694
 6762TIP3   OH241776   0.958   0.854  13.166 -0.2580  0.3553  0.1489
 6762TIP3    H141777   0.947   0.783  13.102 -0.4282 -0.0054  0.5710
 6762TIP3    H241778   1.048   0.844  13.197 -0.2468  0.3882  0.1260
 6763TIP3   OH241779   3.842   6.684   0.174 -0.0943  0.4142  0.3947
 6763TIP3    H141780   3.835   6.689   0.078  0.6886  1.4640  0.3734
 6763TIP3    H241781   3.844   6.590   0.192 -0.7823  0.1955 -0.5755
 6764TIP3   OH241782   5.667   3.904   0.713  0.0589  0.0182  0.2772
 6764TIP3    H141783   5.608   3.905   0.788 -0.2688 -0.5924  0.0310
 6764TIP3    H241784   5.613   3.932   0.639  0.7226  2.0392  0.4848
 6765TIP3   OH241785   0.374   0.896  16.195  0.9953  0.1755 -0.7013
 6765TIP3    H141786   0.371   0.910  16.290 -2.2595 -0.1497 -0.6570
 6765TIP3    H241787   0.375   0.984  16.158 -3.4072  0.6277 -0.2755
 6766TIP3   OH241788   3.853   4.862  14.802 -0.3292 -0.3914 -0.1589
 6766TIP3    H141789   3.791   4.854  14.729 -1.2431  1.6840  0.3215
 6766TIP3    H241790   3.809   4.919  14.865  1.1834 -0.6665  1.2138
 6767TIP3   OH241791   3.643   1.495  13.993 -0.2210  0.4629 -0.0832
 6767TIP3    H141792   3.664   1.550  13.918  1.0013  0.6899  0.4034
 6767TIP3    H241793   3.726   1.484  14.039 -0.5442 -1.3269  0.1435
 6768TIP3   OH241794   2.420   3.121  16.788 -0.4539 -0.2542  0.0098
 6768TIP3    H141795   2.417   3.211  16.821  1.0032  0.7872 -2.4005
 6768TIP3    H241796   2.385   3.127  16.699  2.4956 -1.3709 -1.3677
 6769TIP3   OH241797   0.937   2.307   3.568  0.4282  0.2047  0.4947
 6769TIP3    H141798   0.912   2.220   3.601  0.1722  0.7764  1.8518
 6769TIP3    H241799   0.955   2.358   3.646  2.2931  0.9031 -0.3388
 6770TIP3   OH241800   2.993   0.195   1.726 -0.2517  0.4453 -0.0553
 6770TIP3    H141801   3.074   0.219   1.681 -0.5251  1.3118 -0.1013
 6770TIP3    H241802   2.928   0.258   1.694 -1.4364 -1.3872 -1.4779
 6771TIP3   OH241803   6.643   1.388  11.599  0.3021  0.7089 -0.0484
 6771TIP3    H141804   6.576   1.445  11.560 -1.3713 -0.7586  0.5276
 6771TIP3    H241805   6.700   1.365  11.526 -1.0735  0.3423 -1.0554
 6772TIP3   OH241806   0.373   6.047   2.641  0.2665  0.0059  0.6885
 6772TIP3    H141807   0.422   5.985   2.695  0.7957  0.4578  0.7377
 6772TIP3    H241808   0.422   6.129   2.648  0.1753  0.1529 -0.2368
 6773TIP3   OH241809   2.195   0.804   2.121  0.5935  0.0498  0.5759
 6773TIP3    H141810   2.144   0.723   2.116 -1.9927  1.5578  0.5877
 6773TIP3    H241811   2.235   0.813   2.034 -0.8189 -0.2113 -0.1273
 6774TIP3   OH241812   0.279   0.722   6.868 -0.1652  0.5248  0.4549
 6774TIP3    H141813   0.266   0.816   6.879  2.9082  1.2230 -0.8342
 6774TIP3    H241814   0.373   0.709   6.882 -0.4550 -2.3441  0.3790
 6775TIP3   OH241815   2.268   3.689  12.978 -0.7134 -0.3286  0.1198
 6775TIP3    H141816   2.324   3.744  12.924 -1.5308  1.0328  0.6135
 6775TIP3    H241817   2.188   3.740  12.990 -1.9370 -2.0548 -0.2435
 6776TIP3   OH241818   0.118   5.029  12.447 -0.1971 -0.0794  0.0298
 6776TIP3    H141819   0.143   5.040  12.356 -0.4174 -0.8075 -0.1246
 6776TIP3    H241820   0.186   4.974  12.485 -0.4959 -0.3990  0.1143
 6777TIP3   OH241821   1.448   0.552   2.373 -0.1005  0.2762  0.1077
 6777TIP3    H141822   1.366   0.571   2.417  0.8181  1.5883  1.3857
 6777TIP3    H241823   1.443   0.460   2.349 -2.4859  0.6678 -1.1107
 6778TIP3   OH241824   1.207   0.980  13.740 -0.2358 -0.8105 -0.1097
 6778TIP3    H141825   1.168   1.059  13.779 -3.8943 -1.2226 -2.4180
 6778TIP3    H241826   1.243   1.009  13.657  0.8456 -1.1500  0.2300
 6779TIP3   OH241827   1.429   1.449   6.419 -0.4164 -0.0821 -0.2332
 6779TIP3    H141828   1.502   1.486   6.468  0.8710 -1.0007 -1.3963
 6779TIP3    H241829   1.353   1.465   6.475  0.1848  3.3481 -0.2140
 6780TIP3   OH241830   4.643   2.531   6.059 -0.1937 -0.6149 -0.0845
 6780TIP3    H141831   4.550   2.552   6.060 -0.7049 -2.6739 -0.2021
 6780TIP3    H241832   4.666   2.516   6.150  0.4791  1.5105  0.1521
 6781TIP3   OH241833   3.166   0.196  11.548 -0.1630  0.0886  0.7690
 6781TIP3    H141834   3.175   0.173  11.456  0.9363 -0.0003  0.8844
 6781TIP3    H241835   3.089   0.147  11.578  1.7670 -3.1493  0.8840
 6782TIP3   OH241836   3.028   6.489   4.344 -0.3347  0.3129 -0.0101
 6782TIP3    H141837   2.998   6.435   4.271 -1.4708 -1.0618  1.4165
 6782TIP3    H241838   3.023   6.432   4.420 -1.1093  2.2601  1.4880
 6783TIP3   OH241839   5.671   0.676   3.072  0.4995  0.1454  0.3785
 6783TIP3    H141840   5.647   0.758   3.029 -2.4132 -1.3283 -1.1246
 6783TIP3    H241841   5.682   0.614   3.000 -0.6658 -1.5174  1.5592
 6784TIP3   OH241842   1.877   6.408   1.994  0.5068  0.0305  0.7360
 6784TIP3    H141843   1.801   6.356   1.967  0.8309  0.6328 -1.6365
 6784TIP3    H241844   1.839   6.487   2.033 -0.1238  0.2429 -0.2673
 6785TIP3   OH241845   4.854   6.004   1.161 -0.1993  0.0795 -0.7478
 6785TIP3    H141846   4.947   6.002   1.182 -0.5877 -0.4182  1.1482
 6785TIP3    H241847   4.835   5.916   1.126 -0.2255 -0.3417  0.2877
 6786TIP3   OH241848   5.622   1.002   2.555 -0.0400  0.2141 -0.2770
 6786TIP3    H141849   5.654   0.918   2.522  1.2319  0.3379  0.5732
 6786TIP3    H241850   5.587   0.982   2.642 -1.3034  0.2828 -0.7547
 6787TIP3   OH241851   0.654   2.577   0.356  0.3235 -0.4770  0.6373
 6787TIP3    H141852   0.618   2.633   0.286 -1.1258  1.1005  2.5255
 6787TIP3    H241853   0.746   2.604   0.362  0.4973 -0.7074 -0.7030
 6788TIP3   OH241854   0.071   3.108  15.582 -0.9197  0.4441 -0.2883
 6788TIP3    H141855   0.007   3.119  15.652 -0.7040  0.1036 -0.0326
 6788TIP3    H241856   0.089   3.014  15.581  0.0098  0.6082  0.0376
 6789TIP3   OH241857   6.707   6.234   0.900 -0.0135  0.0758  0.0596
 6789TIP3    H141858   6.686   6.323   0.931 -0.1173  0.7198 -1.7385
 6789TIP3    H241859   6.800   6.239   0.877 -0.6561  0.6367 -2.7653
 6790TIP3   OH241860   0.106   1.986  15.992  0.4374 -0.4419  0.5222
 6790TIP3    H141861   0.121   2.044  16.067  0.3173 -0.5945  0.6664
 6790TIP3    H241862   0.058   2.040  15.930 -0.5044 -0.6646  1.0456
 6791TIP3   OH241863   6.581   4.241   4.608  0.0663  0.7169  0.7661
 6791TIP3    H141864   6.557   4.159   4.649  1.0022  0.1833  0.2843
 6791TIP3    H241865   6.545   4.309   4.665 -2.2341 -0.0088  0.2612
 6792TIP3   OH241866   2.599   3.895  10.958 -0.4403  0.5922 -0.7798
 6792TIP3    H141867   2.681   3.935  10.930 -0.7635  0.5728 -1.7758
 6792TIP3    H241868   2.626   3.812  10.999  0.0366  0.6314 -1.0087
 6793TIP3   OH241869   4.105   1.705   3.228  0.4001  0.7537 -0.1429
 6793TIP3    H141870   4.078   1.715   3.136 -0.3217 -1.0828 -0.1683
 6793TIP3    H241871   4.023   1.707   3.277  0.6993  0.6920  0.3612
 6794TIP3   OH241872   2.855   6.442   2.745 -0.1595 -0.3169 -0.0071
 6794TIP3    H141873   2.763   6.421   2.760  0.1313 -1.7373 -0.1015
 6794TIP3    H241874   2.902   6.360   2.762  1.1395  0.4901  0.4550
 6795TIP3   OH241875   1.204   1.616   0.876 -0.2358 -0.4531 -0.0353
 6795TIP3    H141876   1.244   1.533   0.899  2.0251  0.6598  0.3481
 6795TIP3    H241877   1.195   1.663   0.959  2.5388  1.2894 -0.5747
 6796TIP3   OH241878   6.147   3.494   0.253 -0.2074  0.2218 -0.0053
 6796TIP3    H141879   6.078   3.443   0.296  1.3230  0.0597  2.4295
 6796TIP3    H241880   6.229   3.455   0.285  1.0057  3.0171  0.5487
 6797TIP3   OH241881   0.821   0.520   5.749  0.3331 -0.3258 -0.2404
 6797TIP3    H141882   0.877   0.527   5.671 -1.1339 -0.0450 -1.2928
 6797TIP3    H241883   0.749   0.580   5.733 -0.9898 -1.6595  0.4960
 6798TIP3   OH241884   5.741   1.147  16.570 -0.5364 -0.0548 -0.2979
 6798TIP3    H141885   5.652   1.152  16.603  0.0193  0.0556  1.3063
 6798TIP3    H241886   5.753   1.056  16.545 -0.1777 -0.8552  2.4382
 6799TIP3   OH241887   3.632   1.322  13.727 -0.2908 -0.5190  0.0170
 6799TIP3    H141888   3.621   1.247  13.785 -0.5632 -0.0629  0.5673
 6799TIP3    H241889   3.680   1.386  13.780  0.6343 -0.5955 -0.7076
 6800TIP3   OH241890   6.280   1.714   2.582  0.1312  0.4549 -0.2761
 6800TIP3    H141891   6.236   1.632   2.560 -0.1996  0.8959 -1.3773
 6800TIP3    H241892   6.282   1.762   2.499  0.2477  1.5858  0.3610
 6801TIP3   OH241893   2.556   1.559   3.544  0.4608  0.7131 -0.4913
 6801TIP3    H141894   2.502   1.483   3.520  1.6491 -0.2849 -0.1188
 6801TIP3    H241895   2.510   1.598   3.619  0.3284 -0.2080 -0.0785
 6802TIP3   OH241896   0.117   4.771   5.524 -0.8300 -0.6655  0.3231
 6802TIP3    H141897   0.028   4.767   5.558 -0.8555 -1.3312  0.1960
 6802TIP3    H241898   0.125   4.694   5.468 -1.0252  0.7216 -1.7365
 6803TIP3   OH241899   2.980   1.168   5.204  0.1227  0.2962 -0.1028
 6803TIP3    H141900   2.905   1.157   5.147  0.2730 -0.3538 -0.1822
 6803TIP3    H241901   3.055   1.141   5.151  0.5398  1.8183 -0.3365
 6804TIP3   OH241902   6.654   0.443  16.246 -1.0147 -0.1513  0.2160
 6804TIP3    H141903   6.629   0.442  16.339 -0.6447 -1.6228  0.3146
 6804TIP3    H241904   6.746   0.470  16.246 -1.4144  1.3183  0.1394
 6805TIP3   OH241905   3.287   2.884   6.582 -0.0704 -0.1336  0.1872
 6805TIP3    H141906   3.322   2.809   6.629  0.7577  0.2994  0.2710
 6805TIP3    H241907   3.222   2.922   6.641 -1.2267 -1.3548 -0.2539
 6806TIP3   OH241908   0.778   1.134   1.766  0.2910  0.3909  0.2179
 6806TIP3    H141909   0.844   1.178   1.712  0.7170 -0.6777 -0.1582
 6806TIP3    H241910   0.761   1.052   1.720 -0.9288  0.4200  0.5880
 6807TIP3   OH241911   6.442   2.061  13.152 -0.2988  0.2778  0.3673
 6807TIP3    H141912   6.412   2.151  13.142  0.2143  0.3686 -0.4138
 6807TIP3    H241913   6.525   2.057  13.104 -0.8512 -0.8839 -0.5684
 6808TIP3   OH241914   6.721   5.844  12.899 -0.1988  0.2189  0.6037
 6808TIP3    H141915   6.723   5.748  12.906 -2.7873 -0.1306 -1.6555
 6808TIP3    H241916   6.743   5.875  12.987  2.4662 -2.3458  1.0018
 6809TIP3   OH241917   2.627   5.004  15.360 -0.2741 -0.3317  0.6783
 6809TIP3    H141918   2.712   4.989  15.400  0.4227  0.8149 -0.3080
 6809TIP3    H241919   2.605   5.094  15.384  0.5918  0.7430 -2.1215
 6810TIP3   OH241920   3.539   0.889   0.554 -0.0484  0.7414  0.8507
 6810TIP3    H141921   3.480   0.934   0.614 -1.5460 -1.0726  0.8463
 6810TIP3    H241922   3.521   0.796   0.569  1.9227  0.1595 -0.0805
 6811TIP3   OH241923   4.664   0.559   5.983 -0.1515  0.5754  0.0968
 6811TIP3    H141924   4.649   0.501   6.058 -1.8461  0.7227 -0.0813
 6811TIP3    H241925   4.583   0.609   5.976 -0.9201 -0.9183 -3.1484
 6812TIP3   OH241926   3.981   0.272   6.509  0.1929 -0.3540 -0.5155
 6812TIP3    H141927   4.076   0.262   6.513  0.2458  0.3976  0.6463
 6812TIP3    H241928   3.946   0.199   6.560  0.2355  0.3524  0.5579
 6813TIP3   OH241929   0.108   4.058  11.777 -0.3468  0.8017  0.6405
 6813TIP3    H141930   0.176   4.097  11.833  0.6388 -0.5018  0.3968
 6813TIP3    H241931   0.035   4.042  11.836  0.0039  1.0911  1.1737
 6814TIP3   OH241932   0.747   0.823  16.443  0.0822 -0.4567 -0.5215
 6814TIP3    H141933   0.813   0.770  16.398  3.3315  1.2306  1.8530
 6814TIP3    H241934   0.696   0.760  16.494  2.5273 -1.6039  0.6784
 6815TIP3   OH241935   1.010   1.122  16.305 -0.0493 -0.7199 -0.3578
 6815TIP3    H141936   1.057   1.204  16.288  0.1185 -0.5105  0.9734
 6815TIP3    H241937   0.919   1.149  16.317  0.2689 -0.4295  1.8638
 6816TIP3   OH241938   3.086   6.299  16.730 -0.0644 -0.3719  0.5220
 6816TIP3    H141939   3.096   6.393  16.744  0.0291 -0.3696  0.4352
 6816TIP3    H241940   3.171   6.270  16.697 -0.6530 -0.1484 -1.2986
 6817TIP3   OH241941   0.593   3.636  13.856  0.3514 -0.5154  0.1961
 6817TIP3    H141942   0.606   3.541  13.849  0.5067 -0.4407 -0.6687
 6817TIP3    H241943   0.547   3.660  13.775  0.3785  0.1586  0.3732
 6818TIP3   OH241944   6.703   0.618   2.078  0.0143 -0.8463  0.3708
 6818TIP3    H141945   6.702   0.672   1.999 -0.6245 -2.0020 -0.4482
 6818TIP3    H241946   6.613   0.586   2.085  0.0270 -0.6201  1.6763
 6819TIP3   OH241947   0.053   2.238   0.381 -0.1717 -0.4163 -0.1110
 6819TIP3    H141948   0.025   2.274   0.296  0.0338 -0.5746 -0.2466
 6819TIP3    H241949   0.071   2.146   0.363  0.1040 -0.3934  0.0543
 6820TIP3   OH241950   6.271   0.082  17.040  0.2111  0.0531  0.8432
 6820TIP3    H141951   6.242   0.160  16.993 -0.1217 -0.6598 -0.1529
 6820TIP3    H241952   6.325   0.117  17.112 -0.4314  1.2202  0.7841
 6821TIP3   OH241953   1.352   4.477  14.218 -0.2216  0.6608  0.0600
 6821TIP3    H141954   1.425   4.434  14.173 -0.5035 -0.6365  0.7905
 6821TIP3    H241955   1.374   4.570  14.216 -0.5996  0.8125 -3.4415
 6822TIP3   OH241956   1.673   3.645   2.885 -0.2039  0.1846  0.7056
 6822TIP3    H141957   1.688   3.552   2.868 -0.9945  0.2005 -0.1602
 6822TIP3    H241958   1.649   3.682   2.800 -0.1046  1.1401  1.0759
 6823TIP3   OH241959   0.023   6.556  15.355 -0.5033 -0.0807  0.2532
 6823TIP3    H141960   0.018   6.652  15.358 -0.3873 -0.1073  2.8623
 6823TIP3    H241961   0.001   6.528  15.443  0.4252 -2.4272 -0.2004
 6824TIP3   OH241962   0.116   3.322   4.337  0.1578 -0.3021 -0.2741
 6824TIP3    H141963   0.040   3.370   4.371 -0.0063 -0.6422 -0.1556
 6824TIP3    H241964   0.080   3.238   4.308  0.1726  0.2258 -1.9193
 6825TIP3   OH241965   5.457   3.535  10.769 -0.7524 -0.1728 -0.2983
 6825TIP3    H141966   5.484   3.564  10.682 -1.4618 -0.2940 -0.5698
 6825TIP3    H241967   5.523   3.471  10.795 -0.3415  0.1271 -0.5986
 6826TIP3   OH241968   4.262   1.775  11.021  0.3226 -0.4188 -0.3975
 6826TIP3    H141969   4.172   1.805  11.002  0.3822  0.4279  0.5728
 6826TIP3    H241970   4.295   1.745  10.936 -1.2513 -1.8093 -0.5846
 6827TIP3   OH241971   1.675   3.753  14.663 -0.4679  0.3405  0.3766
 6827TIP3    H141972   1.728   3.827  14.632 -0.0536 -0.1316 -0.0808
 6827TIP3    H241973   1.608   3.741  14.596 -0.2535  0.0212  0.2115
 6828TIP3   OH241974   1.876   4.686   6.261  0.1631  0.0135  0.0161
 6828TIP3    H141975   1.843   4.775   6.254  1.2906  0.4304 -0.1913
 6828TIP3    H241976   1.914   4.681   6.349 -0.1729 -0.3711  0.1469
 6829TIP3   OH241977   3.243   5.573   5.187 -0.1876  0.0067 -0.2584
 6829TIP3    H141978   3.213   5.498   5.136 -0.1181  0.4360 -0.9442
 6829TIP3    H241979   3.174   5.587   5.252  0.2257 -1.1974  0.4632
 6830TIP3   OH241980   2.640   6.501  11.464 -0.4015 -0.1603 -0.3421
 6830TIP3    H141981   2.632   6.466  11.552 -1.4207  0.1054 -0.3115
 6830TIP3    H241982   2.639   6.596  11.476  1.8857 -0.0769 -0.4570
 6831TIP3   OH241983   5.074   2.153   5.362  0.5992  0.0981 -0.0834
 6831TIP3    H141984   4.994   2.144   5.309 -0.0898  1.9088  0.5865
 6831TIP3    H241985   5.048   2.125   5.449  1.1153 -0.6691 -0.1627
 6832TIP3   OH241986   6.296   5.667   4.717 -0.0631  0.8404 -0.0663
 6832TIP3    H141987   6.342   5.640   4.637  2.3743  0.7165  1.2697
 6832TIP3    H241988   6.316   5.760   4.726 -0.4714  0.8969  0.2891
 6833TIP3   OH241989   6.231   3.814  12.690 -0.3199  0.4719  0.2588
 6833TIP3    H141990   6.165   3.810  12.760 -0.4707 -0.0187  0.0879
 6833TIP3    H241991   6.236   3.725  12.656 -0.1225  0.6743 -0.2474
 6834TIP3   OH241992   1.890   0.757  16.823  0.0856  0.7214 -0.1067
 6834TIP3    H141993   1.799   0.783  16.808 -0.5698 -1.3089  0.1037
 6834TIP3    H241994   1.918   0.717  16.741  0.0544 -0.6242  0.5230
 6835TIP3   OH241995   5.007   1.981  12.499  0.0156 -0.0395  0.4311
 6835TIP3    H141996   5.020   2.042  12.427 -0.2503  0.1354  0.5285
 6835TIP3    H241997   4.912   1.970  12.504  0.0609 -0.4109  0.4562
 6836TIP3   OH241998   4.481   3.743  13.467 -0.3558 -0.1676 -0.3194
 6836TIP3    H141999   4.564   3.698  13.485 -1.1410 -2.0553 -1.1238
 6836TIP3    H242000   4.489   3.775  13.377  0.1872  1.3496  0.2390
 6837TIP3   OH242001   5.621   0.273   3.415 -0.0038 -0.0607 -0.0842
 6837TIP3    H142002   5.622   0.305   3.324  1.1414  2.3778  0.6964
 6837TIP3    H242003   5.642   0.180   3.408  1.6694  0.3907 -2.2562
 6838TIP3   OH242004   0.175   4.198   3.405 -0.6643 -0.2321  0.3111
 6838TIP3    H142005   0.164   4.118   3.456  1.9014 -1.2776 -0.6129
 6838TIP3    H242006   0.262   4.230   3.430 -0.3872  0.5771 -1.5685
 6839TIP3   OH242007   1.870   6.123  14.012 -0.3324  0.3930 -0.9263
 6839TIP3    H142008   1.802   6.077  14.061 -1.0867 -0.9118 -3.0505
 6839TIP3    H242009   1.951   6.079  14.037 -0.6872 -0.1948 -0.7920
 6840TIP3   OH242010   2.562   3.038   4.786  0.6556  0.1799  0.4875
 6840TIP3    H142011   2.591   2.972   4.848  1.2164 -1.5736 -1.4927
 6840TIP3    H242012   2.489   3.082   4.829  0.4308 -1.5750  2.0132
 6841TIP3   OH242013   6.673   0.039   2.134  0.0897 -0.2986 -0.0397
 6841TIP3    H142014   6.655   0.055   2.227  1.9990  0.7877  0.1963
 6841TIP3    H242015   6.669  -0.056   2.125 -0.4381 -0.4037  1.0879
 6842TIP3   OH242016   1.518   0.394  15.662 -0.0566  0.0395  0.4111
 6842TIP3    H142017   1.549   0.305  15.646 -0.1418  0.2149 -0.8336
 6842TIP3    H242018   1.424   0.384  15.679 -0.7135  0.0795 -2.5400
 6843TIP3   OH242019   6.395   4.530   5.828 -0.4245  0.4108 -0.9838
 6843TIP3    H142020   6.405   4.465   5.759  0.3871 -0.4295 -0.1062
 6843TIP3    H242021   6.300   4.542   5.836 -0.5664 -0.3348 -1.4528
 6844TIP3   OH242022   3.388   2.449   5.048 -0.0217 -0.5679 -0.3242
 6844TIP3    H142023   3.450   2.523   5.047 -0.6015 -0.0717 -0.6197
 6844TIP3    H242024   3.392   2.415   5.137  0.2524 -0.1766 -0.1838
 6845TIP3   OH242025   0.852   1.427   5.401 -0.1750  0.0510  0.1632
 6845TIP3    H142026   0.814   1.341   5.384 -1.4803  0.6020  0.1917
 6845TIP3    H242027   0.818   1.483   5.332  0.7850  0.5288  0.0542
 6846TIP3   OH242028   5.616   2.135   1.082  0.5287  0.2698 -0.0783
 6846TIP3    H142029   5.685   2.089   1.130 -1.1155 -0.7984  1.3737
 6846TIP3    H242030   5.613   2.222   1.122  0.3743 -0.0140  0.5368
 6847TIP3   OH242031   4.615   2.395  12.179  0.4913  0.2333 -0.2045
 6847TIP3    H142032   4.560   2.423  12.106  0.3845  2.1202  0.5469
 6847TIP3    H242033   4.703   2.424  12.155  0.1941  2.4380  1.1036
 6848TIP3   OH242034   3.687   0.504   6.172  0.0224  0.5256 -0.5862
 6848TIP3    H142035   3.754   0.481   6.236 -1.3233 -0.8183  0.4082
 6848TIP3    H242036   3.733   0.507   6.089  1.4342  0.3199  0.1612
 6849TIP3   OH242037   0.110   0.094   1.510 -0.4674 -0.5076  0.4147
 6849TIP3    H142038   0.062   0.110   1.429 -1.5412 -2.0233  0.7202
 6849TIP3    H242039   0.186   0.152   1.505 -0.5239 -0.5697 -1.6647
 6850TIP3   OH242040   1.713   1.813  15.627 -0.0200  0.0666 -0.8139
 6850TIP3    H142041   1.762   1.827  15.707  1.2470  0.5729 -1.6468
 6850TIP3    H242042   1.744   1.729  15.594 -0.5685 -0.1606 -0.7553
 6851TIP3   OH242043   4.867   6.725  15.920  0.3856 -0.0379 -0.2528
 6851TIP3    H142044   4.901   6.639  15.945  0.3596  0.0063 -0.0662
 6851TIP3    H242045   4.839   6.765  16.002 -0.8952 -0.4104 -0.4891
 6852TIP3   OH242046   6.033   0.979  11.767 -0.1796 -0.1093 -0.0674
 6852TIP3    H142047   5.991   0.924  11.833 -1.2262  0.0076 -0.6148
 6852TIP3    H242048   6.119   0.999  11.804 -0.4618 -0.6515  0.9251
 6853TIP3   OH242049   4.079   1.721  13.701 -0.3985  0.3420 -0.0511
 6853TIP3    H142050   4.015   1.774  13.749  3.0081  4.3417  0.6971
 6853TIP3    H242051   4.124   1.671  13.768 -0.5555  0.1413 -0.0970
 6854TIP3   OH242052   2.540   3.588  15.286 -0.3394 -0.1920 -0.4869
 6854TIP3    H142053   2.621   3.615  15.330 -0.2681 -0.0750 -0.6857
 6854TIP3    H242054   2.508   3.668  15.244 -0.0011 -0.4594 -1.2859
 6855TIP3   OH242055   0.258   3.263  12.527 -0.4439 -0.1564  0.0461
 6855TIP3    H142056   0.175   3.222  12.501 -0.9609  0.5103  0.6196
 6855TIP3    H242057   0.314   3.256  12.449 -1.1969 -0.1890 -0.4994
 6856TIP3   OH242058   2.183   4.051   0.102  0.9086  0.1903  0.1594
 6856TIP3    H142059   2.093   4.079   0.118  0.8162  0.5809 -0.9549
 6856TIP3    H242060   2.219   4.035   0.189 -1.0918 -2.7950  0.6192
 6857TIP3   OH242061   1.271   4.506  12.444  0.1477 -0.4679 -0.2736
 6857TIP3    H142062   1.361   4.479  12.460  0.4158  0.9786  0.8864
 6857TIP3    H242063   1.270   4.532  12.352  1.4229  1.1633  0.1107
 6858TIP3   OH242064   1.728   1.363  12.766 -0.2817  0.0015  0.0333
 6858TIP3    H142065   1.693   1.292  12.712  0.6665 -0.4291 -0.0327
 6858TIP3    H242066   1.736   1.324  12.854 -0.1215  0.1453  0.0818
 6859TIP3   OH242067   3.625   1.091  11.907  0.2593 -0.2333 -0.2153
 6859TIP3    H142068   3.534   1.070  11.886  0.3446 -1.6069  0.6056
 6859TIP3    H242069   3.626   1.101  12.003  1.3215 -2.4607  0.0752
 6860TIP3   OH242070   4.171   3.812  15.792  0.4121 -0.2996  0.1119
 6860TIP3    H142071   4.112   3.771  15.854 -0.6139  1.0166  0.0489
 6860TIP3    H242072   4.196   3.742  15.732 -0.6583 -0.9994  0.4632
 6861TIP3   OH242073   0.843   3.568  12.346  0.6189  0.2807 -0.3439
 6861TIP3    H142074   0.758   3.608  12.365  0.5170 -0.4555  0.8131
 6861TIP3    H242075   0.824   3.500  12.282  0.2968 -0.0036  0.0485
 6862TIP3   OH242076   2.241   2.479  11.716 -0.2551 -0.4125  0.8874
 6862TIP3    H142077   2.219   2.554  11.772  0.7103 -0.7981  1.8192
 6862TIP3    H242078   2.240   2.514  11.627  0.9385  0.9069  1.3601
 6863TIP3   OH242079   4.316   2.842  15.615  0.2612 -0.0609 -0.3877
 6863TIP3    H142080   4.252   2.912  15.627  0.0715 -0.2053 -0.5575
 6863TIP3    H242081   4.297   2.780  15.684  0.4739  0.0856 -0.1946
 6864TIP3   OH242082   2.657   6.441  13.876 -0.4651  0.0806  0.0864
 6864TIP3    H142083   2.673   6.354  13.839  0.6271 -1.3444  3.5846
 6864TIP3    H242084   2.732   6.493  13.848 -0.0505 -0.7098 -0.3056
 6865TIP3   OH242085   5.213   6.008  12.000 -0.3641  0.3700  0.4052
 6865TIP3    H142086   5.159   5.935  12.031 -0.9522  0.9164  0.6887
 6865TIP3    H242087   5.157   6.054  11.938  0.0347  0.5354  0.1694
 6866TIP3   OH242088   0.043   3.706   3.322 -0.2219 -0.3724  0.3758
 6866TIP3    H142089   0.074   3.637   3.264 -2.7844 -0.1502 -1.4136
 6866TIP3    H242090  -0.018   3.662   3.382  1.1235 -0.2967  1.8563
 6867TIP3   OH242091   0.225   5.844  13.482 -0.5542 -0.0160 -0.4283
 6867TIP3    H142092   0.295   5.831  13.418 -0.5296 -2.0210 -0.0489
 6867TIP3    H242093   0.145   5.846  13.430 -0.3909  0.2096 -0.6761
 6868TIP3   OH242094   2.852   5.231   4.817  0.2715  0.2063  0.6492
 6868TIP3    H142095   2.902   5.312   4.828  0.1058  0.3086  0.6566
 6868TIP3    H242096   2.879   5.197   4.731 -1.2792  1.4162 -0.3582
 6869TIP3   OH242097   6.212   5.940  14.947 -0.0218 -0.1933 -0.4999
 6869TIP3    H142098   6.287   5.986  14.909  0.4673  0.9454  1.6466
 6869TIP3    H242099   6.136   5.990  14.917  0.2271 -0.1366 -1.0602
 6870TIP3   OH242100   6.157   1.946   4.789  0.1337 -0.1262  0.4238
 6870TIP3    H142101   6.139   2.026   4.837 -0.0063  0.8997 -1.2700
 6870TIP3    H242102   6.205   1.975   4.711 -1.9979 -1.3666 -1.4535
 6871TIP3   OH242103   3.883   6.254  13.254  0.0715 -0.4518  0.3692
 6871TIP3    H142104   3.791   6.227  13.244 -0.6980  1.3624  1.9035
 6871TIP3    H242105   3.927   6.176  13.286 -1.1576 -1.0767  0.6180
 6872TIP3   OH242106   6.687   5.695   0.465 -0.4326 -0.0330 -0.8333
 6872TIP3    H142107   6.648   5.773   0.426  0.4381  1.5574  1.2402
 6872TIP3    H242108   6.667   5.702   0.559  0.8781 -1.5630 -0.3754
 6873TIP3   OH242109   5.856   6.449  15.129 -0.0802 -0.3342 -0.0617
 6873TIP3    H142110   5.826   6.540  15.126  2.0901  0.5935  2.6578
 6873TIP3    H242111   5.929   6.446  15.067 -1.3278 -0.8186 -1.5871
 6874TIP3   OH242112   4.264   2.000   0.456 -0.0115  0.1166 -0.1499
 6874TIP3    H142113   4.268   1.941   0.381 -1.9387  0.0759 -0.2782
 6874TIP3    H242114   4.350   1.992   0.498  1.6528  1.2115 -3.0841
 6875TIP3   OH242115   5.351   1.408  14.806  0.5338 -0.4142  0.2495
 6875TIP3    H142116   5.420   1.423  14.742 -0.7669  0.6647 -0.9777
 6875TIP3    H242117   5.306   1.493  14.813  0.5616 -0.5119  2.5572
 6876TIP3   OH242118   0.596   5.800  13.603 -0.0606  0.6208 -0.1072
 6876TIP3    H142119   0.613   5.708  13.582 -3.9198 -0.0015 -1.1827
 6876TIP3    H242120   0.675   5.845  13.574  1.3148 -2.1450 -1.0663
 6877TIP3   OH242121   2.269   2.811   2.749 -0.1223  0.1532  0.9353
 6877TIP3    H142122   2.176   2.797   2.730 -0.0102 -4.2672  2.5530
 6877TIP3    H242123   2.313   2.786   2.667 -0.3027 -2.1885  1.4747
 6878TIP3   OH242124   5.023   0.749  11.022 -0.1908 -0.3328 -0.4987
 6878TIP3    H142125   4.932   0.770  11.003 -0.4394 -1.3335 -0.4793
 6878TIP3    H242126   5.024   0.726  11.115  0.3919  1.2438 -0.0921
 6879TIP3   OH242127   2.350   2.652  12.705  0.2818  0.2892  0.1420
 6879TIP3    H142128   2.359   2.709  12.629  0.3457 -0.8718 -0.7546
 6879TIP3    H242129   2.259   2.621  12.701 -0.0679  1.1168  1.2145
 6880TIP3   OH242130   6.648   5.873  14.375 -0.0499  0.2640  0.2411
 6880TIP3    H142131   6.717   5.808  14.382 -0.9405 -1.1669 -2.6139
 6880TIP3    H242132   6.672   5.942  14.437  2.4275 -1.4503  1.3062
 6881TIP3   OH242133   3.476   1.083  16.212 -0.1143  0.1377 -0.1382
 6881TIP3    H142134   3.523   1.027  16.150  2.5254  1.1822  0.7441
 6881TIP3    H242135   3.426   1.144  16.158  0.7562 -0.0610 -1.2044
 6882TIP3   OH242136   2.203   4.185   6.666  0.3209  0.2406 -0.9474
 6882TIP3    H142137   2.289   4.209   6.633  0.9763 -0.7775 -0.0499
 6882TIP3    H242138   2.213   4.095   6.697 -0.8755  0.3365 -0.1874
 6883TIP3   OH242139   0.064   0.768  15.863  0.0722  0.5889 -0.3040
 6883TIP3    H142140   0.007   0.707  15.909 -0.0173  1.1925  0.4167
 6883TIP3    H242141   0.125   0.800  15.930 -0.2271  1.6834 -0.5213
 6884TIP3   OH242142   0.559   6.157   5.767  0.7336 -0.2949  0.2139
 6884TIP3    H142143   0.500   6.151   5.692 -0.0497  0.8524  0.7186
 6884TIP3    H242144   0.527   6.232   5.818  2.7839  0.5264  0.3840
 6885TIP3   OH242145   3.211   6.621   3.923  0.0947  0.1108  0.5519
 6885TIP3    H142146   3.209   6.601   3.830  0.3786  0.6940  0.4159
 6885TIP3    H242147   3.303   6.640   3.942 -0.1169  1.0448  0.7163
 6886TIP3   OH242148   3.458   2.807   5.283  0.0835  0.7145 -0.4295
 6886TIP3    H142149   3.493   2.750   5.214  0.9751 -0.0297  0.5993
 6886TIP3    H242150   3.532   2.822   5.342 -0.9297  0.4016  0.9805
 6887TIP3   OH242151   6.044   0.709  12.818  0.7019  0.4753 -0.3176
 6887TIP3    H142152   6.070   0.622  12.788  1.1185 -0.0450  1.4536
 6887TIP3    H242153   6.080   0.768  12.752 -1.4876 -0.7410 -2.8070
 6888TIP3   OH242154   1.652   4.056   0.278 -0.5169  0.5348  0.0478
 6888TIP3    H142155   1.556   4.047   0.276 -0.4356 -0.6120  0.6150
 6888TIP3    H242156   1.684   3.967   0.264  0.4392  0.5101  2.1531
 6889TIP3   OH242157   3.811   6.483  14.267  0.0232 -0.1688 -0.1821
 6889TIP3    H142158   3.808   6.410  14.204  0.5203  0.6916 -1.2407
 6889TIP3    H242159   3.798   6.441  14.352  0.4270 -1.5125 -0.7446
 6890TIP3   OH242160   1.835   2.933   2.672 -0.0997 -0.0014  0.0700
 6890TIP3    H142161   1.816   3.010   2.619  0.9374  0.4341  0.3198
 6890TIP3    H242162   1.817   2.962   2.762 -0.8031 -0.4038  0.0638
 6891TIP3   OH242163   3.041   2.395   1.545  0.3272  0.1822 -0.4082
 6891TIP3    H142164   2.995   2.419   1.464  1.0577 -0.8137 -1.1434
 6891TIP3    H242165   3.022   2.302   1.557 -0.5379  0.5222  1.1019
 6892TIP3   OH242166   0.459   3.229  15.416 -0.3488 -0.3215 -0.0401
 6892TIP3    H142167   0.380   3.193  15.375  0.1835 -0.4068 -1.0214
 6892TIP3    H242168   0.511   3.262  15.343  0.7659 -0.7308  0.5458
 6893TIP3   OH242169   4.731   0.465   0.304 -0.4884  0.0557 -0.3445
 6893TIP3    H142170   4.741   0.546   0.253 -3.0544  0.6522 -0.0591
 6893TIP3    H242171   4.673   0.490   0.376 -1.3560 -2.0451 -0.2552
 6894TIP3   OH242172   5.132   3.660   2.786  0.6798 -0.7400 -0.2336
 6894TIP3    H142173   5.136   3.564   2.794 -0.4520 -0.7300  0.6336
 6894TIP3    H242174   5.220   3.684   2.758  1.1652 -1.9869  0.1093
 6895TIP3   OH242175   4.984   0.768  16.067 -0.1625  0.0585 -0.2211
 6895TIP3    H142176   4.900   0.760  16.114 -0.3062 -2.1446 -0.7211
 6895TIP3    H242177   4.961   0.808  15.983 -0.3114  1.6340  0.5426
 6896TIP3   OH242178   2.523   2.387   0.297  0.3645  0.0691  0.8922
 6896TIP3    H142179   2.529   2.481   0.278  1.6118 -0.1427  0.1290
 6896TIP3    H242180   2.610   2.352   0.276 -0.3559 -1.4198  0.2072
 6897TIP3   OH242181   2.320   6.331   5.575 -0.0012 -0.7365  0.2570
 6897TIP3    H142182   2.234   6.350   5.536  0.6266  1.4096 -0.2273
 6897TIP3    H242183   2.313   6.362   5.665  0.8270  1.4055 -0.3476
 6898TIP3   OH242184   4.494   0.982  12.635  0.4678  0.5019  0.3856
 6898TIP3    H142185   4.402   0.976  12.657  0.8414  1.2424  2.3695
 6898TIP3    H242186   4.506   0.919  12.563 -2.1029  2.3904 -1.9246
 6899TIP3   OH242187   1.673   5.825  15.640  0.1955 -0.3697  0.5060
 6899TIP3    H142188   1.697   5.916  15.619  1.2492 -1.1125 -1.9587
 6899TIP3    H242189   1.755   5.777  15.631 -0.4152 -1.6353  1.4793
 6900TIP3   OH242190   3.930   6.675   2.527  0.8073  0.7332 -0.6402
 6900TIP3    H142191   3.899   6.744   2.468 -1.0365  0.6381  0.1286
 6900TIP3    H242192   3.941   6.719   2.611  1.8004  0.5326 -0.6612
 6901TIP3   OH242193   3.233   3.812  15.153  0.2986 -0.2506 -0.1429
 6901TIP3    H142194   3.243   3.835  15.061 -0.7594  2.1819  0.2598
 6901TIP3    H242195   3.187   3.728  15.153  0.1518 -0.1931 -1.8440
 6902TIP3   OH242196   4.110   1.208  12.813  0.0019  0.1048  0.5770
 6902TIP3    H142197   4.086   1.279  12.873 -1.1841 -0.3058  0.6129
 6902TIP3    H242198   4.206   1.214  12.806 -0.0070  1.2462  1.1418
 6903TIP3   OH242199   5.474   2.983   1.015 -0.1837  0.0332 -0.0514
 6903TIP3    H142200   5.410   2.916   0.991  1.2063 -1.0794 -0.8765
 6903TIP3    H242201   5.471   2.986   1.110 -0.4316 -1.0774 -0.0077
 6904TIP3   OH242202   0.421   2.373   5.024  0.1585 -0.1504 -0.4654
 6904TIP3    H142203   0.495   2.361   5.083  0.6527 -2.2437 -1.3938
 6904TIP3    H242204   0.363   2.299   5.042  0.0160 -0.4841 -2.1042
 6905TIP3   OH242205   6.449   5.367   3.366  0.1875  1.1173  0.4079
 6905TIP3    H142206   6.381   5.424   3.331 -2.0261 -1.0200  1.0249
 6905TIP3    H242207   6.436   5.283   3.322  1.5382  0.2549  1.5525
 6906TIP3   OH242208   4.629   0.044  11.516  0.4736  0.0385  0.1936
 6906TIP3    H142209   4.624  -0.050  11.532 -0.5785  0.1905  0.8947
 6906TIP3    H242210   4.578   0.057  11.436  1.5353 -0.1073 -0.5239
 6907TIP3   OH242211   0.439   0.072  12.564  0.1129 -0.0742  0.3325
 6907TIP3    H142212   0.439   0.114  12.650  0.4729 -0.0715  0.3346
 6907TIP3    H242213   0.519   0.104  12.522  0.7814 -1.3124  0.6085
 6908TIP3   OH242214   0.875   4.089  10.077  0.2731  0.1663 -0.3455
 6908TIP3    H142215   0.807   4.156  10.089  1.5667  1.5843 -0.5200
 6908TIP3    H242216   0.931   4.124  10.008  1.8840 -0.3196  0.6465
 6909TIP3   OH242217   5.297   1.323   3.467 -0.0171 -0.3379 -1.0636
 6909TIP3    H142218   5.307   1.233   3.437  1.2752 -1.2079  1.6267
 6909TIP3    H242219   5.206   1.329   3.496  0.1416 -1.1064 -0.3702
 6910TIP3   OH242220   2.844   3.673  12.262  0.5225  0.5293  0.0126
 6910TIP3    H142221   2.927   3.628  12.251  0.2929 -0.1708  0.9876
 6910TIP3    H242222   2.866   3.766  12.259  1.4908  0.3681  1.1718
 6911TIP3   OH242223   4.813   5.424   4.276 -0.0623  0.1096 -0.1464
 6911TIP3    H142224   4.864   5.358   4.228 -1.3007  1.3686 -3.4535
 6911TIP3    H242225   4.726   5.386   4.283 -0.0416  0.1959  0.5965
 6912TIP3   OH242226   2.642   2.354   1.837  0.2497 -0.0042  0.3126
 6912TIP3    H142227   2.569   2.405   1.802 -1.3641 -0.6903  2.4466
 6912TIP3    H242228   2.694   2.418   1.887  1.1750  0.4857 -1.2134
 6913TIP3   OH242229   6.564   3.385   0.733 -0.5247  0.1806 -0.0733
 6913TIP3    H142230   6.548   3.295   0.759  0.9253  0.5105  2.1904
 6913TIP3    H242231   6.546   3.437   0.812  2.2500  1.4557 -0.1601
 6914TIP3   OH242232   6.380   5.443  11.158  0.8200  0.0381  0.0123
 6914TIP3    H142233   6.300   5.432  11.106  0.4172  0.0289  0.6211
 6914TIP3    H242234   6.407   5.533  11.142  0.0692  0.3832  0.6554
 6915TIP3   OH242235   2.063   2.769   2.059  0.3475 -0.8030 -0.0966
 6915TIP3    H142236   1.968   2.768   2.047  0.3622 -2.9328 -0.3726
 6915TIP3    H242237   2.085   2.862   2.064 -1.5659 -0.2009 -1.4791
 6916TIP3   OH242238   1.821   6.105  14.943 -0.0903 -0.3858 -0.5071
 6916TIP3    H142239   1.911   6.081  14.964 -0.0134 -1.2136 -1.7062
 6916TIP3    H242240   1.804   6.182  14.997  0.9955 -0.7978  0.4763
 6917TIP3   OH242241   1.064   5.973   5.896 -0.4063  0.2453 -0.0587
 6917TIP3    H142242   0.983   5.927   5.914  0.3388 -0.8079  0.7001
 6917TIP3    H242243   1.042   6.065   5.909 -1.1213 -0.1166  1.6153
 6918TIP3   OH242244   4.678   6.345   5.701 -0.3360 -0.1189 -0.5862
 6918TIP3    H142245   4.651   6.384   5.619  0.3464 -0.1473 -0.8314
 6918TIP3    H242246   4.766   6.310   5.683  0.6167  1.5063  0.6587
 6919TIP3   OH242247   1.336   2.126  11.259  0.3517 -0.3031 -0.1187
 6919TIP3    H142248   1.274   2.053  11.261  1.1802 -1.0116  1.7182
 6919TIP3    H242249   1.312   2.175  11.180 -2.8618 -0.2655  0.7157
 6920TIP3   OH242250   5.986   3.472   1.523  0.3825  0.0183  0.0209
 6920TIP3    H142251   5.901   3.510   1.543  0.2795 -0.2959  0.1911
 6920TIP3    H242252   5.966   3.399   1.464  0.6459  0.6878 -0.9376
 6921TIP3   OH242253   0.335   6.550   1.414 -0.6253 -0.2620 -0.2927
 6921TIP3    H142254   0.393   6.480   1.445  0.4216  0.6368 -0.1836
 6921TIP3    H242255   0.252   6.506   1.396 -0.5235 -1.2285  1.4669
 6922TIP3   OH242256   4.170   4.302  12.786 -0.1345 -0.4498 -0.2517
 6922TIP3    H142257   4.126   4.325  12.868 -0.8559 -1.5916 -0.2934
 6922TIP3    H242258   4.263   4.314  12.805 -0.3132 -0.3380  0.6275
 6923TIP3   OH242259   3.560   5.642   1.296  0.2686  0.1159 -0.5164
 6923TIP3    H142260   3.489   5.705   1.299  1.2190  1.2438 -1.1091
 6923TIP3    H242261   3.560   5.602   1.384 -1.3591 -0.2471 -0.6548
 6924TIP3   OH242262   5.280   2.536   0.357  0.2299 -0.5510 -0.1078
 6924TIP3    H142263   5.218   2.606   0.377  0.9506  0.6755 -1.9246
 6924TIP3    H242264   5.348   2.578   0.304  1.3187 -2.3743 -0.2306
 6925TIP3   OH242265   0.168   5.432   0.518  0.1180  0.3162 -0.6250
 6925TIP3    H142266   0.213   5.406   0.438 -0.1040 -2.3915  0.0233
 6925TIP3    H242267   0.088   5.476   0.488 -0.1662 -1.0082 -1.9060
 6926TIP3   OH242268   5.059   1.989  11.744  0.3046  0.2172  0.1606
 6926TIP3    H142269   4.983   1.945  11.705  0.5082  0.0510 -0.0609
 6926TIP3    H242270   5.066   2.072  11.697  0.5750 -0.0015 -0.1957
 6927TIP3   OH242271   1.991   3.367   0.183  0.3765  0.0094 -0.0989
 6927TIP3    H142272   2.033   3.298   0.234 -0.7343  0.5497  1.6384
 6927TIP3    H242273   2.002   3.446   0.236 -0.8938  0.5799 -0.6493
 6928TIP3   OH242274   1.908   5.752  17.113  0.2054 -0.0480 -0.2137
 6928TIP3    H142275   1.870   5.808  17.046 -0.3316  0.3600  0.4277
 6928TIP3    H242276   1.841   5.685  17.129  0.9908 -1.1514 -1.2626
 6929TIP3   OH242277   5.512   6.232  13.608  0.8445  0.5237  0.1584
 6929TIP3    H142278   5.544   6.261  13.522  2.3301 -0.3138  0.4085
 6929TIP3    H242279   5.587   6.238  13.666 -0.4113  2.1369  1.7187
 6930TIP3   OH242280   1.630   4.288  10.814 -0.0513  0.8407 -0.2824
 6930TIP3    H142281   1.699   4.354  10.821 -0.9212  1.6615  1.2713
 6930TIP3    H242282   1.556   4.335  10.777  0.1846 -0.0352 -1.9416
 6931TIP3   OH242283   5.765   2.975   4.511  0.3641 -0.7405 -0.4239
 6931TIP3    H142284   5.755   2.888   4.471 -0.2592 -0.5219 -0.7455
 6931TIP3    H242285   5.777   3.034   4.438 -0.2229 -0.4152 -0.2601
 6932TIP3   OH242286   0.269   0.063   5.891  0.2505 -0.0746  0.2293
 6932TIP3    H142287   0.286  -0.013   5.948 -0.3369  0.2642  0.8656
 6932TIP3    H242288   0.346   0.119   5.903  0.5613 -0.4334 -0.0337
 6933TIP3   OH242289   0.554   4.778   4.312  0.1775  0.3963  0.3073
 6933TIP3    H142290   0.520   4.708   4.255  0.2719 -0.1279  0.8809
 6933TIP3    H242291   0.478   4.806   4.363  0.0789  0.9100 -0.1166
 6934TIP3   OH242292   0.102   3.686  15.296  0.2193  0.0356 -0.2360
 6934TIP3    H142293   0.181   3.740  15.299 -0.0999  0.7763 -2.7620
 6934TIP3    H242294   0.030   3.749  15.308 -0.0623 -0.4846  0.9841
 6935TIP3   OH242295   0.584   1.605   0.505  0.2842 -0.4865  0.1314
 6935TIP3    H142296   0.615   1.693   0.523  0.1778 -1.0372  3.5534
 6935TIP3    H242297   0.653   1.566   0.451  0.6140  1.4429 -0.9328
 6936TIP3   OH242298   4.039   1.911  16.286 -0.6128 -0.0004 -0.0334
 6936TIP3    H142299   4.014   1.829  16.244  1.7851 -1.2138  0.7333
 6936TIP3    H242300   4.116   1.941  16.238 -2.2641  2.6743 -1.2482
 6937TIP3   OH242301   4.378   5.036  15.035 -0.3376  0.5086  0.0478
 6937TIP3    H142302   4.287   5.021  15.060 -1.0760 -0.7318 -2.9415
 6937TIP3    H242303   4.420   5.068  15.115 -3.4346  1.4621  1.4405
 6938TIP3   OH242304   3.482   4.676  12.584  0.4165 -0.5516  0.0974
 6938TIP3    H142305   3.421   4.741  12.548  0.9917 -0.4359 -0.6870
 6938TIP3    H242306   3.436   4.640  12.660  0.8997  2.2406  1.8501
 6939TIP3   OH242307   6.312   0.478  11.439 -0.5683 -1.0713 -0.1110
 6939TIP3    H142308   6.235   0.518  11.478 -0.4598  0.1399 -1.0551
 6939TIP3    H242309   6.301   0.491  11.345  0.6244 -1.1615 -0.2857
 6940TIP3   OH242310   3.814   2.196  13.087  0.2422 -0.3979  0.5434
 6940TIP3    H142311   3.804   2.124  13.148  1.4772 -1.8104 -0.8296
 6940TIP3    H242312   3.867   2.261  13.134  0.4081 -1.0615  1.2894
 6941TIP3   OH242313   0.507   4.429  14.497 -0.1836 -0.1054 -0.1090
 6941TIP3    H142314   0.575   4.441  14.432 -2.3955 -0.4150 -2.6621
 6941TIP3    H242315   0.534   4.351  14.547  1.1230 -0.4334 -1.2708
 6942TIP3   OH242316   6.208   6.433  14.466  1.0335  0.2055 -0.3232
 6942TIP3    H142317   6.171   6.460  14.382 -0.3090 -0.6650 -0.0350
 6942TIP3    H242318   6.188   6.505  14.526  2.4523  1.0675 -0.8318
 6943TIP3   OH242319   3.444   2.283   2.190  0.2435 -0.2565 -0.5619
 6943TIP3    H142320   3.352   2.280   2.166  0.5321 -0.8556 -1.6887
 6943TIP3    H242321   3.477   2.195   2.172  0.5843 -0.6837  1.8368
 6944TIP3   OH242322   6.706   2.061   0.756  0.3242 -0.1585  0.3180
 6944TIP3    H142323   6.720   1.984   0.810  0.1801 -1.9445 -2.0316
 6944TIP3    H242324   6.746   2.039   0.672 -1.0255  1.7422 -0.8983
 6945TIP3   OH242325   0.672   3.036  15.431 -0.2296 -0.3101  0.0556
 6945TIP3    H142326   0.648   2.970  15.367  1.3461 -0.9514  0.0668
 6945TIP3    H242327   0.602   3.101  15.427 -0.2845 -0.4191 -2.1792
 6946TIP3   OH242328   3.618   1.476   2.103 -0.7491  0.4873  0.1183
 6946TIP3    H142329   3.554   1.408   2.085 -1.8500  1.3327  0.6881
 6946TIP3    H242330   3.618   1.532   2.026 -0.5112  0.3505  0.0181
 6947TIP3   OH242331   3.555   3.699  14.008 -0.6420  0.3763 -0.1764
 6947TIP3    H142332   3.553   3.653  14.092 -2.3066  0.0543 -0.3571
 6947TIP3    H242333   3.534   3.632  13.943 -1.9417  1.1101 -0.5635
 6948TIP3   OH242334   1.510   5.781  15.169  0.5477  0.3886 -0.4955
 6948TIP3    H142335   1.540   5.747  15.254  1.3957  1.0889 -0.4987
 6948TIP3    H242336   1.579   5.755  15.108 -1.5403 -2.9713 -1.6797
 6949TIP3   OH242337   1.331   3.662  13.596 -0.0775 -0.0861  0.0036
 6949TIP3    H142338   1.245   3.640  13.560  0.2222  0.8493 -1.3265
 6949TIP3    H242339   1.360   3.738  13.546  2.2765 -1.3898 -0.7721
 6950TIP3   OH242340   5.589   5.049  16.557 -0.3799 -0.0332  0.8487
 6950TIP3    H142341   5.526   4.981  16.533 -0.9602  0.9284 -0.4852
 6950TIP3    H242342   5.562   5.125  16.506  1.5982  0.5435  0.5987
 6951TIP3   OH242343   1.732   3.767   5.016  0.0141 -0.7119 -0.3013
 6951TIP3    H142344   1.716   3.674   5.032 -0.2720 -0.7936 -1.0275
 6951TIP3    H242345   1.674   3.789   4.943 -0.4210  0.2016  0.3004
 6952TIP3   OH242346   6.728   0.129  15.551 -0.2232  0.4119  0.4815
 6952TIP3    H142347   6.800   0.079  15.512  0.5187 -0.2838  2.6431
 6952TIP3    H242348   6.649   0.090  15.513  0.4474  0.2222 -0.8035
 6953TIP3   OH242349   0.994   0.360   0.558  0.3976  0.4459  0.1711
 6953TIP3    H142350   1.074   0.412   0.553  0.6575  0.3436  2.4725
 6953TIP3    H242351   0.925   0.419   0.530  1.1697  0.6865 -1.3650
 6954TIP3   OH242352   2.451   5.804   5.484  0.9373  0.3367  0.3573
 6954TIP3    H142353   2.438   5.711   5.465 -0.7124  0.1905  2.0006
 6954TIP3    H242354   2.416   5.849   5.407  0.6990 -0.3715  0.0395
 6955TIP3   OH242355   3.833   2.369  12.414 -0.1871  0.2849 -0.6759
 6955TIP3    H142356   3.816   2.430  12.342 -1.4591  1.3569  0.4732
 6955TIP3    H242357   3.749   2.361  12.459  0.1245 -1.8166 -0.3853
 6956TIP3   OH242358   5.196   3.448  15.416 -0.1835  0.0581 -0.2309
 6956TIP3    H142359   5.217   3.535  15.451  1.4679 -0.6407  0.6274
 6956TIP3    H242360   5.271   3.427  15.359 -0.9079 -0.5293 -0.9954
 6957TIP3   OH242361   4.284   0.731  14.811  0.4323  0.2576 -0.5573
 6957TIP3    H142362   4.367   0.778  14.816  1.0298 -0.7954 -0.2238
 6957TIP3    H242363   4.228   0.776  14.875  1.0576  0.4021 -0.0935
 6958TIP3   OH242364   0.348   1.928   5.831 -0.1014 -0.0998 -0.5438
 6958TIP3    H142365   0.439   1.937   5.802  0.5292  0.3568  1.4471
 6958TIP3    H242366   0.338   1.835   5.851  0.5485  0.1525  1.0653
 6959TIP3   OH242367   0.646   4.485  16.116  0.0900  0.0957 -0.7985
 6959TIP3    H142368   0.551   4.482  16.127  0.1516 -0.7118 -0.4483
 6959TIP3    H242369   0.658   4.507  16.024 -0.4354  0.0213 -0.8897
 6960TIP3   OH242370   2.865   4.199   2.620  0.0723  0.1089  0.3870
 6960TIP3    H142371   2.806   4.202   2.696  2.9211 -4.2439  3.1974
 6960TIP3    H242372   2.929   4.268   2.637 -1.4509  1.8141 -0.3474
 6961TIP3   OH242373   5.775   5.371  15.175 -0.0181 -0.5132 -0.6587
 6961TIP3    H142374   5.762   5.282  15.208 -2.7010  0.1935  0.5261
 6961TIP3    H242375   5.687   5.401  15.151  0.5071  2.3403  0.5092
 6962TIP3   OH242376   1.439   3.986  12.255 -0.0557  0.0584  0.1060
 6962TIP3    H142377   1.361   4.013  12.303 -0.3997  0.3177 -0.5794
 6962TIP3    H242378   1.427   3.892  12.240  0.1354 -0.0563  0.6721
 6963TIP3   OH242379   5.010   6.442  15.705  0.1858  0.3789  0.1988
 6963TIP3    H142380   5.042   6.397  15.627 -1.0905  0.0787 -0.1665
 6963TIP3    H242381   4.959   6.515  15.671 -0.2267  0.3523  0.7562
 6964TIP3   OH242382   2.523   2.215   2.103 -0.3034 -0.1846 -0.6401
 6964TIP3    H142383   2.566   2.266   2.033 -0.4778  0.3574 -0.3586
 6964TIP3    H242384   2.584   2.144   2.121  0.5617  0.6446 -0.1609
 6965TIP3   OH242385   1.901   0.666   6.580 -0.2477  0.0903  0.0489
 6965TIP3    H142386   1.806   0.675   6.586 -0.4557 -1.8198  0.0304
 6965TIP3    H242387   1.919   0.579   6.614  1.5848  0.6923  0.7088
 6966TIP3   OH242388   6.442   2.333   0.391 -0.2285  0.8387  0.6330
 6966TIP3    H142389   6.526   2.379   0.381 -0.2357  0.5280 -1.2244
 6966TIP3    H242390   6.458   2.270   0.461  0.6374  1.7515  1.2900
 6967TIP3   OH242391   1.200   3.426  11.591  0.4002  0.0761  0.2042
 6967TIP3    H142392   1.140   3.486  11.547  1.6044  0.7475 -0.5907
 6967TIP3    H242393   1.190   3.446  11.684 -1.0053 -0.2286  0.1326
 6968TIP3   OH242394   6.636   0.082  11.990 -0.1167  0.8504  0.5739
 6968TIP3    H142395   6.633   0.145  11.919 -2.9100  0.3906  0.1735
 6968TIP3    H242396   6.574   0.114  12.055 -0.2323 -0.5234  1.1978
 6969TIP3   OH242397   1.079   6.742   0.664 -0.3582 -0.1544 -0.6531
 6969TIP3    H142398   1.151   6.774   0.610  0.1839 -0.2584 -0.0004
 6969TIP3    H242399   1.028   6.820   0.686 -0.7678 -0.1500 -1.5686
 6970TIP3   OH242400   0.760   0.416  15.086 -0.0836  0.1148  0.2626
 6970TIP3    H142401   0.834   0.476  15.085  0.4557 -0.5123 -1.5285
 6970TIP3    H242402   0.798   0.331  15.105 -0.5765  0.0348  0.9257
 6971TIP3   OH242403   5.143   4.491   3.087  0.3493  0.0124 -0.2831
 6971TIP3    H142404   5.058   4.455   3.112  1.6913 -3.3859 -0.0500
 6971TIP3    H242405   5.186   4.509   3.171  0.4601  0.1277 -0.3662
 6972TIP3   OH242406   5.359   3.765   2.360  0.3047 -0.4170 -0.2608
 6972TIP3    H142407   5.452   3.778   2.374 -0.2254  4.1857  0.4823
 6972TIP3    H242408   5.347   3.770   2.265  0.8218 -2.0071 -0.4405
 6973TIP3   OH242409   6.280   1.864   5.611  0.8334 -0.5394  0.1813
 6973TIP3    H142410   6.197   1.845   5.568  1.0999 -0.6851 -0.2678
 6973TIP3    H242411   6.277   1.815   5.693  1.0949 -1.7501 -0.5018
 6974TIP3   OH242412   2.111   1.370   1.894 -0.4244  0.5066  0.0397
 6974TIP3    H142413   2.100   1.374   1.799  0.3642  0.7114 -0.0499
 6974TIP3    H242414   2.185   1.311   1.908 -0.6297  0.3555  0.5354
 6975TIP3   OH242415   1.843   4.197  16.602  0.3540 -0.3218  0.3047
 6975TIP3    H142416   1.832   4.108  16.634 -2.2295  0.5238  2.1181
 6975TIP3    H242417   1.809   4.252  16.673  0.0085  1.9931 -1.5375
 6976TIP3   OH242418   1.275   5.362   5.054  0.0356  0.1468  0.5977
 6976TIP3    H142419   1.226   5.387   5.133  0.1104  0.3657  0.5759
 6976TIP3    H242420   1.240   5.276   5.031 -1.2361  0.8253 -0.1370
 6977TIP3   OH242421   4.322   0.557   3.557  0.1025 -0.4627  0.4177
 6977TIP3    H142422   4.290   0.505   3.483 -0.3597  0.0808  0.2248
 6977TIP3    H242423   4.307   0.647   3.530  1.5149 -0.1962  0.4724
 6978TIP3   OH242424   0.061   5.417  16.546  0.0644  0.1153 -0.1544
 6978TIP3    H142425   0.132   5.358  16.520  0.4393  0.0488  0.9672
 6978TIP3    H242426  -0.019   5.368  16.530  0.3754 -0.7324  0.8335
 6979TIP3   OH242427   0.802   2.153  14.353  0.0324 -0.2585 -0.9169
 6979TIP3    H142428   0.853   2.140  14.433 -1.0691 -0.1789 -0.1736
 6979TIP3    H242429   0.769   2.066  14.331 -2.4190  0.1717  0.6633
 6980TIP3   OH242430   0.489   4.310  16.956 -0.1296  0.2596 -0.6542
 6980TIP3    H142431   0.492   4.216  16.974 -0.3256  0.3839  0.0548
 6980TIP3    H242432   0.486   4.351  17.042  0.7686  0.9576 -0.9429
 6981TIP3   OH242433   2.848   2.811  14.620 -0.1085 -0.4652 -0.7046
 6981TIP3    H142434   2.762   2.773  14.638  0.4596 -1.6989 -0.5113
 6981TIP3    H242435   2.830   2.902  14.596 -1.4238 -0.5971 -0.2495
 6982TIP3   OH242436   3.205   6.328  15.566  0.1995  0.5519  0.2435
 6982TIP3    H142437   3.167   6.411  15.537 -1.6639 -0.4137 -0.2611
 6982TIP3    H242438   3.214   6.339  15.661  0.2241  1.4268  0.1514
 6983TIP3   OH242439   1.423   3.571  11.370  0.6008 -0.0404 -0.9690
 6983TIP3    H142440   1.414   3.612  11.284  0.1744 -0.6259 -1.2061
 6983TIP3    H242441   1.381   3.486  11.361  1.0039 -0.3169 -0.3224
 6984TIP3   OH242442   5.305   1.376   2.986  0.7328  0.2511  0.0928
 6984TIP3    H142443   5.240   1.334   3.043 -1.0372  0.3847 -1.7158
 6984TIP3    H242444   5.317   1.464   3.024 -0.2909  0.2930  0.3394
 6985TIP3   OH242445   3.245   2.939  17.270  0.0624  0.2552  0.1744
 6985TIP3    H142446   3.277   3.026  17.294  1.4942 -0.0933 -0.4057
 6985TIP3    H242447   3.291   2.918  17.189 -3.0235  0.5140 -1.8478
 6986TIP3   OH242448   3.488   3.997  13.072  0.8602 -0.2673 -0.2409
 6986TIP3    H142449   3.450   3.914  13.100 -0.5990  0.3923 -0.1842
 6986TIP3    H242450   3.497   3.988  12.977 -2.2865  0.5936 -0.7334
 6987TIP3   OH242451   4.162   5.998  11.589  0.2777 -0.5069 -0.1819
 6987TIP3    H142452   4.184   5.953  11.671 -0.6728  0.2142  0.4838
 6987TIP3    H242453   4.217   6.076  11.589  0.1484 -0.4160 -0.1496
 6988TIP3   OH242454   5.698   6.057   5.856  0.0462  0.0382  0.2752
 6988TIP3    H142455   5.654   6.020   5.932 -0.3018  0.1374  0.1257
 6988TIP3    H242456   5.790   6.062   5.881 -0.3053  1.7807  1.3813
 6989TIP3   OH242457   4.789   5.622   5.213  0.3405  0.3934  0.0317
 6989TIP3    H142458   4.768   5.695   5.271  1.6194  1.0378 -0.2674
 6989TIP3    H242459   4.715   5.616   5.153 -1.1685 -0.4984  1.8932
 6990TIP3   OH242460   5.110   5.853   5.124  0.0425 -0.2805 -0.6490
 6990TIP3    H142461   5.025   5.879   5.088  0.1774  1.4379  0.1918
 6990TIP3    H242462   5.167   5.927   5.107  0.7860 -0.5040  0.7787
 6991TIP3   OH242463   6.424   4.542  17.231 -0.4620  0.0693  0.3890
 6991TIP3    H142464   6.443   4.514  17.321  0.3450  0.2911  0.2944
 6991TIP3    H242465   6.420   4.637  17.236  1.0807  0.1963 -0.0574
 6992TIP3   OH242466   4.420   6.424  11.381 -0.1221  0.2481  0.4796
 6992TIP3    H142467   4.330   6.455  11.384  0.6111  3.0066 -1.7349
 6992TIP3    H242468   4.412   6.332  11.353 -2.2293  0.3183  0.6710
 6993TIP3   OH242469   3.415   0.228   1.519  0.0962 -0.3175 -0.5063
 6993TIP3    H142470   3.475   0.206   1.448  0.8571  1.3780 -0.4322
 6993TIP3    H242471   3.410   0.149   1.572  3.3434 -0.1509  0.2406
 6994TIP3   OH242472   0.301   3.887  15.302  0.3143  0.6828 -0.2340
 6994TIP3    H142473   0.340   3.941  15.232 -1.8891  2.4929 -0.2059
 6994TIP3    H242474   0.244   3.948  15.349 -0.9890 -1.3473  0.9250
 6995TIP3   OH242475   3.621   3.625   2.743 -0.0030 -0.1196 -0.5023
 6995TIP3    H142476   3.704   3.668   2.762  0.2395  0.3040 -2.3413
 6995TIP3    H242477   3.643   3.557   2.679 -0.8210 -1.1727  0.2913
 6996TIP3   OH242478   0.265   3.083  15.100 -0.5069 -0.7422 -0.8045
 6996TIP3    H142479   0.257   3.115  15.191  3.5126 -0.1443 -0.4944
 6996TIP3    H242480   0.280   3.163  15.049  0.1865 -1.3217 -1.5149
 6997TIP3   OH242481   6.158   3.823   2.016 -0.1638  0.0303  0.1305
 6997TIP3    H142482   6.184   3.855   1.930  0.4837 -0.0561  0.2898
 6997TIP3    H242483   6.067   3.796   2.005 -0.7515  1.9318 -0.0014
 6998TIP3   OH242484   2.856   2.549  16.803 -0.1437 -0.4971  0.3696
 6998TIP3    H142485   2.806   2.472  16.830 -1.2966 -0.8887 -2.5505
 6998TIP3    H242486   2.934   2.514  16.760 -0.2070 -0.0183 -0.1480
 6999TIP3   OH242487   6.692   4.780  11.223  0.3030  0.3591 -0.3522
 6999TIP3    H142488   6.619   4.841  11.225 -0.5034 -0.5957 -0.2697
 6999TIP3    H242489   6.687   4.733  11.307  0.4940 -0.3080 -0.7066
 7000TIP3   OH242490   2.560   3.646   3.445  0.0296 -0.2147  0.7165
 7000TIP3    H142491   2.522   3.732   3.455  0.6088 -0.0188  1.2711
 7000TIP3    H242492   2.502   3.587   3.493 -0.1376 -0.0792  0.6800
 7001TIP3   OH242493   0.835   3.739  16.348  0.4263  0.0931  0.4574
 7001TIP3    H142494   0.898   3.673  16.317  0.2556  0.3290 -0.4343
 7001TIP3    H242495   0.807   3.784  16.268 -2.8244 -1.6959  0.4223
 7002TIP3   OH242496   6.499   6.406   3.776  0.5312  0.4881 -0.3956
 7002TIP3    H142497   6.507   6.357   3.694  3.0527  1.1962 -0.6703
 7002TIP3    H242498   6.450   6.485   3.753 -0.3379 -0.1608 -0.7890
 7003TIP3   OH242499   5.217   1.457   2.703 -0.8005  0.3738 -0.0077
 7003TIP3    H142500   5.149   1.399   2.667 -1.3530  0.9043  0.1578
 7003TIP3    H242501   5.226   1.429   2.794 -1.0760  0.5546  0.0756
 7004TIP3   OH242502   2.063   2.116  14.636 -0.8050  0.2446 -0.0353
 7004TIP3    H142503   2.126   2.146  14.702  1.8325 -1.3760 -1.6505
 7004TIP3    H242504   2.061   2.187  14.571  1.5205 -0.7523 -1.3045
 7005TIP3   OH242505   5.907   0.619  16.473 -0.2685  0.0916 -0.4958
 7005TIP3    H142506   5.993   0.650  16.501 -0.2587 -1.2197  1.0857
 7005TIP3    H242507   5.904   0.637  16.379  1.5232  0.6422 -0.4812
 7006TIP3   OH242508   0.524   3.192  13.230  0.0673  0.9393  0.4400
 7006TIP3    H142509   0.466   3.221  13.301 -0.7901  0.2392  0.0537
 7006TIP3    H242510   0.579   3.124  13.269 -0.6080  0.3426  0.3811
 7007TIP3   OH242511   5.345   3.454  13.192  0.5220  0.2728  0.1973
 7007TIP3    H142512   5.344   3.534  13.139 -0.6642  1.7817  2.3445
 7007TIP3    H242513   5.278   3.398  13.152  2.3879 -0.3748 -2.2273
 7008TIP3   OH242514   5.034   3.256  15.514  0.5171 -0.0570  0.4174
 7008TIP3    H142515   5.103   3.318  15.491  0.7040 -0.2632  0.4122
 7008TIP3    H242516   5.009   3.281  15.603 -1.3591  1.7808 -0.5364
 7009TIP3   OH242517   1.703   6.661   3.149  0.4744 -0.4811  0.3192
 7009TIP3    H142518   1.764   6.723   3.110  0.9250 -0.6527  0.7373
 7009TIP3    H242519   1.622   6.671   3.099  1.0318 -0.6743 -0.6365
 7010TIP3   OH242520   4.541   2.435   2.495 -0.4394 -0.9080  0.2694
 7010TIP3    H142521   4.454   2.435   2.535 -0.8519  1.3186 -0.4454
 7010TIP3    H242522   4.524   2.446   2.402  0.5482  1.4075  0.2800
 7011TIP3   OH242523   5.414   2.323  14.103 -0.0415  0.3892 -0.0552
 7011TIP3    H142524   5.355   2.269  14.051 -0.8915  1.2135  0.0155
 7011TIP3    H242525   5.462   2.261  14.158  0.5008 -0.4489 -1.4247
 7012TIP3   OH242526   1.300   4.177  13.639 -0.1698  0.1169 -0.0763
 7012TIP3    H142527   1.218   4.201  13.595  0.8486  3.7912 -0.2747
 7012TIP3    H242528   1.367   4.189  13.572  0.6587 -2.7235  0.1238
 7013TIP3   OH242529   4.674   4.642   5.455  0.0374  0.3238  0.5184
 7013TIP3    H142530   4.665   4.587   5.533 -1.0377  0.3538  0.4320
 7013TIP3    H242531   4.766   4.634   5.431  0.2414 -0.2043  1.4123
 7014TIP3   OH242532   5.441   1.171  16.624 -0.1856  0.4937  0.0590
 7014TIP3    H142533   5.347   1.163  16.615 -0.0494  0.1948 -1.2755
 7014TIP3    H242534   5.463   1.117  16.700 -1.0796  0.5994  0.4050
 7015TIP3   OH242535   3.289   2.370   4.454 -0.2616  0.1284 -0.0414
 7015TIP3    H142536   3.217   2.397   4.398  1.5710  2.4835 -1.4704
 7015TIP3    H242537   3.247   2.329   4.530 -2.9580 -0.2273 -1.6105
 7016TIP3   OH242538   1.234   4.470   0.412  0.0608  0.0305  0.3210
 7016TIP3    H142539   1.308   4.500   0.359 -0.2158  0.2684  0.0654
 7016TIP3    H242540   1.232   4.528   0.487  1.9692 -1.8012  1.9030
 7017TIP3   OH242541   4.748   5.694   0.782  0.3054  0.6093 -0.2083
 7017TIP3    H142542   4.749   5.702   0.878  1.6988  2.2097 -0.3103
 7017TIP3    H242543   4.655   5.705   0.759 -0.3885 -1.8848  1.0296
 7018TIP3   OH242544   3.362   4.839  12.123 -0.1453  1.0830  0.1967
 7018TIP3    H142545   3.390   4.915  12.073  0.2352  1.1206  0.4570
 7018TIP3    H242546   3.443   4.807  12.165 -0.2298  0.3311 -0.1899
 7019TIP3   OH242547   4.270   5.421   3.413  0.5875 -0.2770  0.4604
 7019TIP3    H142548   4.241   5.384   3.330 -1.0357  1.6579  0.0923
 7019TIP3    H242549   4.316   5.349   3.456 -0.2220 -1.9196 -1.2602
 7020TIP3   OH242550   6.461   4.807   5.860  0.3888 -0.3753 -0.5422
 7020TIP3    H142551   6.433   4.718   5.881  1.9232 -0.4204  1.5521
 7020TIP3    H242552   6.472   4.850   5.944 -0.6751  1.9812 -1.5055
 7021TIP3   OH242553   3.600   3.879   5.443 -0.0023 -0.6145 -0.3536
 7021TIP3    H142554   3.582   3.786   5.459  2.5826 -1.1425 -0.0957
 7021TIP3    H242555   3.592   3.920   5.529 -1.2132 -0.5556 -0.4781
 7022TIP3   OH242556   3.632   0.839  12.154  0.0263 -0.2785  0.1874
 7022TIP3    H142557   3.643   0.933  12.171  1.1673 -0.0863 -1.3743
 7022TIP3    H242558   3.673   0.797  12.229  2.3110  0.5163 -0.5120
 7023TIP3   OH242559   0.743   2.663  16.207 -0.2338  0.4858 -0.0848
 7023TIP3    H142560   0.730   2.708  16.290 -0.3589 -0.0161  0.1757
 7023TIP3    H242561   0.828   2.620  16.216  1.4827  3.2643 -1.5609
 7024TIP3   OH242562   3.539   1.511   1.418  0.1237  0.7028 -0.4654
 7024TIP3    H142563   3.543   1.514   1.513  0.1274 -0.6165 -0.4101
 7024TIP3    H242564   3.463   1.566   1.396 -0.0567  0.7769  0.3104
 7025TIP3   OH242565   3.397   5.296   5.312  0.0979  0.0802 -0.5263
 7025TIP3    H142566   3.346   5.370   5.345  0.2153 -0.9737  2.3030
 7025TIP3    H242567   3.336   5.223   5.310  0.9779 -0.7927  1.2929
 7026TIP3   OH242568   3.818   0.188  12.702  0.1570 -0.2789  0.3946
 7026TIP3    H142569   3.871   0.268  12.702  0.5721 -0.5492  0.5997
 7026TIP3    H242570   3.797   0.172  12.610  1.3251 -0.7496  0.1950
 7027TIP3   OH242571   3.275   2.424   5.810 -0.1286  0.5037 -0.2619
 7027TIP3    H142572   3.327   2.463   5.740 -0.0202  0.7455 -0.0476
 7027TIP3    H242573   3.324   2.346   5.836 -0.7031 -0.1904 -1.1774
 7028TIP3   OH242574   4.531   1.353  15.951  0.2164 -0.2223 -0.1076
 7028TIP3    H142575   4.599   1.293  15.981 -0.8154 -1.3313  0.0736
 7028TIP3    H242576   4.492   1.310  15.875  0.4970  0.9709 -0.9680
 7029TIP3   OH242577   4.831   1.904   1.600 -0.1525  0.0875  0.0596
 7029TIP3    H142578   4.753   1.883   1.549 -1.3611 -0.2182  1.9219
 7029TIP3    H242579   4.818   1.859   1.683  2.0050  0.0970  0.4567
 7030TIP3   OH242580   4.194   1.445  12.167 -0.0712 -0.3565  0.3445
 7030TIP3    H142581   4.252   1.370  12.152 -2.1551 -1.8823 -0.5550
 7030TIP3    H242582   4.106   1.409  12.158 -1.3630  1.1719  4.7154
 7031TIP3   OH242583   2.423   5.710   4.672  0.4158 -0.4790 -0.5011
 7031TIP3    H142584   2.490   5.722   4.739  0.9726 -1.7398 -0.7958
 7031TIP3    H242585   2.466   5.737   4.590  0.3722 -0.7354 -0.6094
 7032TIP3   OH242586   4.075   0.433  12.344  0.2134  0.7206  0.4852
 7032TIP3    H142587   4.105   0.373  12.412  0.8340  1.1209  0.5758
 7032TIP3    H242588   4.026   0.378  12.283  0.3879  0.2053  0.8044
 7033TIP3   OH242589   0.025   5.626  13.664  0.8870  0.2213  0.6583
 7033TIP3    H142590   0.087   5.562  13.628 -0.6879 -1.6249  1.0737
 7033TIP3    H242591  -0.010   5.671  13.588  0.5282 -0.8678  0.1548
 7034TIP3   OH242592   2.931   6.463  11.635 -0.2633 -0.1106 -0.2011
 7034TIP3    H142593   2.923   6.375  11.599  0.1854 -0.5056  0.6270
 7034TIP3    H242594   2.893   6.520  11.568  0.7612 -0.7781 -1.3909
 7035TIP3   OH242595   4.463   0.743   0.153 -0.2148 -0.6124 -0.2201
 7035TIP3    H142596   4.417   0.752   0.070 -1.7787 -0.7470  0.5985
 7035TIP3    H242597   4.403   0.693   0.209  1.2153 -1.3872  0.6893
 7036TIP3   OH242598   4.567   2.471   1.929 -0.3280  0.1973 -0.3475
 7036TIP3    H142599   4.486   2.470   1.980 -0.2724 -0.8359 -0.2550
 7036TIP3    H242600   4.635   2.449   1.993 -0.3151 -1.5970 -0.9220
 7037TIP3   OH242601   2.785   1.283   4.797 -0.0419  0.0208  0.3596
 7037TIP3    H142602   2.706   1.275   4.743  0.1612  1.0507 -0.1067
 7037TIP3    H242603   2.795   1.377   4.810  0.4961 -0.1692  1.3436
 7038TIP3   OH242604   0.839   0.805   4.135 -0.7389  0.4611  0.0005
 7038TIP3    H142605   0.784   0.865   4.186  1.2939  1.7089  0.8522
 7038TIP3    H242606   0.876   0.745   4.200 -0.6611 -0.0250 -0.4809
 7039TIP3   OH242607   3.545   1.359  15.870  0.0696  0.0055 -0.3730
 7039TIP3    H142608   3.623   1.403  15.836 -0.4770  0.3186 -1.2319
 7039TIP3    H242609   3.471   1.406  15.831 -0.5395 -2.0334 -1.8359
 7040TIP3   OH242610   0.972   3.271   4.249 -0.0694  0.2377  0.1844
 7040TIP3    H142611   1.012   3.299   4.331  0.2958 -1.2681  0.5504
 7040TIP3    H242612   1.028   3.310   4.181 -0.1601  1.1901  0.6321
 7041TIP3   OH242613   6.431   4.193  16.887  0.4077  0.3971  0.2224
 7041TIP3    H142614   6.428   4.289  16.889  0.5183  0.4385 -1.0428
 7041TIP3    H242615   6.353   4.167  16.839  1.8886  0.0184 -2.1382
 7042TIP3   OH242616   2.857   3.574  14.514  0.3935  0.3191  0.1783
 7042TIP3    H142617   2.947   3.550  14.491  0.1560 -1.5969  1.0331
 7042TIP3    H242618   2.803   3.508  14.472 -0.6233  1.3867 -0.2237
 7043TIP3   OH242619   3.452   0.289   5.757 -0.8875 -0.0341  0.1418
 7043TIP3    H142620   3.501   0.371   5.755 -0.7065 -0.1471 -1.5513
 7043TIP3    H242621   3.421   0.282   5.847 -3.8426  3.6290 -0.3715
 7044TIP3   OH242622   6.129   1.378  16.327  0.4515 -0.0640  0.8152
 7044TIP3    H142623   6.040   1.348  16.343  0.4443 -0.6687 -0.2281
 7044TIP3    H242624   6.177   1.298  16.305  0.6208  0.5598 -1.2506
 7045TIP3   OH242625   3.972   0.079  15.657  0.5693 -0.8699 -0.1044
 7045TIP3    H142626   4.035   0.056  15.588  0.0264  1.6708 -1.5554
 7045TIP3    H242627   3.954  -0.004  15.701  1.4255 -2.4924 -2.6073
 7046TIP3   OH242628   0.127   2.083   4.419 -0.2455  0.0751 -0.1107
 7046TIP3    H142629   0.151   2.080   4.512  1.8295  0.9026 -0.5477
 7046TIP3    H242630   0.178   2.012   4.379  0.3839  0.9296 -0.8756
 7047TIP3   OH242631   3.695   1.863  15.312 -0.0980  0.2708 -0.0067
 7047TIP3    H142632   3.717   1.806  15.238  0.0076  1.3569 -0.8261
 7047TIP3    H242633   3.608   1.897  15.291  0.0769  0.8588  0.2020
 7048TIP3   OH242634   0.148   4.591   6.500 -0.7208  0.5150  0.4013
 7048TIP3    H142635   0.177   4.502   6.479 -2.2735 -0.5563  2.4970
 7048TIP3    H242636   0.216   4.625   6.558  0.0017  0.8507 -0.5982
 7049TIP3   OH242637   4.137   5.711  12.002 -0.2025  0.1322  0.0729
 7049TIP3    H142638   4.081   5.666  11.939 -3.1009 -0.9527  3.0715
 7049TIP3    H242639   4.077   5.736  12.073  2.7450  1.3145  2.3605
 7050TIP3   OH242640   0.478   3.474   1.359 -0.3492  0.6129 -0.0827
 7050TIP3    H142641   0.393   3.517   1.352  0.1432  1.6051 -0.1464
 7050TIP3    H242642   0.528   3.507   1.284  0.9543  2.0978  1.3550
 7051TIP3   OH242643   4.577   1.296  15.573  0.8425 -0.3201  0.1505
 7051TIP3    H142644   4.490   1.279  15.609  1.1694  0.4722  1.3394
 7051TIP3    H242645   4.592   1.389  15.589  1.6167 -0.2812 -0.7260
 7052TIP3   OH242646   6.014   6.031  11.205  0.5666 -0.7186  0.3679
 7052TIP3    H142647   5.999   6.094  11.135  0.5902  0.0736  1.0563
 7052TIP3    H242648   5.927   6.007  11.236  0.5525 -1.1663 -0.0135
 7053TIP3   OH242649   3.386   5.609   3.493  0.3780  0.6925  0.3863
 7053TIP3    H142650   3.460   5.657   3.456 -0.1609  0.8962 -0.4216
 7053TIP3    H242651   3.368   5.653   3.577  0.2506  1.5415 -0.0798
 7054TIP3   OH242652   2.191   3.800   4.459 -0.2647  0.5115  0.4341
 7054TIP3    H142653   2.101   3.832   4.468 -0.0213  1.1021  0.7738
 7054TIP3    H242654   2.208   3.805   4.365 -0.1196  1.7019  0.5103
 7055TIP3   OH242655   4.735   3.350  15.709 -0.5824 -0.6003  0.0766
 7055TIP3    H142656   4.653   3.364  15.661  0.4433  0.6390 -1.4305
 7055TIP3    H242657   4.803   3.369  15.645  0.9051 -1.5074  1.3242
 7056TIP3   OH242658   6.761   0.835   3.459  0.1901  0.1559  0.4840
 7056TIP3    H142659   6.796   0.889   3.529 -1.5586  0.7581  0.9483
 7056TIP3    H242660   6.729   0.898   3.394 -0.8916 -0.3221  0.5369
 7057TIP3   OH242661   2.005   5.192   1.833 -0.5264 -0.2747  0.1962
 7057TIP3    H142662   1.988   5.192   1.738  0.5184  0.8872 -0.0263
 7057TIP3    H242663   2.044   5.107   1.850  1.3950  0.3237 -0.8811
 7058TIP3   OH242664   1.723   2.456  13.793  0.1271 -0.1410  0.4274
 7058TIP3    H142665   1.769   2.377  13.764  1.0697 -0.2837  2.2213
 7058TIP3    H242666   1.769   2.528  13.749 -1.0908 -0.5574 -1.6640
 7059TIP3   OH242667   4.019   1.753   4.038 -0.2769 -0.1019  0.2091
 7059TIP3    H142668   4.059   1.688   4.096  0.2701  0.8066  0.8758
 7059TIP3    H242669   4.087   1.775   3.975  0.1892  1.1441  1.0966
 7060TIP3   OH242670   5.150   3.958   2.021  0.3466 -0.3722  0.0977
 7060TIP3    H142671   5.086   3.886   2.018  1.1008 -1.1859  1.8361
 7060TIP3    H242672   5.235   3.914   2.025  0.9275  0.6627 -0.5384
 7061TIP3   OH242673   6.375   1.068  12.096  0.4928 -0.7758 -0.0451
 7061TIP3    H142674   6.363   0.995  12.035  2.3156 -1.0711 -0.1043
 7061TIP3    H242675   6.287   1.086  12.129 -0.1242 -2.4445 -0.6702
 7062TIP3   OH242676   1.559   4.877   3.440  0.2226 -0.3054  0.4209
 7062TIP3    H142677   1.520   4.846   3.358  0.7903  1.5657 -0.6058
 7062TIP3    H242678   1.493   4.856   3.507 -1.3729  0.3718 -0.8633
 7063TIP3   OH242679   2.291   6.267   1.073 -0.2633 -0.4063  0.2766
 7063TIP3    H142680   2.219   6.231   1.125 -0.2387  0.8590  1.2175
 7063TIP3    H242681   2.304   6.203   1.002 -1.9475 -0.9170  0.3965
 7064TIP3   OH242682   5.558   6.763   0.692  0.4562  0.1696 -0.0268
 7064TIP3    H142683   5.502   6.716   0.754 -1.9219  0.0469 -2.0832
 7064TIP3    H242684   5.563   6.852   0.726 -0.4231 -0.0013  0.5687
 7065TIP3   OH242685   1.137   4.693  16.173  1.5075  0.4072 -0.4075
 7065TIP3    H142686   1.136   4.645  16.256  2.9899  1.2313  0.1207
 7065TIP3    H242687   1.087   4.773  16.191 -0.3813 -0.5501 -1.0922
 7066TIP3   OH242688   4.609   2.899   4.050 -0.1620  0.0463  0.0924
 7066TIP3    H142689   4.609   2.914   3.955 -0.3029 -0.8953 -0.0642
 7066TIP3    H242690   4.612   2.804   4.059 -1.5490  0.0705  1.0263
 7067TIP3   OH242691   4.253   5.255  15.211 -0.3444 -0.0106 -0.5924
 7067TIP3    H142692   4.279   5.308  15.135  1.0528  0.0341 -0.0958
 7067TIP3    H242693   4.248   5.317  15.283  3.3758 -0.7504  0.4844
 7068TIP3   OH242694   3.374   5.628   1.698  0.0433  0.6657  0.2186
 7068TIP3    H142695   3.368   5.650   1.791 -4.1554 -0.2351  0.3518
 7068TIP3    H242696   3.367   5.712   1.653  1.0377  1.0046  0.6549
 7069TIP3   OH242697   0.219   5.667   5.979 -0.5987 -0.4175 -0.4828
 7069TIP3    H142698   0.245   5.675   6.071 -1.2108 -0.3557 -0.3117
 7069TIP3    H242699   0.267   5.736   5.934  0.2716 -0.9098 -0.3360
 7070TIP3   OH242700   1.749   4.573  13.531  0.3222  0.2280  0.3927
 7070TIP3    H142701   1.733   4.489  13.575 -0.0752 -0.6778 -1.4051
 7070TIP3    H242702   1.688   4.634  13.574  0.0100 -0.5874  1.1474
 7071TIP3   OH242703   3.785   5.274   5.397  0.2372  0.0992 -0.1356
 7071TIP3    H142704   3.806   5.218   5.472 -2.4546 -1.0863 -0.1718
 7071TIP3    H242705   3.841   5.351   5.408  3.3571 -2.0762  0.4730
 7072TIP3   OH242706   5.078   5.855  17.466 -0.2119 -0.0316  0.2367
 7072TIP3    H142707   5.058   5.935  17.515 -1.9256  0.6247 -1.3989
 7072TIP3    H242708   5.002   5.843  17.408  1.3121 -1.2325 -1.6218
 7073TIP3   OH242709   3.348   3.095   4.535  0.3146 -0.2375  0.0454
 7073TIP3    H142710   3.388   3.086   4.621 -1.5627 -1.5477  0.8445
 7073TIP3    H242711   3.341   3.005   4.502 -0.3154  0.1141 -0.8344
 7074TIP3   OH242712   1.752   2.255   0.935 -0.1117 -1.1220  0.4575
 7074TIP3    H142713   1.664   2.265   0.898 -0.1731  0.6820  0.9854
 7074TIP3    H242714   1.810   2.255   0.859 -0.3386  1.1619  0.2081
 7075TIP3   OH242715   6.162   1.680  15.876 -0.0638  0.3443  0.0891
 7075TIP3    H142716   6.201   1.631  15.948  0.5439 -0.0467 -0.4991
 7075TIP3    H242717   6.211   1.653  15.798  0.4625  2.0762 -0.2244
 7076TIP3   OH242718   4.411   6.145   5.311 -0.1685  0.1193  0.2044
 7076TIP3    H142719   4.452   6.062   5.286  0.3387  0.0364  1.2864
 7076TIP3    H242720   4.361   6.125   5.390 -1.6803  0.4049 -0.6391
 7077TIP3   OH242721   1.561   1.266   1.419  0.4417  0.6030 -0.5999
 7077TIP3    H142722   1.613   1.193   1.453 -0.2128  0.6906  0.6397
 7077TIP3    H242723   1.537   1.238   1.330 -0.9224 -1.3025  0.3061
 7078TIP3   OH242724   6.085   0.122   5.347 -0.1612  0.3668 -0.0044
 7078TIP3    H142725   6.111   0.214   5.352  0.4612  0.1681  0.4966
 7078TIP3    H242726   6.064   0.098   5.437  0.2623 -0.1475 -0.0382
 7079TIP3   OH242727   5.724   2.444   1.617  0.1314 -0.2032 -0.6287
 7079TIP3    H142728   5.774   2.407   1.544  0.1160  0.0267 -0.7571
 7079TIP3    H242729   5.679   2.368   1.655 -2.3593  0.0244 -2.7759
 7080TIP3   OH242730   4.792   4.311   1.116  0.4422  0.4760  0.2780
 7080TIP3    H142731   4.871   4.312   1.171  0.3108  4.2176  0.6798
 7080TIP3    H242732   4.727   4.359   1.168 -0.8077  1.0130 -1.6993
 7081TIP3   OH242733   5.568   3.044   5.366 -0.7148  0.2949 -0.3212
 7081TIP3    H142734   5.558   2.988   5.288 -3.0610  0.3525 -0.1101
 7081TIP3    H242735   5.595   2.983   5.435 -1.7330 -0.3243 -0.4528
 7082TIP3   OH242736   2.459   5.403  11.276 -0.0069  0.7018  0.2190
 7082TIP3    H142737   2.503   5.333  11.228 -2.6752 -1.7205  1.0306
 7082TIP3    H242738   2.382   5.423  11.223  0.9124  3.4567 -0.2178
 7083TIP3   OH242739   4.129   1.807  13.076  1.1431 -0.1328 -0.1580
 7083TIP3    H142740   4.087   1.827  12.992  0.0512 -2.3640 -0.2043
 7083TIP3    H242741   4.168   1.721  13.063  0.9246 -0.5284  1.6446
 7084TIP3   OH242742   4.031   6.620   1.014  0.1160 -0.1660 -0.9425
 7084TIP3    H142743   4.036   6.616   1.109  2.7067  0.8506 -0.9535
 7084TIP3    H242744   3.942   6.591   0.993 -0.3594 -0.8747  1.7263
 7085TIP3   OH242745   2.177   1.153  11.377 -0.0984  0.0865 -0.1270
 7085TIP3    H142746   2.110   1.219  11.359 -0.3448  0.0529  0.6241
 7085TIP3    H242747   2.260   1.196  11.357 -0.3148  0.2868 -0.6095
 7086TIP3   OH242748   2.940   4.771   4.627  0.1337 -0.0126 -0.1325
 7086TIP3    H142749   2.936   4.695   4.685  3.6926 -0.1305  0.1997
 7086TIP3    H242750   2.894   4.744   4.548 -0.2505 -1.8312  0.6709
 7087TIP3   OH242751   5.896   5.746  13.311 -0.0153  0.2861  0.1869
 7087TIP3    H142752   5.807   5.723  13.285 -0.1657  0.5389  0.4756
 7087TIP3    H242753   5.894   5.841  13.322  0.3229  0.3100  0.0691
 7088TIP3   OH242754   5.196   4.979  16.131 -0.3233 -0.2530  0.1418
 7088TIP3    H142755   5.221   5.027  16.210 -1.1940 -0.5325  0.6026
 7088TIP3    H242756   5.157   5.045  16.074  1.4206  0.1888 -0.5904
 7089TIP3   OH242757   5.223   5.460   3.510  0.2325 -0.2484  0.0199
 7089TIP3    H142758   5.271   5.378   3.525 -1.8396 -1.4345  0.5139
 7089TIP3    H242759   5.174   5.444   3.429 -0.1400  0.5522  0.0804
 7090TIP3   OH242760   5.880   6.525   5.505 -0.4698 -0.3119  0.5155
 7090TIP3    H142761   5.806   6.510   5.447 -1.2593 -0.8194  1.6100
 7090TIP3    H242762   5.882   6.620   5.518 -0.7310 -0.2672  0.2409
 7091TIP3   OH242763   4.798   2.018  15.594 -0.4994 -0.0099 -0.0390
 7091TIP3    H142764   4.875   1.986  15.640 -0.0126  1.2923  0.0834
 7091TIP3    H242765   4.829   2.045  15.508 -0.8625  0.2703 -0.0888
 7092TIP3   OH242766   5.156   0.893   3.145  0.5832  0.3493  0.0152
 7092TIP3    H142767   5.079   0.905   3.202  0.3869 -3.2513  0.7650
 7092TIP3    H242768   5.229   0.881   3.206  1.5968  2.4827 -0.6836
 7093TIP3   OH242769   0.170   3.010  16.140 -0.0320  0.2436  0.2034
 7093TIP3    H142770   0.197   2.956  16.214 -2.1709  0.2776  1.0816
 7093TIP3    H242771   0.093   2.966  16.105  1.2972 -0.1561 -2.5101
 7094TIP3   OH242772   6.499   4.626   5.419  0.5863  0.7426  0.1497
 7094TIP3    H142773   6.532   4.668   5.339 -0.5045  0.4541 -0.4677
 7094TIP3    H242774   6.557   4.550   5.430  0.7714  0.8005 -0.3502
 7095TIP3   OH242775   6.105   1.191  13.599 -0.0309  0.0519 -0.4044
 7095TIP3    H142776   6.195   1.208  13.627 -0.9646  1.3193  2.0714
 7095TIP3    H242777   6.099   1.232  13.512  1.3779  1.2981  0.0471
 7096TIP3   OH242778   3.421   1.809   3.425 -0.4441  0.8148 -0.4445
 7096TIP3    H142779   3.467   1.765   3.353 -0.4821  0.4038 -0.2203
 7096TIP3    H242780   3.481   1.878   3.452 -0.4882  1.0632 -0.9632
 7097TIP3   OH242781   2.688   1.446  16.308  0.5877  0.1469 -0.7555
 7097TIP3    H142782   2.772   1.475  16.346  0.0460 -0.2733  0.8638
 7097TIP3    H242783   2.697   1.351  16.302  1.0740  0.2785 -2.8175
 7098TIP3   OH242784   5.976   4.961   1.002  0.5193 -0.0196 -0.0107
 7098TIP3    H142785   6.035   4.931   1.071 -1.2478 -1.9108  0.7726
 7098TIP3    H242786   5.955   4.881   0.953  0.6689  1.0670 -1.9267
 7099TIP3   OH242787   3.507   3.042   0.590  0.0673  0.2473 -0.4948
 7099TIP3    H142788   3.454   3.035   0.510 -0.8830 -0.8747  0.2173
 7099TIP3    H242789   3.532   2.952   0.610 -0.8619  0.3437  1.2335
 7100TIP3   OH242790   1.093   3.730  15.566  0.2456 -0.1689 -0.0542
 7100TIP3    H142791   1.178   3.700  15.600  0.5578  0.7417  0.0166
 7100TIP3    H242792   1.116   3.791  15.496 -0.2481  2.0946  1.6404
 7101TIP3   OH242793   2.594   4.412  13.511 -0.0460 -0.8747  0.4530
 7101TIP3    H142794   2.630   4.441  13.595  0.3407 -0.7563  0.2519
 7101TIP3    H242795   2.618   4.481  13.449  0.5085 -1.4045  0.0556
 7102TIP3   OH242796   1.255   4.002  16.295  0.0676  0.0986 -0.5125
 7102TIP3    H142797   1.183   4.022  16.235 -0.1802  1.3416  0.1638
 7102TIP3    H242798   1.218   4.015  16.383  0.3629 -1.8687 -0.0361
 7103TIP3   OH242799   6.291   3.614  13.367  0.1455  0.5305 -0.7573
 7103TIP3    H142800   6.315   3.548  13.303 -2.8600 -1.0376 -0.4197
 7103TIP3    H242801   6.359   3.608  13.435  0.4884 -1.4899 -1.2320
 7104TIP3   OH242802   4.006   5.162  12.656 -0.0186  0.1576 -0.0395
 7104TIP3    H142803   3.932   5.212  12.689  2.2615  2.8475  1.3758
 7104TIP3    H242804   4.006   5.180  12.562 -2.3178 -1.6682 -0.4833
 7105TIP3   OH242805   0.849   6.245   3.282  0.0669  0.3980  0.1458
 7105TIP3    H142806   0.805   6.330   3.291  4.3122  2.7221  1.3595
 7105TIP3    H242807   0.858   6.233   3.188  0.9634  2.2719 -0.0505
 7106TIP3   OH242808   2.867   4.417  16.651  0.2903  0.1184 -0.0323
 7106TIP3    H142809   2.782   4.376  16.667  0.9882 -0.5915  2.1485
 7106TIP3    H242810   2.930   4.345  16.652  1.2320  0.8977  1.2858
 7107TIP3   OH242811   1.639   4.898   5.551 -0.0436  0.0514 -0.3826
 7107TIP3    H142812   1.692   4.819   5.565 -0.9466 -0.4935  0.0219
 7107TIP3    H242813   1.699   4.970   5.569  0.8182 -0.5320 -0.8239
 7108TIP3   OH242814   6.469   0.198  12.798 -0.3056  0.0684 -0.0227
 7108TIP3    H142815   6.382   0.187  12.836  0.3907 -0.0871  1.6011
 7108TIP3    H242816   6.528   0.155  12.860  1.2070  2.3433  0.2147
 7109TIP3   OH242817   3.609   5.804   5.066  0.0452  0.1715 -0.5127
 7109TIP3    H142818   3.658   5.823   5.146 -0.6262  1.7729 -0.4532
 7109TIP3    H242819   3.661   5.846   4.997 -0.7188  1.0261 -0.5741
 7110TIP3   OH242820   4.449   6.210   0.070 -0.0385 -0.6684  0.2024
 7110TIP3    H142821   4.498   6.270   0.014  0.0669 -1.3042 -0.4084
 7110TIP3    H242822   4.357   6.234   0.057  0.0517 -0.0547  0.6640
 7111TIP3   OH242823   0.464   4.625  14.779  0.1549 -0.2366 -0.0576
 7111TIP3    H142824   0.497   4.658  14.695  0.3984 -1.5582 -0.4975
 7111TIP3    H242825   0.532   4.565  14.810 -0.7993 -1.2528  0.1252
 7112TIP3   OH242826   5.668   4.643   5.485 -0.2490 -0.2081  0.3221
 7112TIP3    H142827   5.617   4.593   5.422  0.4799 -1.1382  0.4469
 7112TIP3    H242828   5.755   4.650   5.446 -0.6364  2.0191 -0.2412
 7113TIP3   OH242829   1.040   6.547   3.964  0.4233  0.3094 -0.5370
 7113TIP3    H142830   1.045   6.547   4.060  0.0559 -0.2036 -0.5149
 7113TIP3    H242831   1.097   6.474   3.937  0.6020  0.5128 -0.7159
 7114TIP3   OH242832   6.086   2.370   0.197  0.5135 -0.2455  0.4595
 7114TIP3    H142833   6.045   2.377   0.111  1.6355  0.8937 -0.0166
 7114TIP3    H242834   6.176   2.342   0.178  1.2614  1.5837  1.1018
 7115TIP3   OH242835   5.342   5.515   5.230  0.2719 -0.4049 -0.1490
 7115TIP3    H142836   5.300   5.585   5.279  1.1006  0.1964 -0.2817
 7115TIP3    H242837   5.374   5.454   5.296  0.7006  0.0073  0.0229
 7116TIP3   OH242838   5.200   1.461  13.065 -0.3180 -0.1062 -0.3143
 7116TIP3    H142839   5.142   1.536  13.062  0.0806  0.2841  0.8733
 7116TIP3    H242840   5.274   1.485  13.009 -1.1043 -0.4501 -1.5239
 7117TIP3   OH242841   5.686   6.697  11.355  0.0747 -0.4598 -0.4627
 7117TIP3    H142842   5.765   6.645  11.341  1.8672  1.8902  0.1263
 7117TIP3    H242843   5.704   6.780  11.311 -1.6470  0.5354  0.5702
 7118TIP3   OH242844   5.581   1.242  15.851 -0.1903  0.3541 -0.6322
 7118TIP3    H142845   5.601   1.336  15.851  0.7837  0.1711  0.2388
 7118TIP3    H242846   5.496   1.235  15.809 -0.8359  1.7604  0.3539
 7119TIP3   OH242847   0.665   1.730   6.092  0.0108 -0.1560  0.4067
 7119TIP3    H142848   0.674   1.807   6.148  2.4400 -0.6660  0.8232
 7119TIP3    H242849   0.584   1.689   6.122 -1.0374  1.9002  0.5537
 7120TIP3   OH242850   0.072   0.467  11.898 -0.1861 -0.2283  0.1554
 7120TIP3    H142851   0.011   0.430  11.961 -0.7818  1.1557  0.4451
 7120TIP3    H242852   0.039   0.438  11.813 -0.9679  0.0909  0.3406
 7121TIP3   OH242853   0.792   0.534  13.963 -0.0335  0.0724 -0.1217
 7121TIP3    H142854   0.834   0.448  13.974 -0.9452 -0.5440 -1.1824
 7121TIP3    H242855   0.832   0.570  13.883  1.0482  1.0909  0.8488
 7122TIP3   OH242856   1.945   2.190  14.348  0.0008  0.0028  0.0918
 7122TIP3    H142857   1.926   2.195  14.254  0.9686 -1.8512 -0.2456
 7122TIP3    H242858   1.868   2.148  14.386 -1.2536  2.4958  0.4898
 7123TIP3   OH242859   3.884   2.432   0.674 -0.1567 -0.0029  0.6194
 7123TIP3    H142860   3.906   2.340   0.661 -0.5118 -0.0114  0.0461
 7123TIP3    H242861   3.789   2.434   0.683 -0.0637  0.1919  1.7159
 7124TIP3   OH242862   2.501   0.353  15.689  0.2812  0.4020  0.0193
 7124TIP3    H142863   2.448   0.431  15.705 -0.8269 -0.3236 -0.0389
 7124TIP3    H242864   2.592   0.386  15.689 -0.0799  1.4954  1.1542
 7125TIP3   OH242865   2.852   2.684  13.261 -0.2297 -0.1181  0.0805
 7125TIP3    H142866   2.812   2.739  13.194  1.7357  0.6363 -0.5173
 7125TIP3    H242867   2.930   2.732  13.289 -0.8879 -0.4697  2.8160
 7126TIP3   OH242868   2.680   0.114  15.896 -0.1738 -0.3354 -0.6411
 7126TIP3    H142869   2.701   0.179  15.963  0.2017 -1.5983  0.5255
 7126TIP3    H242870   2.595   0.079  15.922 -0.3016 -0.4091 -1.1592
 7127TIP3   OH242871   1.744   5.884  14.815 -0.1784 -0.0333  0.3343
 7127TIP3    H142872   1.666   5.916  14.770 -1.2110 -1.9387  0.6697
 7127TIP3    H242873   1.779   5.961  14.860 -1.1772  1.1089 -0.7662
 7128TIP3   OH242874   5.279   5.586  15.240 -0.4382  0.3404 -0.0461
 7128TIP3    H142875   5.284   5.500  15.281 -0.2564 -0.6501 -2.0085
 7128TIP3    H242876   5.339   5.640  15.290 -0.7285 -0.5773  1.3837
 7129TIP3   OH242877   6.257   4.632  12.289  0.5247 -0.5309  0.2944
 7129TIP3    H142878   6.228   4.636  12.380  2.1084  0.2199  0.8116
 7129TIP3    H242879   6.264   4.539  12.270 -1.6438 -0.7318  0.2901
 7130TIP3   OH242880   2.514   0.969   1.937 -0.0598 -0.0239  0.1303
 7130TIP3    H142881   2.503   0.874   1.925  2.3246 -0.3942  0.4815
 7130TIP3    H242882   2.554   0.999   1.856  0.0100  0.5310  0.3685
 7131TIP3   OH242883   4.214   3.867   4.075  0.4118 -0.3146 -0.9883
 7131TIP3    H142884   4.255   3.866   4.161  1.0554 -0.2378 -1.2832
 7131TIP3    H242885   4.158   3.945   4.076  2.7476  1.5354 -1.6567
 7132TIP3   OH242886   2.263   2.167   1.958 -0.0880  0.3065 -0.6441
 7132TIP3    H142887   2.314   2.143   2.035 -0.2478  1.6596 -0.0858
 7132TIP3    H242888   2.177   2.192   1.993 -1.1335 -1.7889 -1.5504
 7133TIP3   OH242889   3.519   4.179  16.587 -0.2613 -0.4922  0.0292
 7133TIP3    H142890   3.604   4.148  16.617  0.2443  0.4059 -0.4185
 7133TIP3    H242891   3.531   4.196  16.494 -0.1900  1.9186  0.3954
 7134TIP3   OH242892   3.422   3.595   0.699 -0.0323  0.3480 -0.1222
 7134TIP3    H142893   3.412   3.551   0.615  0.3089  0.4201 -0.2030
 7134TIP3    H242894   3.502   3.557   0.736 -0.2663  0.1990  0.2427
 7135TIP3   OH242895   2.395   1.099  15.344 -0.0249  0.2511 -0.1885
 7135TIP3    H142896   2.384   1.100  15.439 -1.1756  0.0542 -0.3061
 7135TIP3    H242897   2.463   1.165  15.327  1.3881 -0.8405  0.8926
 7136TIP3   OH242898   2.000   4.573   3.962 -0.0659  0.3274 -0.5416
 7136TIP3    H142899   1.995   4.517   4.039 -1.5940  0.9398 -0.1427
 7136TIP3    H242900   1.940   4.533   3.899  0.8671  0.0558 -1.2897
 7137TIP3   OH242901   2.781   3.206  17.241 -0.2065 -0.2709 -0.5316
 7137TIP3    H142902   2.874   3.189  17.223  0.2622  1.3478  0.1937
 7137TIP3    H242903   2.781   3.284  17.296 -1.8877 -1.5482  1.4205
 7138TIP3   OH242904   5.872   3.110  14.823 -0.1758 -0.2313 -0.0678
 7138TIP3    H142905   5.955   3.090  14.779  0.5486 -2.0533  1.9363
 7138TIP3    H242906   5.839   3.025  14.852 -1.8330  0.6431  0.7320
 7139TIP3   OH242907   4.019   2.213   0.541 -0.2867  0.0357  0.4150
 7139TIP3    H142908   4.023   2.234   0.448 -0.4361  2.1270  0.8409
 7139TIP3    H242909   3.958   2.139   0.546 -2.2231  1.4334 -0.9464
 7140TIP3   OH242910   1.613   2.297  14.275 -0.2440 -0.5902  0.0676
 7140TIP3    H142911   1.574   2.384  14.276 -0.6423 -0.7709  0.9442
 7140TIP3    H242912   1.641   2.282  14.365  0.8162 -0.9314 -0.3058
 7141TIP3   OH242913   1.870   6.426  12.328  0.3457 -0.5148  0.2988
 7141TIP3    H142914   1.905   6.427  12.239 -0.8196 -0.5393 -0.1653
 7141TIP3    H242915   1.777   6.408  12.318 -0.3130  1.9419  1.3626
 7142TIP3   OH242916   5.048   1.081   0.335 -0.1752 -0.0959  0.1652
 7142TIP3    H142917   4.999   1.156   0.371  0.5433  0.3218  0.2948
 7142TIP3    H242918   5.003   1.060   0.253 -0.4816  0.3829  0.2044
 7143TIP3   OH242919   1.243   2.676  14.414 -0.3781 -0.3990  0.1536
 7143TIP3    H142920   1.221   2.765  14.386  0.8173 -0.1390 -0.0233
 7143TIP3    H242921   1.196   2.619  14.352  1.2953  0.1581 -1.7165
 7144TIP3   OH242922   4.728   0.723   2.951  0.2566 -0.5080  0.2706
 7144TIP3    H142923   4.680   0.717   3.034  0.5500 -0.9464  0.4125
 7144TIP3    H242924   4.742   0.633   2.925 -1.4486 -0.3934 -1.2218
 7145TIP3   OH242925   0.125   2.230   5.590  0.2741  0.1461  0.5690
 7145TIP3    H142926   0.189   2.162   5.568 -0.4257 -0.1155 -0.7968
 7145TIP3    H242927   0.177   2.300   5.629  1.3370 -0.2578 -0.0611
 7146TIP3   OH242928   2.732   5.871  13.819  0.0113 -0.0301 -0.2065
 7146TIP3    H142929   2.821   5.837  13.820  0.0957  0.1245 -1.2004
 7146TIP3    H242930   2.725   5.918  13.736  0.0883  2.9039  1.3310
 7147TIP3   OH242931   3.991   0.194   0.950 -0.1887  0.3410 -0.3385
 7147TIP3    H142932   3.976   0.162   0.861  0.2631  0.8771 -0.6130
 7147TIP3    H242933   4.086   0.186   0.963 -0.1638  0.8948 -0.1528
 7148TIP3   OH242934   4.896   0.650   0.692  0.6877  0.5075 -0.1775
 7148TIP3    H142935   4.957   0.712   0.652 -0.0272  1.9641  0.8875
 7148TIP3    H242936   4.947   0.606   0.759  0.7474  1.2667  0.2872
 7149TIP3   OH242937   3.572   6.432  17.088  0.4878  0.0127  0.3588
 7149TIP3    H142938   3.488   6.425  17.042  0.2022  0.9329  0.7206
 7149TIP3    H242939   3.566   6.369  17.159  0.6646 -0.9321 -0.4433
 7150TIP3   OH242940   0.039   4.353   4.182 -0.1734  0.5652 -0.4339
 7150TIP3    H142941   0.083   4.393   4.258 -0.8442  1.0130 -0.2718
 7150TIP3    H242942   0.025   4.262   4.208 -1.5585  1.0122  0.5307
 7151TIP3   OH242943   6.356   0.158  16.002 -0.1271  0.3893  0.3274
 7151TIP3    H142944   6.389   0.239  16.041  0.0781  1.2986 -1.6419
 7151TIP3    H242945   6.273   0.183  15.963  0.5415 -0.0002 -1.4211
 7152TIP3   OH242946   3.872   2.953  14.760 -0.4106 -0.3850 -0.2030
 7152TIP3    H142947   3.954   2.945  14.711  0.2964 -3.8371  1.2519
 7152TIP3    H242948   3.831   3.032  14.725  3.6410  1.7507 -0.7491
 7153TIP3   OH242949   5.801   0.518  12.287 -0.1867  0.1722 -0.0179
 7153TIP3    H142950   5.770   0.476  12.368 -0.6122 -2.8523 -1.5911
 7153TIP3    H242951   5.728   0.508  12.226  0.9959  0.1155 -1.4796
 7154TIP3   OH242952   2.854   5.625  12.594 -0.2159 -0.0097 -0.5844
 7154TIP3    H142953   2.788   5.636  12.663 -0.7135  0.1914 -1.0929
 7154TIP3    H242954   2.838   5.697  12.534  1.4477  0.9639  0.0695
 7155TIP3   OH242955   1.706   3.337   2.452 -0.3429 -0.0992  0.3415
 7155TIP3    H142956   1.614   3.357   2.473 -0.0547  1.0829  0.5649
 7155TIP3    H242957   1.717   3.365   2.362 -0.0222  0.4373  0.5425
 7156TIP3   OH242958   4.684   1.024   3.141  0.2456  0.5647 -0.2733
 7156TIP3    H142959   4.672   0.948   3.084 -0.2263  1.1393 -0.9504
 7156TIP3    H242960   4.625   1.008   3.215 -1.2099  1.1146 -1.2878
 7157TIP3   OH242961   4.144   6.121  11.983  0.1112  0.4008 -0.1967
 7157TIP3    H142962   4.118   6.105  11.893 -0.1102 -1.5991  0.1671
 7157TIP3    H242963   4.229   6.164  11.977  1.5921 -2.4202 -1.4269
 7158TIP3   OH242964   5.997   6.674  14.113 -0.3285 -0.4133  0.5414
 7158TIP3    H142965   5.991   6.608  14.182  1.5403  0.1988  1.3738
 7158TIP3    H242966   5.907   6.703  14.099 -1.0807 -2.4944  0.7674
 7159TIP3   OH242967   4.093   6.115  15.006  0.2861  0.1412  1.0712
 7159TIP3    H142968   4.046   6.094  15.086  0.7895  1.9118  1.8896
 7159TIP3    H242969   4.177   6.152  15.036  1.4304 -1.1926 -0.3114
 7160TIP3   OH242970   3.586   5.921  15.726 -0.2245 -0.0470 -0.3396
 7160TIP3    H142971   3.502   5.897  15.687 -0.4564  1.9590 -1.1795
 7160TIP3    H242972   3.651   5.878  15.671 -0.6575 -0.8148 -0.2661
 7161TIP3   OH242973   5.336   1.125   6.084 -0.1411  0.0257 -0.2066
 7161TIP3    H142974   5.391   1.114   6.006 -0.9648  1.0777 -0.9517
 7161TIP3    H242975   5.395   1.161   6.150  0.4596 -0.4729 -0.4548
 7162TIP3   OH242976   1.970   3.707   3.695  0.4067  0.0762 -0.3318
 7162TIP3    H142977   1.879   3.731   3.716  0.0644 -1.0023 -0.4826
 7162TIP3    H242978   2.023   3.777   3.733 -0.4180  0.0731  0.8914
 7163TIP3   OH242979   2.153   1.532  14.995  0.0514 -0.0884  0.9425
 7163TIP3    H142980   2.142   1.459  15.055  2.1153 -0.6117  0.7684
 7163TIP3    H242981   2.239   1.518  14.955 -0.4094  1.2944 -0.6829
 7164TIP3   OH242982   4.850   1.340  11.733 -0.2594 -0.3301 -0.1140
 7164TIP3    H142983   4.922   1.379  11.781 -1.3184  0.3658  0.9723
 7164TIP3    H242984   4.788   1.412  11.720 -1.4544 -1.2396  0.3631
 7165TIP3   OH242985   4.581   1.534   4.156 -0.1268 -0.1411 -0.4914
 7165TIP3    H142986   4.650   1.547   4.091  0.2075 -1.1959 -0.3629
 7165TIP3    H242987   4.532   1.616   4.155  1.8571  1.1533  0.2740
 7166TIP3   OH242988   2.298   3.890   5.889 -0.4448  0.3991 -0.0403
 7166TIP3    H142989   2.277   3.885   5.796  0.6148 -0.2182 -0.2557
 7166TIP3    H242990   2.382   3.846   5.898 -1.0219 -0.5189  1.3768
 7167TIP3   OH242991   3.009   5.895   4.040  0.4826 -0.1292  0.1443
 7167TIP3    H142992   3.041   5.809   4.065 -0.4933 -0.7318 -0.5956
 7167TIP3    H242993   3.043   5.909   3.951  1.5024  0.7222  0.6398
 7168TIP3   OH242994   3.044   0.075  16.074  0.1985  0.2025  0.6326
 7168TIP3    H142995   2.967   0.041  16.119 -0.3420  1.8879  1.0452
 7168TIP3    H242996   3.088   0.129  16.140  0.5739  0.9523 -0.2145
 7169TIP3   OH242997   1.892   4.630  12.308  0.9510 -0.1277  0.0489
 7169TIP3    H142998   1.817   4.681  12.276 -0.4889 -1.5535  1.0357
 7169TIP3    H242999   1.954   4.696  12.338 -0.0512  1.0958 -0.4555
 7170TIP3   OH243000   2.094   3.302   1.247  0.1406 -0.2598 -0.1992
 7170TIP3    H143001   2.123   3.309   1.156  0.3015  1.7480 -0.0424
 7170TIP3    H243002   2.165   3.256   1.291  0.9889  0.5077 -0.7272
 7171TIP3   OH243003   1.613   1.595   5.981 -0.6032 -0.3495  0.4710
 7171TIP3    H143004   1.536   1.570   5.930  0.0447 -0.3058 -0.5580
 7171TIP3    H243005   1.677   1.623   5.916 -0.2825  1.2156  1.4153
 7172TIP3   OH243006   4.321   1.882   1.231  0.5265  0.1676  0.1736
 7172TIP3    H143007   4.383   1.947   1.262  1.2854 -0.7163  0.5483
 7172TIP3    H243008   4.314   1.899   1.137  0.1808  1.2143  0.3767
 7173TIP3   OH243009   1.043   3.162  12.477  0.4958  0.4215  0.6757
 7173TIP3    H143010   1.020   3.070  12.468 -1.9572  0.9035  1.2345
 7173TIP3    H243011   1.021   3.201  12.393 -2.2207  1.1056  1.5804
 7174TIP3   OH243012   4.504   3.096   4.917 -0.1017  0.3358  0.5061
 7174TIP3    H143013   4.420   3.089   4.871 -0.0380  0.8900  0.3093
 7174TIP3    H243014   4.515   3.010   4.958 -1.3405  0.6155  1.5167
 7175TIP3   OH243015   0.333   6.626   6.083  0.2388 -0.2795  0.3188
 7175TIP3    H143016   0.361   6.607   6.173  0.7974 -0.5223  0.0982
 7175TIP3    H243017   0.335   6.542   6.039  0.1473 -0.1301  0.0290
 7176TIP3   OH243018   6.415   3.211   2.004  0.0644 -0.3212  0.0558
 7176TIP3    H143019   6.390   3.119   2.005 -1.1997  0.0038  1.2200
 7176TIP3    H243020   6.333   3.259   2.005  0.7056  0.8343 -0.4262
 7177TIP3   OH243021   3.651   5.274   0.099  0.0990 -0.0500  0.6364
 7177TIP3    H143022   3.701   5.216   0.157 -0.7723 -0.5333  0.9227
 7177TIP3    H243023   3.570   5.226   0.083 -0.2339  0.6881  0.1101
 7178TIP3   OH243024   6.296   2.520   0.537 -0.2105  0.0803 -0.1616
 7178TIP3    H143025   6.225   2.560   0.486  1.4812  1.4833 -1.5360
 7178TIP3    H243026   6.328   2.448   0.483 -0.0086  0.0059  0.0518
 7179TIP3   OH243027   0.501   5.710   4.054  0.1764 -0.5811  0.1589
 7179TIP3    H143028   0.505   5.794   4.101  0.6297 -0.3882 -0.2201
 7179TIP3    H243029   0.428   5.664   4.095  0.2804 -0.2325  0.7586
 7180TIP3   OH243030   0.172   4.136   0.040 -0.3344 -0.0361  0.8148
 7180TIP3    H143031   0.264   4.113   0.047  1.1626  3.9040 -2.1676
 7180TIP3    H243032   0.154   4.134  -0.054 -3.3883 -0.7126  1.3053
 7181TIP3   OH243033   1.751   5.020   4.300  0.2623 -0.2068  0.3949
 7181TIP3    H143034   1.793   4.941   4.265  0.3368  0.2354 -0.5357
 7181TIP3    H243035   1.807   5.092   4.271 -0.0263  0.2276  0.8959
 7182TIP3   OH243036   4.073   6.126   5.187  1.0560  0.3629  0.5115
 7182TIP3    H143037   4.140   6.097   5.249  0.6019  0.2320  0.9452
 7182TIP3    H243038   3.993   6.133   5.239  0.2060 -1.5567 -0.4088
 7183TIP3   OH243039   5.146   6.128   5.268 -0.0238 -0.4563  0.0882
 7183TIP3    H143040   5.118   6.167   5.351 -0.4302 -0.4795 -0.0347
 7183TIP3    H243041   5.066   6.090   5.231  0.4927 -2.1195  0.5713
 7184TIP3   OH243042   3.125   0.755   0.538  0.2944 -0.1991  0.1111
 7184TIP3    H143043   3.093   0.804   0.462 -1.1697 -0.3537  0.5996
 7184TIP3    H243044   3.174   0.682   0.500 -0.7692 -0.5182 -0.7341
 7185TIP3   OH243045   5.077   2.723   0.391  0.2265 -0.2649 -0.0272
 7185TIP3    H143046   5.080   2.782   0.316 -1.8908  1.5149  1.2052
 7185TIP3    H243047   5.026   2.648   0.361 -0.0956  0.1587 -0.5423
 7186TIP3   OH243048   2.361   6.498   1.836  0.7004  0.0091  0.5118
 7186TIP3    H143049   2.358   6.563   1.765  1.5988 -0.1570  0.3068
 7186TIP3    H243050   2.361   6.414   1.791  1.0940 -0.0983  0.7047
 7187TIP3   OH243051   5.812   2.695   0.541  0.0450  0.0569 -0.4398
 7187TIP3    H143052   5.864   2.768   0.575 -0.5374  0.0329  0.5740
 7187TIP3    H243053   5.780   2.650   0.620 -0.5017 -0.6373 -1.0419
 7188TIP3   OH243054   0.256   6.266  11.771 -0.8192  0.6547  0.5451
 7188TIP3    H143055   0.197   6.195  11.748  1.5085 -1.0973 -0.3799
 7188TIP3    H243056   0.232   6.338  11.712  0.1292 -1.2046 -2.2947
 7189TIP3   OH243057   2.912   5.408  15.877  0.0896  0.0962  1.1511
 7189TIP3    H143058   2.880   5.497  15.869 -1.8631 -0.4381  2.3743
 7189TIP3    H243059   2.833   5.353  15.874  1.3199 -1.7261 -0.9690
 7190TIP3   OH243060   4.117   4.683   3.170 -0.2264 -0.3652 -0.1822
 7190TIP3    H143061   4.138   4.671   3.262  0.3100 -1.0506 -0.3852
 7190TIP3    H243062   4.116   4.594   3.134 -1.7046 -0.2211 -0.5713
 7191TIP3   OH243063   4.779   3.747  11.002 -0.9236  0.3383  0.5389
 7191TIP3    H143064   4.775   3.830  10.955  1.2215  0.0900 -0.1857
 7191TIP3    H243065   4.835   3.763  11.078 -1.3830 -0.1715  0.9968
 7192TIP3   OH243066   5.214   1.659  13.344 -0.1277  0.0941  0.1781
 7192TIP3    H143067   5.152   1.731  13.345 -0.2782 -0.0148 -0.5271
 7192TIP3    H243068   5.160   1.581  13.329 -0.0249 -0.2295  1.4425
 7193TIP3   OH243069   4.279   0.948  14.519  0.2322  0.1363 -0.1026
 7193TIP3    H143070   4.266   0.869  14.466 -0.9203 -0.3315  0.8386
 7193TIP3    H243071   4.301   1.016  14.455 -2.3738 -0.0998 -1.3674
 7194TIP3   OH243072   5.601   1.274   6.125 -0.0061  0.4051 -0.1513
 7194TIP3    H143073   5.649   1.351   6.155  2.1225 -1.1460  0.7060
 7194TIP3    H243074   5.600   1.216   6.201 -0.3923 -0.9432 -1.1475
 7195TIP3   OH243075   0.244   3.324   2.024 -0.0064  0.3686 -1.1045
 7195TIP3    H143076   0.285   3.411   2.025 -0.2434  0.5001 -2.0211
 7195TIP3    H243077   0.283   3.280   1.948  0.4596 -0.5063 -0.3826
 7196TIP3   OH243078   5.473   0.805   2.705 -0.6221  0.0273  0.1577
 7196TIP3    H143079   5.397   0.823   2.648 -0.8930 -1.8631 -0.1614
 7196TIP3    H243080   5.434   0.781   2.789 -0.2877  0.8185  0.5477
 7197TIP3   OH243081   4.862   0.228  17.146 -0.4545 -0.0784  0.1348
 7197TIP3    H143082   4.774   0.211  17.112 -0.3850  0.3824 -0.2833
 7197TIP3    H243083   4.899   0.141  17.162 -0.8068 -0.2823 -0.1581
 7198TIP3   OH243084   4.910   2.978  16.820  0.3166  0.3441  0.1768
 7198TIP3    H143085   4.948   2.953  16.735 -1.5965  0.4895 -0.7963
 7198TIP3    H243086   4.938   3.068  16.834  1.6890 -0.0873  0.3494
 7199TIP3   OH243087   2.722   4.872  15.088 -0.2666 -1.0634 -0.2356
 7199TIP3    H143088   2.638   4.828  15.071 -1.8938  1.7944 -0.2060
 7199TIP3    H243089   2.717   4.899  15.179  0.6907 -0.8279 -0.2457
 7200TIP3   OH243090   4.471   0.494   1.469  0.3814 -0.8257  0.7374
 7200TIP3    H143091   4.388   0.484   1.517 -0.7516  0.5509 -0.8483
 7200TIP3    H243092   4.514   0.567   1.513  0.5873 -1.2673  1.2930
 7201TIP3   OH243093   3.361   1.278   0.673 -0.6568  0.0546 -0.1283
 7201TIP3    H143094   3.412   1.320   0.742 -0.5821  0.1823 -0.2617
 7201TIP3    H243095   3.313   1.349   0.632  0.2036  0.1566 -0.9846
 7202TIP3   OH243096   4.767   0.443  13.690  0.1799  0.1639 -0.0181
 7202TIP3    H143097   4.808   0.372  13.740  0.0383  0.2535  0.2250
 7202TIP3    H243098   4.836   0.473  13.631  0.2300 -0.2001 -0.1463
 7203TIP3   OH243099   2.764   1.334  11.578 -0.4238 -0.5877  0.2951
 7203TIP3    H143100   2.696   1.268  11.564 -1.7197  0.5531  0.9707
 7203TIP3    H243101   2.741   1.405  11.518  0.4561 -0.3717  0.1989
 7204TIP3   OH243102   2.610   5.000  16.810 -0.2415 -0.5518  0.8110
 7204TIP3    H143103   2.624   4.924  16.867  1.3974 -0.5912  0.4175
 7204TIP3    H243104   2.654   5.072  16.855 -1.9440  0.2263  1.2720
 7205TIP3   OH243105   4.337   4.280  16.830  0.6044 -0.3497  0.1222
 7205TIP3    H143106   4.279   4.331  16.773 -0.6405 -1.6437  0.1872
 7205TIP3    H243107   4.313   4.308  16.918 -1.0685 -1.9815  0.2355
 7206TIP3   OH243108   4.209   1.013  12.192 -0.0028  0.3973  0.1546
 7206TIP3    H143109   4.138   1.066  12.226  0.6705  0.4168  1.5835
 7206TIP3    H243110   4.287   1.067  12.205  0.6648 -0.8273  1.4436
 7207TIP3   OH243111   0.007   3.440   0.061  0.9177 -0.1426 -0.0816
 7207TIP3    H143112  -0.069   3.498   0.056  2.4212  1.9069 -0.4839
 7207TIP3    H243113   0.008   3.410   0.152  0.9448  1.7631  0.5989
 7208TIP3   OH243114   3.932   5.005  12.036  0.1298 -0.2580 -0.1067
 7208TIP3    H143115   4.006   5.066  12.041  0.3717 -0.4267 -1.3290
 7208TIP3    H243116   3.865   5.052  11.986  0.0277 -0.6996 -0.3934
 7209TIP3   OH243117   6.099   2.975  12.517  0.2221 -0.7726  0.0859
 7209TIP3    H143118   6.020   2.986  12.464  0.1293 -0.8520  0.2073
 7209TIP3    H243119   6.116   2.881  12.517 -0.4665 -0.9170  1.1799
 7210TIP3   OH243120   1.896   3.873  14.211  0.1935 -0.1421  0.2227
 7210TIP3    H143121   1.980   3.909  14.240  0.0016 -0.2313  0.9290
 7210TIP3    H243122   1.919   3.799  14.155  0.5933 -0.2490  0.5200
 7211TIP3   OH243123   5.309   6.357   1.227 -0.3070 -0.1170 -0.8235
 7211TIP3    H143124   5.217   6.348   1.201 -0.7986 -0.5373  0.9448
 7211TIP3    H243125   5.358   6.321   1.153 -1.5708 -0.1675 -1.6703
 7212TIP3   OH243126   5.033   3.903   3.342 -0.0555 -0.2749  0.0112
 7212TIP3    H143127   4.958   3.865   3.389  1.1155 -0.2243  1.9977
 7212TIP3    H243128   5.087   3.828   3.319 -0.2458 -0.2270 -0.6149
 7213TIP3   OH243129   6.567   2.893  17.187 -0.7985  0.3825  0.6132
 7213TIP3    H143130   6.630   2.832  17.226 -0.4621  0.1479 -0.2824
 7213TIP3    H243131   6.583   2.888  17.093 -2.4782 -0.0304  0.3286
 7214TIP3   OH243132   2.978   2.071   1.903  0.1408  0.1628 -0.1521
 7214TIP3    H143133   2.974   2.147   1.962  0.5442  0.1247 -0.0766
 7214TIP3    H243134   3.029   2.006   1.951 -0.7075 -0.3854  0.0351
 7215TIP3   OH243135   1.709   4.727   3.964  0.0355  0.2943  0.0481
 7215TIP3    H143136   1.701   4.764   3.876 -0.1146 -3.0328 -1.4829
 7215TIP3    H243137   1.802   4.737   3.985  0.6406 -1.1059 -1.6771
 7216TIP3   OH243138   6.639   0.678   1.594 -0.3795 -0.2091  0.0742
 7216TIP3    H143139   6.564   0.644   1.546  0.1610  0.8737 -1.6333
 7216TIP3    H243140   6.640   0.772   1.573  1.8456 -0.3254 -0.6002
 7217TIP3   OH243141   5.583   4.096   4.123  0.7243 -0.0103  0.0329
 7217TIP3    H143142   5.656   4.150   4.152 -0.7822  1.5349  1.1747
 7217TIP3    H243143   5.588   4.099   4.027  0.6016  2.4210  0.0252
 7218TIP3   OH243144   3.007   1.985  14.663 -0.0715  0.6112  0.0553
 7218TIP3    H143145   3.040   1.967  14.751 -0.9870 -0.9494  0.1247
 7218TIP3    H243146   3.022   2.079  14.650  0.3180  0.8168  1.7717
 7219TIP3   OH243147   0.899   6.559   0.488  0.3254 -0.7153  0.0606
 7219TIP3    H143148   0.892   6.629   0.552 -2.1419 -0.1315 -0.7572
 7219TIP3    H243149   0.947   6.597   0.415 -2.4792  0.8318 -1.1263
 7220TIP3   OH243150   3.567   5.824   4.680  0.4355  0.3945  0.4705
 7220TIP3    H143151   3.581   5.730   4.686  0.8637  0.2175 -2.2388
 7220TIP3    H243152   3.650   5.863   4.709  0.9588 -0.1464 -0.2651
 7221TIP3   OH243153   3.318   4.703  14.468  0.2150  0.1961 -0.1185
 7221TIP3    H143154   3.282   4.781  14.510  2.3858  0.4955  1.3511
 7221TIP3    H243155   3.280   4.630  14.517  1.8216  0.5216  1.7251
 7222TIP3   OH243156   6.147   0.737   5.152  0.3516 -0.1837 -0.4649
 7222TIP3    H143157   6.180   0.827   5.151 -0.1880  0.0370  0.5142
 7222TIP3    H243158   6.220   0.685   5.117  0.5137  0.6642 -1.4561
 7223TIP3   OH243159   2.225   5.019   3.140 -0.0105  0.7581  0.0544
 7223TIP3    H143160   2.218   4.931   3.176 -3.2283  0.6621 -0.5605
 7223TIP3    H243161   2.251   5.006   3.049 -0.7441  0.4138 -0.1092
 7224TIP3   OH243162   2.076   1.758   0.085  0.0792 -0.0843  0.5381
 7224TIP3    H143163   2.047   1.849   0.078  0.9165  0.2547  1.2400
 7224TIP3    H243164   1.996   1.706   0.073 -0.2939  0.7080 -0.5620
 7225TIP3   OH243165   2.207   5.693  16.739 -0.0855  0.1799 -0.3772
 7225TIP3    H143166   2.133   5.635  16.758  0.9636 -1.0227  0.1072
 7225TIP3    H243167   2.184   5.734  16.655 -1.4010  0.0149 -0.1235
 7226TIP3   OH243168   0.843   5.777  15.853  0.6965 -0.5177 -0.4512
 7226TIP3    H143169   0.754   5.792  15.884  0.2782 -1.6653 -1.0680
 7226TIP3    H243170   0.893   5.852  15.887  0.0128 -1.0377  1.8779
 7227TIP3   OH243171   3.565   2.380   2.462 -0.0260  0.0420 -0.1507
 7227TIP3    H143172   3.493   2.425   2.419 -2.0352 -1.8043  1.1090
 7227TIP3    H243173   3.564   2.292   2.426  1.7826  0.0243 -0.2618
 7228TIP3   OH243174   0.407   5.565   1.346  0.2018  0.3472  0.1932
 7228TIP3    H143175   0.426   5.489   1.401  0.8263 -0.8214 -1.5487
 7228TIP3    H243176   0.489   5.615   1.346  0.3318  0.1383  0.0294
 7229TIP3   OH243177   0.956   6.315   0.578  0.8129 -0.3465  0.5573
 7229TIP3    H143178   0.928   6.405   0.564  0.2742 -0.5461  0.3022
 7229TIP3    H243179   0.878   6.271   0.612  0.8116 -0.9123 -0.1384
 7230TIP3   OH243180   4.796   1.211  11.078  0.5438 -0.3494  0.1191
 7230TIP3    H143181   4.859   1.180  11.013 -0.6743  1.8057 -2.2192
 7230TIP3    H243182   4.715   1.163  11.057  0.1067  0.4602 -0.0625
 7231TIP3   OH243183   2.694   4.212  14.239 -0.0676  0.7742  0.3429
 7231TIP3    H143184   2.672   4.181  14.151 -0.0079  3.1948 -0.6066
 7231TIP3    H243185   2.692   4.308  14.232  1.3474  1.0528  2.6261
 7232TIP3   OH243186   1.405   0.931  16.015  0.6429  0.4467  0.0481
 7232TIP3    H143187   1.316   0.907  16.043  0.0484  0.7916 -1.4551
 7232TIP3    H243188   1.398   0.943  15.921  2.4772 -0.2762 -0.2185
 7233TIP3   OH243189   5.176   5.537  12.571  0.1760 -0.2235 -0.6899
 7233TIP3    H143190   5.156   5.578  12.655  0.6324 -0.6857 -0.3452
 7233TIP3    H243191   5.165   5.444  12.586 -0.9185 -0.2457 -1.4882
 7234TIP3   OH243192   6.429   1.594  16.727 -0.4129 -0.3205 -0.3725
 7234TIP3    H143193   6.449   1.598  16.634  1.9051  2.2996  0.1236
 7234TIP3    H243194   6.354   1.653  16.739  0.0827  0.3309 -0.4346
 7235TIP3   OH243195   4.952   1.273  11.331 -0.0516  0.6608 -0.0820
 7235TIP3    H143196   4.876   1.322  11.301 -0.6766  0.4966  1.1492
 7235TIP3    H243197   4.969   1.209  11.262 -3.0770 -1.4932  0.9319
 7236TIP3   OH243198   3.881   2.381   0.130 -0.0760 -0.0912  0.6687
 7236TIP3    H143199   3.805   2.354   0.182 -1.3048  1.7429 -0.0747
 7236TIP3    H243200   3.935   2.303   0.125 -2.0390 -1.5473  1.0178
 7237TIP3   OH243201   2.516   2.223   0.525 -0.0651  0.0044 -0.4885
 7237TIP3    H143202   2.546   2.252   0.611  0.3094 -1.6457 -0.0264
 7237TIP3    H243203   2.484   2.302   0.483 -1.4044  0.6717  1.6240
 7238TIP3   OH243204   0.827   5.984   1.264  0.6073 -0.2192  0.3094
 7238TIP3    H143205   0.774   5.919   1.217 -0.2380  0.9493 -0.4017
 7238TIP3    H243206   0.767   6.024   1.326  1.2289 -0.3846  1.0253
 7239TIP3   OH243207   2.372   1.967   0.448 -0.2727  0.3217  0.6590
 7239TIP3    H143208   2.444   2.029   0.441  0.1928 -0.2143  0.7266
 7239TIP3    H243209   2.365   1.929   0.360 -1.0636  1.0165  0.3981
 7240TIP3   OH243210   5.231   0.902   1.666 -0.0082 -0.3661  0.1323
 7240TIP3    H143211   5.175   0.825   1.648  0.2042 -0.5744  0.3544
 7240TIP3    H243212   5.247   0.898   1.760 -2.9354  1.9407  0.8686
 7241TIP3   OH243213   2.342   3.362  15.421 -0.2695  0.1515 -0.5774
 7241TIP3    H143214   2.260   3.410  15.428 -0.5069 -0.2971 -0.2241
 7241TIP3    H243215   2.407   3.428  15.398 -0.7600  0.4788 -1.0293
 7242TIP3   OH243216   0.280   0.921  11.262 -0.0319  0.6083 -0.5475
 7242TIP3    H143217   0.226   0.901  11.185  0.8771  0.4819 -1.1657
 7242TIP3    H243218   0.334   0.843  11.274  0.8576  1.1958 -0.6692
 7243TIP3   OH243219   2.420   6.435   3.366 -0.2700  0.1638  0.4258
 7243TIP3    H143220   2.466   6.383   3.432 -1.3327 -0.0158  1.0454
 7243TIP3    H243221   2.339   6.463   3.409 -1.6876 -1.1600 -1.2072
 7244TIP3   OH243222   5.830   6.112  16.273 -0.0330 -0.3214  0.0906
 7244TIP3    H143223   5.898   6.170  16.238  0.8457 -1.0445  0.5510
 7244TIP3    H243224   5.787   6.075  16.196  0.1973  0.0352 -0.2124
 7245TIP3   OH243225   2.179   1.277  15.186 -0.1144 -0.2595  0.4607
 7245TIP3    H143226   2.120   1.223  15.133 -0.0870  0.8890 -0.7975
 7245TIP3    H243227   2.171   1.241  15.275 -1.5890 -1.0552  0.0472
 7246TIP3   OH243228   5.465   3.050   1.346  0.4175 -0.0307  0.0997
 7246TIP3    H143229   5.420   2.972   1.315 -1.4698 -0.0376  2.5226
 7246TIP3    H243230   5.521   3.019   1.417 -0.2184  0.7327  0.9766
 7247TIP3   OH243231   0.935   5.158  11.829  0.2101  0.0424  0.2677
 7247TIP3    H143232   0.845   5.130  11.847 -0.0045  1.2346  1.1583
 7247TIP3    H243233   0.926   5.250  11.803  1.3143  0.6877  2.0439
 7248TIP3   OH243234   5.291   5.044   5.444 -0.3109 -0.1393 -0.3436
 7248TIP3    H143235   5.262   5.130   5.475  1.7357  0.9168 -1.2123
 7248TIP3    H243236   5.251   4.983   5.505 -1.7253  1.4209  0.3805
 7249TIP3   OH243237   0.571   0.457  17.482 -0.2832  0.5377  0.2553
 7249TIP3    H143238   0.536   0.539  17.448  0.0759  0.1596 -1.1064
 7249TIP3    H243239   0.571   0.398  17.406  0.6307 -0.3301  0.9056
 7250TIP3   OH243240   1.440   6.265   4.699  0.3210 -0.2053  0.1307
 7250TIP3    H143241   1.474   6.175   4.693 -1.7357 -1.0448  0.4010
 7250TIP3    H243242   1.431   6.293   4.608 -1.9865 -1.4993 -0.1089
 7251TIP3   OH243243   5.673   6.765   5.287  0.3136 -0.5337 -0.2209
 7251TIP3    H143244   5.661   6.816   5.206 -1.4891 -0.6316 -0.0592
 7251TIP3    H243245   5.732   6.819   5.340 -0.4107  0.7255 -0.6342
 7252TIP3   OH243246   1.731   5.538  17.470  0.0397 -0.3715  0.5998
 7252TIP3    H143247   1.752   5.482  17.395 -1.8859 -0.0628 -0.2404
 7252TIP3    H243248   1.680   5.610  17.432 -0.8077 -0.0928  2.1662
 7253TIP3   OH243249   2.630   4.857  17.387  0.6676  0.1413  1.1511
 7253TIP3    H143250   2.724   4.875  17.392  0.5075  2.2150 -1.2085
 7253TIP3    H243251   2.590   4.923  17.444  0.5279  1.2922 -0.2458
 7254TIP3   OH243252   4.181   2.702  11.595 -0.6856  1.0590 -0.5203
 7254TIP3    H143253   4.195   2.796  11.585  0.3117  0.9403 -0.3695
 7254TIP3    H243254   4.159   2.671  11.507 -2.1149  1.5882 -0.3759
 7255TIP3   OH243255   2.489   4.118  13.188 -0.1481  0.0972 -0.6566
 7255TIP3    H143256   2.517   4.189  13.245 -1.6160 -1.1873  1.8489
 7255TIP3    H243257   2.398   4.138  13.166  0.2172  0.2695 -2.1278
 7256TIP3   OH243258   4.846   6.318   1.721  0.0385  0.3805 -0.6716
 7256TIP3    H143259   4.890   6.243   1.681 -1.9432 -0.8154 -0.7182
 7256TIP3    H243260   4.828   6.290   1.811  1.6062  1.8439  0.1694
 7257TIP3   OH243261   5.844   6.341   3.644  0.6002  0.1566  0.2193
 7257TIP3    H143262   5.895   6.261   3.632  1.2233  0.5994 -0.2089
 7257TIP3    H243263   5.805   6.358   3.558  0.3670  0.2417  0.3406
 7258TIP3   OH243264   1.845   0.458  15.781  0.8049  0.5565  0.0568
 7258TIP3    H143265   1.828   0.370  15.748  1.1899  0.6129 -0.2997
 7258TIP3    H243266   1.758   0.493  15.802  0.7494 -0.7119  2.3216
 7259TIP3   OH243267   3.302   0.789   4.366  0.2903 -0.5718 -0.1490
 7259TIP3    H143268   3.227   0.767   4.311 -0.2745  0.2026  0.2835
 7259TIP3    H243269   3.333   0.873   4.330  0.1872 -0.2839  0.4302
 7260TIP3   OH243270   6.332   2.157   1.471  0.2812 -0.3031  0.1711
 7260TIP3    H143271   6.248   2.201   1.483 -0.3079 -1.5874  0.9230
 7260TIP3    H243272   6.389   2.225   1.433 -0.7937  0.8710  0.5754
 7261TIP3   OH243273   1.671   2.778  14.528  0.0404  0.3289  0.4944
 7261TIP3    H143274   1.747   2.766  14.584 -0.7101 -0.9365  1.2936
 7261TIP3    H243275   1.699   2.748  14.442  0.1440 -1.1748  1.0268
 7262TIP3   OH243276   4.860   3.852   3.879  0.1694  0.0624  0.1544
 7262TIP3    H143277   4.778   3.804   3.883  0.0187  0.1343 -1.3201
 7262TIP3    H243278   4.835   3.944   3.889  0.2487 -0.0186  1.1566
 7263TIP3   OH243279   6.482   5.005  10.952  0.3346 -0.0832  0.4623
 7263TIP3    H143280   6.560   4.975  10.904 -0.9877 -0.3294 -1.6527
 7263TIP3    H243281   6.423   4.930  10.950 -0.8594  0.8434 -0.0362
 7264TIP3   OH243282   5.184   6.297   3.007  0.1429  0.9140 -0.3542
 7264TIP3    H143283   5.108   6.243   3.028  1.5305 -0.3856  1.6851
 7264TIP3    H243284   5.213   6.265   2.922  1.0034 -1.7622  0.8485
 7265TIP3   OH243285   5.343   1.454   4.438  0.3515  0.8287 -0.6772
 7265TIP3    H143286   5.300   1.529   4.479  0.7459  0.4400  0.4749
 7265TIP3    H243287   5.434   1.481   4.425 -0.1712  1.6714 -3.1687
 7266TIP3   OH243288   1.122   5.416   2.863  0.3610  0.1241 -0.3912
 7266TIP3    H143289   1.120   5.407   2.768 -0.0544 -0.0888 -0.3668
 7266TIP3    H243290   1.036   5.453   2.885 -0.0122 -0.9127 -0.0037
 7267TIP3   OH243291   1.746   6.744  14.926 -0.0061  0.1349  0.3438
 7267TIP3    H143292   1.732   6.782  14.839 -1.2930  0.6232  0.7467
 7267TIP3    H243293   1.782   6.657  14.908 -2.2320 -0.6351 -0.7793
 7268TIP3   OH243294   4.715   2.254  12.972  0.4507  0.2191  0.3179
 7268TIP3    H143295   4.804   2.288  12.980  0.1956  1.1857 -0.7010
 7268TIP3    H243296   4.720   2.193  12.898 -0.4036  2.8870 -2.1224
 7269TIP3   OH243297   0.814   1.244  11.724  0.2808 -0.2975 -0.0559
 7269TIP3    H143298   0.883   1.296  11.765  0.2924  2.4505 -3.1065
 7269TIP3    H243299   0.734   1.272  11.768  0.7123 -0.8717  1.1324
 7270TIP3   OH243300   2.648   0.355   1.185 -0.0931 -0.3144 -0.0030
 7270TIP3    H143301   2.735   0.393   1.180  0.9159 -2.5331 -0.6577
 7270TIP3    H243302   2.588   0.429   1.177  1.6945  1.4230  1.7323
 7271TIP3   OH243303   0.961   0.180   0.764 -0.3030 -0.0949  0.4700
 7271TIP3    H143304   0.965   0.248   0.697  0.0933  0.4058  0.9904
 7271TIP3    H243305   0.867   0.162   0.775 -0.3225 -1.0395 -1.0551
 7272TIP3   OH243306   2.236   1.725   2.565  0.3847 -0.1444 -0.0589
 7272TIP3    H143307   2.324   1.752   2.537  0.0652 -0.2746 -1.2387
 7272TIP3    H243308   2.216   1.649   2.511 -0.2635 -0.4150  0.5551
 7273TIP3   OH243309   4.994   4.378   2.712  0.6088  0.2693 -0.1133
 7273TIP3    H143310   4.974   4.449   2.773  0.2734 -0.2141  0.3478
 7273TIP3    H243311   5.084   4.395   2.684 -0.0410  1.8725 -1.3917
 7274TIP3   OH243312   0.982   4.590   6.567  0.3571 -0.5165  0.2087
 7274TIP3    H143313   1.060   4.644   6.581  1.1738 -0.5126 -3.3677
 7274TIP3    H243314   1.015   4.500   6.563  0.0761 -0.5996 -0.4424
 7275TIP3   OH243315   5.054   1.128   3.486  0.2810 -0.3727  0.2045
 7275TIP3    H143316   4.967   1.104   3.518 -0.0338  2.6482  1.9361
 7275TIP3    H243317   5.055   1.096   3.395 -2.1625 -1.5224  0.5001
 7276TIP3   OH243318   0.342   0.825   3.373 -0.6659 -0.3004 -0.0885
 7276TIP3    H143319   0.420   0.851   3.325 -0.5622 -2.5253 -1.2283
 7276TIP3    H243320   0.295   0.907   3.389  1.6847  1.0472  0.3245
 7277TIP3   OH243321   0.877   1.621   1.534 -0.5657  0.5430  0.3634
 7277TIP3    H143322   0.823   1.597   1.609 -1.6587  2.0095  0.0822
 7277TIP3    H243323   0.823   1.601   1.458 -0.5410  1.5701  0.0636
 7278TIP3   OH243324   5.738   2.320   0.899  0.0493  0.5084 -0.5024
 7278TIP3    H143325   5.779   2.362   0.974  1.8645 -0.0492 -1.1465
 7278TIP3    H243326   5.669   2.265   0.937  1.7605 -0.7793  0.9157
 7279TIP3   OH243327   3.912   0.781   4.092  0.2283  0.0560  0.3388
 7279TIP3    H143328   3.992   0.734   4.116 -2.0759 -3.1257  2.6524
 7279TIP3    H243329   3.871   0.725   4.027 -1.3708  0.1845  1.1986
 7280TIP3   OH243330   4.185   0.821   4.892  0.2627 -0.7548 -0.4755
 7280TIP3    H143331   4.151   0.906   4.918  0.9531 -1.0428  1.5330
 7280TIP3    H243332   4.245   0.840   4.820  3.2668  1.0360  2.2624
 7281TIP3   OH243333   2.971   1.316   3.264  0.4232  0.1038  0.7908
 7281TIP3    H143334   3.043   1.379   3.273 -0.2686  0.9603  0.5399
 7281TIP3    H243335   2.894   1.363   3.298 -0.3535 -0.1377 -0.5390
 7282TIP3   OH243336   6.155   2.172   0.677 -0.9777 -0.0745 -0.1104
 7282TIP3    H143337   6.140   2.247   0.736  0.5720  0.9413 -0.9389
 7282TIP3    H243338   6.105   2.193   0.598  0.0716  0.4855 -0.6400
 7283TIP3   OH243339   0.238   5.448  13.508 -0.3858  0.0272  0.8349
 7283TIP3    H143340   0.254   5.366  13.460  1.3261  0.7862  0.0316
 7283TIP3    H243341   0.185   5.501  13.448  1.0839  0.6616  0.0290
 7284TIP3   OH243342   2.664   6.245  17.354  0.1983 -0.2607  0.1463
 7284TIP3    H143343   2.591   6.302  17.330  0.3491  0.9552  2.2970
 7284TIP3    H243344   2.684   6.268  17.445 -0.1700 -4.2487  1.4320
 7285TIP3   OH243345   4.013   1.370  13.787  0.3741  0.3476  0.9925
 7285TIP3    H143346   3.946   1.378  13.855 -0.3841  2.2985  0.0984
 7285TIP3    H243347   4.033   1.461  13.763  1.6164 -0.2632 -0.4352
 7286TIP3   OH243348   6.315   1.717   4.247  0.0192 -0.2322 -0.6360
 7286TIP3    H143349   6.321   1.673   4.332 -1.6493 -0.5469 -0.6453
 7286TIP3    H243350   6.310   1.645   4.183 -0.6234 -0.0361 -0.8212
 7287TIP3   OH243351   0.423   4.554   1.660 -0.0844 -0.4046 -0.3409
 7287TIP3    H143352   0.405   4.645   1.684  0.2326 -0.5624  0.5070
 7287TIP3    H243353   0.472   4.560   1.578  0.7744  0.2334  0.2085
 7288TIP3   OH243354   2.185   3.379  15.152 -0.6982 -0.1271 -0.1222
 7288TIP3    H143355   2.172   3.287  15.176  0.5734 -0.0143  1.1766
 7288TIP3    H243356   2.162   3.427  15.232  2.8065  0.3412  0.7618
 7289TIP3   OH243357   1.884   0.640   3.476  0.4790  0.1409 -0.2170
 7289TIP3    H143358   1.795   0.675   3.476  0.6434  0.5723  0.7052
 7289TIP3    H243359   1.939   0.712   3.445  0.6987  0.4011  0.7581
 7290TIP3   OH243360   1.985   0.956  11.886  0.1660 -0.1298  0.0756
 7290TIP3    H143361   2.046   1.018  11.846  1.5019 -1.2569  0.3093
 7290TIP3    H243362   1.939   0.916  11.812 -0.6866  1.0837 -0.0777
 7291TIP3   OH243363   1.209   2.839   5.135 -0.2936  0.3879 -0.0552
 7291TIP3    H143364   1.225   2.823   5.228  0.0578 -0.0241 -0.1810
 7291TIP3    H243365   1.155   2.917   5.133 -1.0869 -0.1247  0.5431
 7292TIP3   OH243366   0.468   1.518  14.064 -0.0964  0.4975  0.1085
 7292TIP3    H143367   0.388   1.570  14.064  0.3437  1.1990  0.9853
 7292TIP3    H243368   0.440   1.431  14.093 -0.9723 -0.0233 -2.1152
 7293TIP3   OH243369   4.808   3.199   2.060  0.0977 -0.0211 -0.1030
 7293TIP3    H143370   4.768   3.118   2.091  0.9264 -0.6132 -0.5512
 7293TIP3    H243371   4.897   3.174   2.035  0.8219  1.2969  1.0189
 7294TIP3   OH243372   2.954   4.289   1.381 -0.1001 -0.2760  0.1198
 7294TIP3    H143373   2.868   4.324   1.359  0.4131  0.5040 -0.7292
 7294TIP3    H243374   3.015   4.342   1.330  0.7920 -1.6479 -0.3106
 7295TIP3   OH243375   1.588   3.288  13.685  0.0469  0.3676 -0.0726
 7295TIP3    H143376   1.516   3.324  13.633  0.0842  2.1420  1.0085
 7295TIP3    H243377   1.593   3.346  13.761  2.1273 -0.1679  0.2514
 7296TIP3   OH243378   5.933   3.516  16.202 -0.7584 -0.6653  0.0897
 7296TIP3    H143379   5.877   3.531  16.278  0.8643 -0.7554  1.3519
 7296TIP3    H243380   5.951   3.603  16.167 -1.0628 -0.5852  0.1292
 7297TIP3   OH243381   1.333   1.209   1.572  0.7064  0.0555  0.2419
 7297TIP3    H143382   1.380   1.274   1.521  0.2948  0.0243 -0.1815
 7297TIP3    H243383   1.401   1.147   1.599  1.0487  0.4811  0.3805
 7298TIP3   OH243384   0.207   5.519   6.517 -0.1140 -0.4136 -0.1970
 7298TIP3    H143385   0.123   5.564   6.520  0.1019 -0.0797  0.9488
 7298TIP3    H243386   0.271   5.584   6.545  0.7138 -0.3058 -2.1498
 7299TIP3   OH243387   5.692   0.653   4.750  0.2150  0.3489  0.2577
 7299TIP3    H143388   5.774   0.643   4.798  0.0383 -0.7903  0.3593
 7299TIP3    H243389   5.686   0.575   4.695 -0.9842  0.1967  0.5548
 7300TIP3   OH243390   0.208   5.932   1.396  0.7149 -0.4304 -0.0145
 7300TIP3    H143391   0.132   5.896   1.349 -0.3285  3.0422 -1.3119
 7300TIP3    H243392   0.178   6.017   1.428  2.9622 -0.5663  2.8739
 7301TIP3   OH243393   6.447   5.511   5.471  0.0872 -0.2674 -0.0007
 7301TIP3    H143394   6.411   5.597   5.449 -1.0809 -1.2403 -2.1638
 7301TIP3    H243395   6.376   5.450   5.454  1.1817 -1.7833  0.6320
 7302TIP3   OH243396   0.993   2.625  12.749 -0.4534  0.1030  0.2192
 7302TIP3    H143397   1.005   2.701  12.807 -1.9110  2.0650 -1.9101
 7302TIP3    H243398   0.900   2.604  12.756 -0.1205 -1.3537  0.5543
 7303TIP3   OH243399   1.531   6.699  14.554  0.1804 -0.0394 -0.2515
 7303TIP3    H143400   1.540   6.711  14.459 -0.4046  0.8361 -0.2094
 7303TIP3    H243401   1.577   6.617  14.572  0.1515 -0.3059 -1.3149
 7304TIP3   OH243402   4.933   0.987   4.105  0.3039 -0.3211  0.0571
 7304TIP3    H143403   5.021   0.963   4.134 -0.2736 -1.5848  0.8598
 7304TIP3    H243404   4.905   1.055   4.167 -0.5725 -2.3642  2.0416
 7305TIP3   OH243405   1.434   2.265   2.618  0.2107  0.1629  0.4497
 7305TIP3    H143406   1.504   2.253   2.554  0.4114  2.4125  0.1879
 7305TIP3    H243407   1.475   2.251   2.703  0.7200  0.3796  0.2404
 7306TIP3   OH243408   2.521   4.008  11.456 -0.0666 -0.8371  0.7985
 7306TIP3    H143409   2.466   3.943  11.499 -0.1313 -1.7101 -0.5342
 7306TIP3    H243410   2.526   3.979  11.365  0.2269  0.8217  0.2445
 7307TIP3   OH243411   3.138   3.332  12.119  0.0337  0.2731  0.2629
 7307TIP3    H143412   3.110   3.266  12.181  0.1249 -0.8196 -0.8184
 7307TIP3    H243413   3.147   3.285  12.036  1.0237  1.4453 -0.3283
 7308TIP3   OH243414   0.818   1.010  16.087  0.6704 -0.4507 -0.1274
 7308TIP3    H143415   0.843   1.018  15.995  0.6475  0.9690 -0.0242
 7308TIP3    H243416   0.778   0.923  16.093 -1.2809  0.2347 -1.9429
 7309TIP3   OH243417   6.585   0.792  12.539  0.3160  0.0038 -0.7063
 7309TIP3    H143418   6.643   0.756  12.472 -0.8145  0.6623 -2.0986
 7309TIP3    H243419   6.587   0.886  12.524 -1.0555  0.0401 -0.7596
 7310TIP3   OH243420   0.955   6.635   1.103  0.2585 -0.3573 -0.4838
 7310TIP3    H143421   0.863   6.640   1.077 -0.2504 -1.7746  0.9124
 7310TIP3    H243422   0.975   6.542   1.103  1.3597 -0.1414  0.3842
 7311TIP3   OH243423   6.134   1.756   3.960 -0.0709  0.0864 -0.4534
 7311TIP3    H143424   6.113   1.664   3.979 -1.8196  0.5286 -0.0147
 7311TIP3    H243425   6.218   1.771   4.004 -0.7789 -0.7550  1.3283
 7312TIP3   OH243426   6.730   4.966  12.168 -0.1261 -0.5564  0.5906
 7312TIP3    H143427   6.729   4.877  12.203 -1.7522 -0.5782  0.5376
 7312TIP3    H243428   6.822   4.994  12.177 -0.1044 -1.1769  3.3079
 7313TIP3   OH243429   3.658   1.308  13.115  0.4158 -0.1634 -0.6582
 7313TIP3    H143430   3.656   1.316  13.211  1.1890  0.4803 -0.6888
 7313TIP3    H243431   3.633   1.217  13.099  0.2981 -0.2863  0.1566
 7314TIP3   OH243432   0.509   5.034   0.846  0.1429 -0.0186  0.0734
 7314TIP3    H143433   0.526   4.946   0.812  3.0367  1.1452 -1.9582
 7314TIP3    H243434   0.575   5.046   0.915 -0.4721  0.4360  0.5922
 7315TIP3   OH243435   0.990   3.026  16.337  0.1426  0.4425  0.2268
 7315TIP3    H143436   1.011   2.935  16.314  0.8377  0.6388  0.0635
 7315TIP3    H243437   0.968   3.067  16.253  1.6000  0.8766  0.0286
 7316TIP3   OH243438   4.976   6.113  12.629  0.5169 -0.3459 -0.1743
 7316TIP3    H143439   4.924   6.150  12.700  0.4297 -0.3763 -0.2228
 7316TIP3    H243440   4.933   6.143  12.549  1.1419  0.4448 -0.2271
 7317TIP3   OH243441   4.893   3.660  15.492  0.1240  0.3033  0.0838
 7317TIP3    H143442   4.960   3.640  15.427  0.0064 -1.8409  0.5422
 7317TIP3    H243443   4.812   3.666  15.442  0.1780 -0.3738 -0.0932
 7318TIP3   OH243444   6.562   1.122   0.985  0.1892 -0.1811  0.5754
 7318TIP3    H143445   6.481   1.154   1.024 -0.7467  0.0744 -1.4152
 7318TIP3    H243446   6.539   1.035   0.950  0.4904  0.2293 -0.7139
 7319TIP3   OH243447   5.657   0.539   0.440  0.0646  0.3438  0.0423
 7319TIP3    H143448   5.592   0.609   0.451  0.6735  0.9822 -0.3192
 7319TIP3    H243449   5.617   0.478   0.379  0.6725  1.8784 -1.9826
 7320TIP3   OH243450   5.566   5.737   4.721  0.2464 -0.0214  0.1715
 7320TIP3    H143451   5.554   5.679   4.646 -0.4533  0.6739 -0.2683
 7320TIP3    H243452   5.660   5.753   4.725  0.2589  0.1998 -0.7757
 7321TIP3   OH243453   1.699   6.422  16.287  0.1794  0.0188  0.4575
 7321TIP3    H143454   1.702   6.329  16.263 -2.3969 -0.2389  0.8926
 7321TIP3    H243455   1.741   6.426  16.373  0.2851 -0.7338  0.4467
 7322TIP3   OH243456   5.466   0.018   2.890 -0.2088  0.0043  0.2903
 7322TIP3    H143457   5.481   0.106   2.855  1.0820 -0.3255 -0.0470
 7322TIP3    H243458   5.388  -0.012   2.844  1.1345 -0.2150 -2.0189
 7323TIP3   OH243459   4.742   1.670  13.467  0.3661  0.1819 -0.6934
 7323TIP3    H143460   4.676   1.638  13.405  2.2799 -0.8415 -2.3512
 7323TIP3    H243461   4.693   1.693  13.545 -2.4607  3.0808 -3.0401
 7324TIP3   OH243462   5.539   5.613  16.357  0.0938 -0.5810  0.2336
 7324TIP3    H143463   5.565   5.692  16.308  0.9881 -0.3880  1.0013
 7324TIP3    H243464   5.490   5.647  16.432  1.7284 -0.6286  1.3698
 7325TIP3   OH243465   4.376   5.727   3.135 -0.5229  0.0458  0.6963
 7325TIP3    H143466   4.374   5.816   3.169 -0.8958 -0.4393  2.0147
 7325TIP3    H243467   4.295   5.687   3.168 -1.2766 -0.2709 -1.3726
 7326TIP3   OH243468   4.006   4.035   4.645 -0.0493  0.1870 -0.2868
 7326TIP3    H143469   3.978   4.119   4.608 -0.3678 -0.3922 -1.4183
 7326TIP3    H243470   3.928   4.001   4.688  0.1410  0.5625  0.3699
 7327TIP3   OH243471   2.808   6.655  16.697 -0.1132 -0.2508 -0.4458
 7327TIP3    H143472   2.768   6.742  16.685  0.5842  0.4483  1.8477
 7327TIP3    H243473   2.738   6.601  16.734 -0.4069 -0.5629 -1.4208
 7328TIP3   OH243474   2.845   5.840   2.522  0.6095 -0.2351  0.1194
 7328TIP3    H143475   2.783   5.777   2.557  0.2532  0.6398  1.0969
 7328TIP3    H243476   2.926   5.824   2.571 -0.0355  1.3367  1.8082
 7329TIP3   OH243477   5.112   2.150   3.239 -0.1482 -0.7390 -0.6385
 7329TIP3    H143478   5.116   2.135   3.334 -1.3149 -0.3287 -0.5165
 7329TIP3    H243479   5.198   2.187   3.218 -0.5541  1.0732  0.6154
 7330TIP3   OH243480   5.307   2.115   5.719  0.3985 -0.8774  0.0149
 7330TIP3    H143481   5.270   2.203   5.710  0.9366 -0.6905 -0.3869
 7330TIP3    H243482   5.399   2.130   5.739  0.4545 -1.3517  0.1187
 7331TIP3   OH243483   5.036   6.216   2.569 -0.2677 -0.0886  0.1191
 7331TIP3    H143484   4.999   6.247   2.652 -2.0605 -2.4581  0.3256
 7331TIP3    H243485   4.984   6.261   2.502 -0.3860  0.0836  0.3239
 7332TIP3   OH243486   5.390   5.692  17.364  0.5551 -0.0200 -0.1315
 7332TIP3    H143487   5.444   5.673  17.441  1.6630  0.6935 -0.7014
 7332TIP3    H243488   5.304   5.656  17.385  1.3715 -1.6398  0.6082
 7333TIP3   OH243489   6.345   1.234  15.861 -0.6885  0.1823 -0.0492
 7333TIP3    H143490   6.419   1.174  15.870 -1.9882 -1.3303  1.2277
 7333TIP3    H243491   6.355   1.297  15.933 -0.5608  0.0791  0.0237
 7334TIP3   OH243492   0.239   4.348   2.041 -0.2856 -0.1399  0.4442
 7334TIP3    H143493   0.169   4.289   2.069 -0.5761 -0.1367 -0.2687
 7334TIP3    H243494   0.256   4.325   1.950  0.2695  0.2246  0.4492
 7335TIP3   OH243495   1.609   4.546   3.182 -0.3981  0.1377  0.0441
 7335TIP3    H143496   1.610   4.474   3.119  0.6277 -0.6836  0.9708
 7335TIP3    H243497   1.649   4.510   3.261 -2.0382  1.0358  1.3290
 7336TIP3   OH243498   4.518   3.505  15.576 -0.2886  0.0070  0.1716
 7336TIP3    H143499   4.456   3.579  15.579 -2.1133 -1.0853 -3.6505
 7336TIP3    H243500   4.565   3.518  15.494  0.9593 -1.9064  0.5482
 7337TIP3   OH243501   3.743   1.900   1.776  0.5669 -0.4149 -0.4823
 7337TIP3    H143502   3.690   1.976   1.751  1.2324  0.2372  0.0330
 7337TIP3    H243503   3.693   1.824   1.745 -0.9338  0.1476  0.4604
 7338TIP3   OH243504   0.871   1.661   5.937  0.5686 -0.2317 -0.0926
 7338TIP3    H143505   0.942   1.635   5.997  2.0474  1.5575 -0.9364
 7338TIP3    H243506   0.796   1.676   5.994  1.2468 -0.8814  1.0179
 7339TIP3   OH243507   4.149   4.684  16.223 -1.0375 -0.3542 -0.0583
 7339TIP3    H143508   4.230   4.709  16.180 -1.1598 -0.9239 -0.6396
 7339TIP3    H243509   4.081   4.731  16.175 -1.2977 -1.9478 -1.3523
 7340TIP3   OH243510   0.998   5.552  15.961 -0.0330 -0.3840  0.1796
 7340TIP3    H143511   1.056   5.626  15.977 -0.5240 -0.2993  1.7354
 7340TIP3    H243512   0.910   5.584  15.983 -0.5439 -0.8361 -1.0873
 7341TIP3   OH243513   2.429   3.410  13.866  0.1305  0.4407  0.2255
 7341TIP3    H143514   2.376   3.345  13.912  0.0570 -0.2929 -0.8766
 7341TIP3    H243515   2.409   3.492  13.912 -4.9898  1.0267 -2.3026
 7342TIP3   OH243516   5.095   2.965   2.282  1.0408  0.4639 -0.3693
 7342TIP3    H143517   5.164   2.984   2.219  2.3781 -1.1180  0.5276
 7342TIP3    H243518   5.132   2.898   2.339 -1.6684 -1.4176 -0.6015
 7343TIP3   OH243519   4.009   0.556  12.978 -0.1167  0.6942  0.1786
 7343TIP3    H143520   3.918   0.527  12.978 -0.6521  2.2412 -0.1481
 7343TIP3    H243521   4.016   0.616  13.052 -0.5127  3.6501 -1.9478
 7344TIP3   OH243522   1.221   2.562  13.960  0.2104  0.0581 -0.2428
 7344TIP3    H143523   1.307   2.557  13.920  0.7476 -0.6776  0.9629
 7344TIP3    H243524   1.163   2.517  13.898  0.9139 -0.5498 -0.4731
 7345TIP3   OH243525   6.004   1.407  14.786 -0.5621 -0.0859 -0.2020
 7345TIP3    H143526   5.934   1.440  14.842  0.3010  0.9793  0.2872
 7345TIP3    H243527   5.961   1.391  14.702 -2.1532 -2.8538  0.9769
 7346TIP3   OH243528   3.006   0.449   3.766  0.0428  0.1623 -0.4794
 7346TIP3    H143529   2.917   0.485   3.760  0.5934  1.5458 -0.7707
 7346TIP3    H243530   3.000   0.382   3.834 -2.1518 -2.7620 -3.2539
 7347TIP3   OH243531   3.562   4.578   2.631 -0.1761  0.1281 -0.0847
 7347TIP3    H143532   3.565   4.483   2.637 -0.1217  0.1981  1.3652
 7347TIP3    H243533   3.653   4.604   2.616 -0.2146 -0.0470 -0.6452
 7348TIP3   OH243534   2.577   0.363   2.891 -0.3301 -0.4393  0.0851
 7348TIP3    H143535   2.575   0.267   2.889 -1.4357 -0.4280 -0.0957
 7348TIP3    H243536   2.587   0.386   2.983  3.9624 -0.7087 -0.1075
 7349TIP3   OH243537   5.336   5.367  11.669  0.6316 -0.5244  0.0542
 7349TIP3    H143538   5.359   5.293  11.612 -0.3793 -0.8436  0.0293
 7349TIP3    H243539   5.354   5.335  11.757  1.2112 -0.4066 -0.0173
 7350TIP3   OH243540   6.708   0.917   0.019  0.4637  0.2865 -0.4179
 7350TIP3    H143541   6.744   0.896   0.105 -0.3744 -0.0802 -0.1435
 7350TIP3    H243542   6.629   0.968   0.038  0.8309  1.0948 -1.0052
 7351TIP3   OH243543   0.070   1.197   4.890  0.3119 -0.0597 -0.7030
 7351TIP3    H143544   0.068   1.292   4.880  1.1128 -0.0476 -0.8130
 7351TIP3    H243545   0.133   1.182   4.961  2.4265 -0.6138 -2.5640
 7352TIP3   OH243546   4.132   6.674  13.903 -0.2637  1.5209  0.0349
 7352TIP3    H143547   4.140   6.663  13.808  0.6870  0.7629  0.1856
 7352TIP3    H243548   4.220   6.657  13.937 -0.6151  1.6766  1.0608
 7353TIP3   OH243549   3.941   4.119   3.095  0.0543 -0.3644  0.0491
 7353TIP3    H143550   3.904   4.157   3.175 -1.6860 -0.0173 -0.8708
 7353TIP3    H243551   4.036   4.128   3.105 -0.0064 -1.6766  2.7294
 7354TIP3   OH243552   4.256   0.952   2.128 -0.1318 -0.7510  0.4813
 7354TIP3    H143553   4.219   0.866   2.108 -0.2028 -0.5720 -0.1902
 7354TIP3    H243554   4.207   1.013   2.072  2.3713 -0.7236 -1.8737
 7355TIP3   OH243555   5.632   4.499   5.223  0.3840 -0.6556 -0.5366
 7355TIP3    H143556   5.536   4.505   5.230  0.4647 -0.9116  1.2111
 7355TIP3    H243557   5.648   4.481   5.130 -1.3688 -2.5755 -0.5378
 7356TIP3   OH243558   4.650   6.758  12.051  0.6637 -0.1225  0.1383
 7356TIP3    H143559   4.619   6.714  11.972  1.3886 -0.4012 -0.0058
 7356TIP3    H243560   4.594   6.835  12.059  1.6283  0.8581 -1.6275
 7357TIP3   OH243561   2.559   0.096   5.917  0.5215 -0.7095 -0.2096
 7357TIP3    H143562   2.594   0.177   5.882 -1.5698 -0.5642 -2.2590
 7357TIP3    H243563   2.535   0.117   6.007 -1.1878  1.4428 -1.0674
 7358TIP3   OH243564   6.105   6.649   5.228 -0.0452 -1.0015 -0.2406
 7358TIP3    H143565   6.131   6.730   5.272  1.2805 -2.0563  1.0189
 7358TIP3    H243566   6.076   6.677   5.142  2.2485  0.6526 -0.5723
 7359TIP3   OH243567   2.940   1.162   6.258  0.4975  0.8758 -0.4364
 7359TIP3    H143568   3.030   1.192   6.268  0.7910  0.3557 -1.3587
 7359TIP3    H243569   2.914   1.134   6.346  0.7869  2.1887  0.0992
 7360TIP3   OH243570   3.361   6.105   0.758 -0.1531 -0.1918 -0.0465
 7360TIP3    H143571   3.352   6.109   0.854  1.4913 -0.4264  0.1646
 7360TIP3    H243572   3.410   6.025   0.743  1.7805  1.0529 -0.8467
 7361TIP3   OH243573   2.669   5.211  16.568 -0.3825  0.2614 -0.9083
 7361TIP3    H143574   2.679   5.126  16.525 -2.2835 -0.3118 -0.3458
 7361TIP3    H243575   2.576   5.231  16.559 -0.7026  0.5554  2.0125
 7362TIP3   OH243576   3.128   4.874   2.041  0.0179  0.0931 -0.3760
 7362TIP3    H143577   3.122   4.891   1.947  0.2414  0.0032 -0.4075
 7362TIP3    H243578   3.050   4.822   2.061 -0.0165  0.0908 -0.5150
 7363TIP3   OH243579   1.244   3.338   3.712  0.5033 -0.2254 -0.1695
 7363TIP3    H143580   1.306   3.362   3.780 -0.7525  1.3900  0.4749
 7363TIP3    H243581   1.254   3.406   3.645  0.9198 -1.1644 -1.0995
 7364TIP3   OH243582   6.395   4.760  10.894  0.1074 -0.0053 -0.5036
 7364TIP3    H143583   6.473   4.704  10.898 -0.0332 -0.1448  0.7194
 7364TIP3    H243584   6.324   4.704  10.923 -0.3155  0.3424 -0.8657
 7365TIP3   OH243585   2.248   0.025  17.420 -0.4781  0.1350  0.6013
 7365TIP3    H143586   2.176   0.036  17.482  0.7680 -0.5024  2.2312
 7365TIP3    H243587   2.283  -0.062  17.440  0.1468  0.0313 -0.8312
 7366TIP3   OH243588   5.217   4.581   3.369  0.1948 -0.2136 -0.2496
 7366TIP3    H143589   5.279   4.650   3.394 -0.6942  0.2135  0.8295
 7366TIP3    H243590   5.215   4.523   3.445  0.0440 -0.7927 -0.6928
 7367TIP3   OH243591   4.196   1.017   0.326 -0.0077 -0.0102  0.3449
 7367TIP3    H143592   4.195   0.986   0.235  0.9970 -1.4080  0.7631
 7367TIP3    H243593   4.157   0.945   0.376 -1.1279  1.0049  0.9744
 7368TIP3   OH243594   3.887   3.154  11.724  0.4660 -0.0488 -0.2022
 7368TIP3    H143595   3.904   3.239  11.767 -0.0217  0.2102 -0.5156
 7368TIP3    H243596   3.801   3.164  11.684  0.0310 -0.9790  0.4600
 7369TIP3   OH243597   0.524   3.672  14.143 -0.1504 -0.5043  0.0663
 7369TIP3    H143598   0.484   3.750  14.106  3.1784  1.6894  0.6326
 7369TIP3    H243599   0.572   3.632  14.070 -0.9506 -1.4478  0.0320
 7370TIP3   OH243600   2.141   6.529  15.974  0.5833  0.4979  0.1055
 7370TIP3    H143601   2.158   6.479  15.894 -1.4922 -1.3192  0.7003
 7370TIP3    H243602   2.059   6.576  15.956  1.0743  1.5480  0.5332
 7371TIP3   OH243603   5.504   5.562  12.620  0.0523 -0.6938 -0.1140
 7371TIP3    H143604   5.557   5.554  12.541  1.6255  0.5540  0.7421
 7371TIP3    H243605   5.414   5.564  12.589  0.6590  1.0712 -2.0326
 7372TIP3   OH243606   0.342   4.493   1.344 -0.2203 -0.4444 -0.5995
 7372TIP3    H143607   0.431   4.458   1.331  0.2205 -1.6109  3.9581
 7372TIP3    H243608   0.285   4.419   1.325  0.3631 -2.0154  2.9769
 7373TIP3   OH243609   5.577   2.168   0.093  0.6927  0.0554 -0.2065
 7373TIP3    H143610   5.618   2.221   0.162 -0.7680 -1.0029  1.5411
 7373TIP3    H243611   5.623   2.084   0.097  0.1040 -0.2618  0.0029
 7374TIP3   OH243612   4.342   3.172   5.228  0.5357 -0.1989  0.2674
 7374TIP3    H143613   4.301   3.125   5.300  1.0358  0.4153  0.9672
 7374TIP3    H243614   4.293   3.144   5.150 -0.9181  0.2002  1.0086
 7375TIP3   OH243615   5.581   2.771  13.463  0.4033 -0.0560 -0.0682
 7375TIP3    H143616   5.550   2.832  13.396  1.8042  0.4378 -0.3080
 7375TIP3    H243617   5.570   2.685  13.423  0.1746  0.1657 -0.4953
 7376TIP3   OH243618   0.337   0.924  14.494  0.1761 -0.0453  0.1246
 7376TIP3    H143619   0.415   0.888  14.536  0.5117 -1.3058 -1.4610
 7376TIP3    H243620   0.334   0.880  14.409 -1.6320  0.8381 -0.3095
 7377TIP3   OH243621   4.985   5.673  15.033  0.4958 -0.2692 -0.7084
 7377TIP3    H143622   4.988   5.664  14.937 -0.6461 -1.1598 -0.6720
 7377TIP3    H243623   4.907   5.725  15.050  1.5534  1.2716 -0.3159
 7378TIP3   OH243624   6.708   1.427  12.660 -0.0293  0.0432  0.3661
 7378TIP3    H143625   6.677   1.447  12.748 -0.3587 -0.0222  0.2652
 7378TIP3    H243626   6.785   1.371  12.674  1.1865  1.7086  0.6768
 7379TIP3   OH243627   1.066   6.464   5.468  0.7097 -0.3913  0.1317
 7379TIP3    H143628   1.082   6.397   5.401  1.0956 -1.2100  1.0108
 7379TIP3    H243629   1.148   6.468   5.517  1.1771  1.7326 -0.7326
 7380TIP3   OH243630   0.053   1.133  11.964  0.1429  0.3284 -0.0353
 7380TIP3    H143631  -0.041   1.143  11.947  0.2337 -1.8680 -2.5088
 7380TIP3    H243632   0.057   1.076  12.041 -0.4805  1.5204  0.9179
 7381TIP3   OH243633   1.232   4.091   4.431  0.3801  0.4101  0.2788
 7381TIP3    H143634   1.208   4.140   4.352 -0.1261 -2.4629 -1.5137
 7381TIP3    H243635   1.328   4.097   4.434  0.5009 -0.2509 -1.1836
 7382TIP3   OH243636   6.447   1.014  13.312  0.0678 -0.3786 -0.4087
 7382TIP3    H143637   6.405   0.964  13.382  1.3374 -0.0903  0.6087
 7382TIP3    H243638   6.516   0.956  13.279  0.0591 -0.1644 -0.8141
 7383TIP3   OH243639   6.301   3.216   6.180  0.1541  0.0265 -0.2437
 7383TIP3    H143640   6.284   3.308   6.162 -0.7458  0.0738  0.7500
 7383TIP3    H243641   6.246   3.169   6.117  0.1471  0.1661 -0.3421
 7384TIP3   OH243642   3.550   3.686   4.924 -0.3364  0.6468  0.0142
 7384TIP3    H143643   3.502   3.747   4.867 -0.5623  0.6764  0.2372
 7384TIP3    H243644   3.493   3.610   4.931  0.3019  0.0615 -0.9308
 7385TIP3   OH243645   1.408   6.547   6.129  0.5002  0.0431 -0.7438
 7385TIP3    H143646   1.357   6.538   6.048  0.3637 -0.6346 -0.5841
 7385TIP3    H243647   1.357   6.499   6.194  1.1973 -0.3922 -0.5134
 7386TIP3   OH243648   5.249   4.333   0.166  0.3401 -0.0532 -0.0478
 7386TIP3    H143649   5.184   4.294   0.224  0.6160 -0.2726  0.1153
 7386TIP3    H243650   5.261   4.422   0.200  1.5953 -0.6354  1.1794
 7387TIP3   OH243651   3.802   1.872  11.142  0.0009  0.1994  0.2512
 7387TIP3    H143652   3.871   1.855  11.206  0.0605 -0.6441 -0.0224
 7387TIP3    H243653   3.829   1.953  11.099  1.3217 -0.6041 -0.4903
 7388TIP3   OH243654   2.935   6.550   5.730  0.2802  0.4259 -0.0716
 7388TIP3    H143655   2.925   6.553   5.825  0.0592  2.7661 -0.1200
 7388TIP3    H243656   2.887   6.472   5.703 -2.2693  1.3608  1.4606
 7389TIP3   OH243657   6.593   6.220  13.595 -0.6947  0.9819 -0.2363
 7389TIP3    H143658   6.502   6.248  13.606 -1.3241 -1.2630  0.9696
 7389TIP3    H243659   6.586   6.128  13.570  1.2562  1.0208 -1.0611
 7390TIP3   OH243660   3.826   2.980   2.770 -0.0393 -0.1354 -0.3374
 7390TIP3    H143661   3.832   3.003   2.862 -0.7500  0.2609 -0.3830
 7390TIP3    H243662   3.821   2.884   2.769  0.9152 -0.1933 -0.0266
 7391TIP3   OH243663   5.667   6.127  16.812 -0.0435 -0.2113 -0.4618
 7391TIP3    H143664   5.718   6.066  16.758  0.2742  0.3310 -0.7829
 7391TIP3    H243665   5.668   6.209  16.762  1.0685  0.5893  0.8080
 7392TIP3   OH243666   5.077   3.343  16.572 -0.4676  0.2229 -0.0071
 7392TIP3    H143667   5.169   3.339  16.601 -0.6990  0.7893  0.8261
 7392TIP3    H243668   5.074   3.418  16.513  0.0041 -0.9311 -1.5763
 7393TIP3   OH243669   0.828   2.394   5.390 -0.2290 -0.6370 -0.3638
 7393TIP3    H143670   0.848   2.399   5.484  1.0550  0.9697 -0.6621
 7393TIP3    H243671   0.851   2.481   5.357 -2.6403 -0.4737 -1.8206
 7394TIP3   OH243672   6.140   4.304   5.781 -0.3761  0.2025 -0.2502
 7394TIP3    H143673   6.127   4.388   5.825  1.9003  0.1944  0.6016
 7394TIP3    H243674   6.107   4.317   5.693 -1.9522  1.3149  0.4524
 7395TIP3   OH243675   4.106   1.152   2.875 -0.3295 -0.1067  0.2265
 7395TIP3    H143676   4.175   1.088   2.858  1.0877  1.1074  1.2347
 7395TIP3    H243677   4.048   1.107   2.937  2.0922  0.4147  3.0822
 7396TIP3   OH243678   2.193   5.971   5.356  0.5439 -0.1105 -0.1354
 7396TIP3    H143679   2.201   5.875   5.352 -0.5240 -0.1844 -0.7458
 7396TIP3    H243680   2.167   5.989   5.446  1.1123 -0.3536  0.0859
 7397TIP3   OH243681   4.003   3.810   5.165  0.1549  0.4066  0.1915
 7397TIP3    H143682   3.986   3.872   5.236  1.1834  1.3195 -0.3249
 7397TIP3    H243683   3.922   3.809   5.114  0.8584  3.2326 -1.1682
 7398TIP3   OH243684   2.134   1.646  17.335 -0.4745  0.1258  0.3936
 7398TIP3    H143685   2.126   1.665  17.428 -0.3824 -0.1569  0.4583
 7398TIP3    H243686   2.162   1.555  17.331  0.5726  0.4491  0.1160
 7399TIP3   OH243687   5.621   4.242  14.582  0.0292 -0.0034 -0.4388
 7399TIP3    H143688   5.686   4.193  14.632 -1.8051 -2.4400 -0.2684
 7399TIP3    H243689   5.661   4.256  14.497  1.5559  0.4635  0.3220
 7400TIP3   OH243690   5.868   0.814  11.939 -0.2547 -0.1264 -0.2304
 7400TIP3    H143691   5.879   0.824  12.034 -1.7108  1.2781 -0.1724
 7400TIP3    H243692   5.796   0.873  11.917  0.0524 -0.4389 -2.2230
 7401TIP3   OH243693   6.504   6.644  13.001 -0.9059 -0.3720  0.2337
 7401TIP3    H143694   6.582   6.626  12.949 -1.3674  1.4058 -1.1715
 7401TIP3    H243695   6.448   6.568  12.986  0.1346 -1.2067  0.4574
 7402TIP3   OH243696   2.128   3.592   1.229  0.3051 -0.3034 -0.0994
 7402TIP3    H143697   2.050   3.598   1.284  0.1682  1.4633 -0.4220
 7402TIP3    H243698   2.135   3.499   1.207 -1.7841 -0.4862 -0.1626
 7403TIP3   OH243699   2.488   6.243  15.361 -0.2724  0.1911 -0.6805
 7403TIP3    H143700   2.418   6.307  15.351 -0.4903 -0.0995 -1.0470
 7403TIP3    H243701   2.443   6.163  15.387  0.2413  0.9432  3.1874
 7404TIP3   OH243702   1.941   4.340  13.349 -0.2933  0.0700 -0.3419
 7404TIP3    H143703   1.851   4.370  13.332 -0.4513 -1.0472 -1.6575
 7404TIP3    H243704   1.961   4.282  13.276  1.6272  0.5310 -0.2361
 7405TIP3   OH243705   6.574   1.805   6.446  0.4934  0.3988  0.4976
 7405TIP3    H143706   6.594   1.871   6.513  0.7153  1.2060 -0.3483
 7405TIP3    H243707   6.481   1.787   6.459  0.5327  0.5379  1.0306
 7406TIP3   OH243708   0.469   5.369  12.321 -0.1610 -0.1074 -0.7060
 7406TIP3    H143709   0.469   5.365  12.416 -0.9080  1.3272 -0.6113
 7406TIP3    H243710   0.454   5.462  12.301  1.2369 -0.1459 -2.2188
 7407TIP3   OH243711   5.229   2.372  14.872  0.0586 -0.2023 -0.5468
 7407TIP3    H143712   5.158   2.322  14.833 -0.2603 -0.0012 -0.2249
 7407TIP3    H243713   5.188   2.424  14.941  0.6291 -0.6150  0.1176
 7408TIP3   OH243714   0.433   3.313  11.290 -0.5261 -0.2561 -0.3210
 7408TIP3    H143715   0.369   3.254  11.250 -1.3508  0.1579  0.3524
 7408TIP3    H243716   0.507   3.312  11.229 -0.8690 -1.3096 -0.7514
 7409TIP3   OH243717   2.886   3.132   1.034  0.0324  0.2485 -0.3734
 7409TIP3    H143718   2.906   3.193   0.963  1.9008  0.7153  0.4884
 7409TIP3    H243719   2.883   3.188   1.112 -1.2401 -0.3568  0.0316
 7410TIP3   OH243720   4.033   4.338  15.999 -0.7453 -0.9366 -0.2582
 7410TIP3    H143721   4.050   4.424  15.962  2.7622 -1.8158 -1.0652
 7410TIP3    H243722   4.069   4.276  15.935 -1.6942 -2.9142  1.0148
 7411TIP3   OH243723   6.521   5.999  12.794  0.1332  0.5261  0.0835
 7411TIP3    H143724   6.438   5.988  12.841  0.4302 -1.4871  0.2290
 7411TIP3    H243725   6.579   5.933  12.831  0.8156 -0.2227 -2.1176
 7412TIP3   OH243726   3.047   5.514   3.625  0.4786 -0.0062  0.4915
 7412TIP3    H143727   2.966   5.502   3.674 -0.2343  1.0796 -0.3665
 7412TIP3    H243728   3.108   5.553   3.688  0.0089  0.1171  0.8769
 7413TIP3   OH243729   2.408   3.560   1.563 -0.4889  0.1789 -0.3017
 7413TIP3    H143730   2.448   3.640   1.597 -2.8724  1.4106 -0.2415
 7413TIP3    H243731   2.405   3.572   1.469 -0.3005 -0.1339 -0.3505
 7414TIP3   OH243732   2.677   6.061  12.995  0.0456  0.0247 -0.8154
 7414TIP3    H143733   2.771   6.077  13.007  0.0017  0.0566 -0.4938
 7414TIP3    H243734   2.637   6.093  13.076 -0.0976 -1.2174 -0.3724
 7415TIP3   OH243735   2.056   1.026   1.869 -0.1842  0.4284  0.2082
 7415TIP3    H143736   2.053   1.091   1.799 -0.4097  0.5119  0.2952
 7415TIP3    H243737   2.122   1.060   1.930  0.6199 -0.0554 -0.3617
 7416TIP3   OH243738   4.454   3.955   1.554 -0.2829 -0.1306 -0.1355
 7416TIP3    H143739   4.426   4.031   1.504 -1.4538 -0.0199  0.6548
 7416TIP3    H243740   4.499   3.991   1.630  0.5800 -0.2768 -0.5660
 7417TIP3   OH243741   6.251   0.257   4.155 -0.0424 -0.4967  0.1080
 7417TIP3    H143742   6.298   0.281   4.075 -2.4073  0.6262 -1.0474
 7417TIP3    H243743   6.318   0.260   4.223  1.3938  2.0884 -1.2491
 7418TIP3   OH243744   1.247   0.293  16.601  0.2011  0.0062  0.6837
 7418TIP3    H143745   1.261   0.337  16.684 -1.0764 -0.4548  1.1631
 7418TIP3    H243746   1.204   0.359  16.546 -3.8985 -1.1951  2.1549
 7419TIP3   OH243747   4.943   6.632  16.273 -0.1389  0.1722  0.1888
 7419TIP3    H143748   4.998   6.570  16.225 -0.5714 -1.7491  2.0334
 7419TIP3    H243749   4.999   6.663  16.344 -1.1345 -1.2877  1.6787
 7420TIP3   OH243750   2.269   4.882   1.729  0.1399 -0.0449  0.0538
 7420TIP3    H143751   2.193   4.882   1.671  0.8989 -0.3129 -0.9674
 7420TIP3    H243752   2.283   4.789   1.749 -0.7296  0.1078  1.5245
 7421TIP3   OH243753   5.060   4.949  13.872 -0.5692  0.0888 -0.2942
 7421TIP3    H143754   5.030   5.039  13.874 -1.1571 -0.1142  0.1794
 7421TIP3    H243755   5.154   4.955  13.858 -0.7123  0.7531 -1.0054
 7422TIP3   OH243756   2.327   3.545   6.324 -0.5596 -0.0479  0.1686
 7422TIP3    H143757   2.369   3.514   6.405  0.7821 -0.3347 -0.6145
 7422TIP3    H243758   2.240   3.504   6.325  0.1021 -1.5020  0.5833
 7423TIP3   OH243759   3.294   4.563   5.225  0.3012  0.2678  0.0142
 7423TIP3    H143760   3.310   4.528   5.312 -2.3240 -2.0137 -0.2678
 7423TIP3    H243761   3.370   4.537   5.173  0.5466 -1.0035  0.9690
 7424TIP3   OH243762   5.133   5.386  15.883  0.2476 -0.4554  0.4519
 7424TIP3    H143763   5.086   5.303  15.872  1.4818 -1.2342  0.8954
 7424TIP3    H243764   5.083   5.433  15.950 -1.0459 -0.3715 -0.5300
 7425TIP3   OH243765   4.643   6.210  14.567  0.1240 -0.1318 -0.3763
 7425TIP3    H143766   4.735   6.181  14.568 -0.0834 -0.8002 -0.0979
 7425TIP3    H243767   4.647   6.300  14.536  1.0918  0.6341  1.7548
 7426TIP3   OH243768   3.482   5.132   0.820 -0.0048 -0.1935 -0.0860
 7426TIP3    H143769   3.570   5.170   0.823  0.5245 -1.3797 -0.2307
 7426TIP3    H243770   3.496   5.041   0.797 -1.4120  0.0701 -2.2268
 7427TIP3   OH243771   5.743   6.445   4.347 -0.4712  0.1598 -0.0962
 7427TIP3    H143772   5.771   6.360   4.381 -0.5298 -0.0087 -0.4624
 7427TIP3    H243773   5.824   6.494   4.333 -0.0354 -1.2639 -3.6694
 7428TIP3   OH243774   2.350   3.091   3.995  0.1450  0.2273  0.0022
 7428TIP3    H143775   2.413   3.065   3.927 -0.5093  0.3605 -0.6631
 7428TIP3    H243776   2.398   3.155   4.047  0.6127  0.2300 -0.4152
 7429TIP3   OH243777   5.292   1.041  12.824  0.3887 -0.0589  0.4495
 7429TIP3    H143778   5.340   0.999  12.896  0.2610  2.4186  2.1020
 7429TIP3    H243779   5.220   1.087  12.867  2.1520  4.2989 -0.6589
 7430TIP3   OH243780   5.174   3.779  14.936 -0.1351  1.2921  0.0787
 7430TIP3    H143781   5.247   3.839  14.950  0.8247  0.0032  0.9712
 7430TIP3    H243782   5.145   3.756  15.025 -0.8534  0.8866 -0.2497
 7431TIP3   OH243783   4.873   1.016   1.225  0.0080 -0.1408  0.0737
 7431TIP3    H143784   4.781   1.032   1.202 -0.1034 -1.8289 -0.7844
 7431TIP3    H243785   4.922   1.040   1.146  0.4484  1.5810  0.8030
 7432TIP3   OH243786   1.240   1.260  17.296 -0.2726 -0.2630 -0.0846
 7432TIP3    H143787   1.329   1.229  17.278 -0.4676 -0.0579 -1.5472
 7432TIP3    H243788   1.251   1.331  17.358  0.6033 -0.1775 -0.3314
 7433TIP3   OH243789   1.924   3.115  16.476  0.2244 -0.5964 -0.8117
 7433TIP3    H143790   1.958   3.198  16.511 -2.1451 -0.3373  1.1492
 7433TIP3    H243791   1.921   3.057  16.552 -3.4679 -0.5874 -0.7654
 7434TIP3   OH243792   5.302   5.961  16.201 -0.1610 -0.1550  0.3015
 7434TIP3    H143793   5.294   5.903  16.125  0.6519  0.2048 -0.0680
 7434TIP3    H243794   5.392   5.948  16.232 -0.0929  0.6253  0.4480
 7435TIP3   OH243795   5.905   4.038   0.589  0.0739  0.1224  0.0857
 7435TIP3    H143796   5.828   4.021   0.643 -0.6389  0.7318 -0.7145
 7435TIP3    H243797   5.971   4.070   0.651 -0.3500 -0.2996  0.7650
 7436TIP3   OH243798   3.727   4.283  12.338  0.1847 -0.2306  0.3274
 7436TIP3    H143799   3.685   4.357  12.295  1.1202 -0.0077 -0.2417
 7436TIP3    H243800   3.664   4.253  12.403 -0.4241  0.7209  0.1876
 7437TIP3   OH243801   4.683   3.418  17.483  0.4681 -0.0478 -0.1429
 7437TIP3    H143802   4.666   3.337  17.531  1.4228 -0.0395  0.2166
 7437TIP3    H243803   4.755   3.397  17.424  1.1494  0.6953  0.3986
 7438TIP3   OH243804   1.500   1.077  16.224 -0.0074 -0.5657  0.5787
 7438TIP3    H143805   1.588   1.040  16.229  0.8197  1.4697  3.7877
 7438TIP3    H243806   1.452   1.017  16.166  2.6022 -3.4770  1.1664
 7439TIP3   OH243807   1.078   0.715   5.863 -0.9500 -0.5348 -0.3927
 7439TIP3    H143808   1.046   0.804   5.845  1.4331  0.0312 -2.4173
 7439TIP3    H243809   1.031   0.660   5.800  0.8906  0.1064 -2.4775
 7440TIP3   OH243810   5.179   3.313   5.916 -0.2417  0.3517 -0.2656
 7440TIP3    H143811   5.175   3.261   5.996 -0.6625  1.6782  0.6050
 7440TIP3    H243812   5.210   3.399   5.944 -0.6445  0.9208 -1.4779
 7441TIP3   OH243813   5.644   1.492   2.404  0.1288 -0.3008  0.2883
 7441TIP3    H143814   5.733   1.525   2.387  0.6531 -0.7435  1.9564
 7441TIP3    H243815   5.657   1.399   2.421 -0.7838 -0.5367 -0.2669
 7442TIP3   OH243816   3.894   2.746  14.969  0.5018 -0.0341 -0.4169
 7442TIP3    H143817   3.837   2.822  14.977  0.9569  0.2119  0.7398
 7442TIP3    H243818   3.981   2.779  14.993  0.9891 -0.5775 -1.3993
 7443TIP3   OH243819   1.647   3.074  11.629  0.1415  0.3524 -0.0472
 7443TIP3    H143820   1.733   3.096  11.665 -0.0118  1.0542 -0.1112
 7443TIP3    H243821   1.590   3.064  11.705 -0.1323  1.6276 -0.0733
 7444TIP3   OH243822   3.435   1.238   3.259 -0.5548 -0.0113  0.0223
 7444TIP3    H143823   3.466   1.328   3.247 -0.6811  0.1081  0.5542
 7444TIP3    H243824   3.384   1.219   3.180  2.0394 -0.7350 -1.6074
 7445TIP3   OH243825   1.584   5.298  12.694 -0.2285  0.1147  0.1587
 7445TIP3    H143826   1.613   5.269  12.608 -1.2053  1.5193 -0.6865
 7445TIP3    H243827   1.501   5.253  12.708 -0.9262  1.1846 -0.4246
 7446TIP3   OH243828   1.602   5.427  15.943  0.1450 -0.1225 -0.0165
 7446TIP3    H143829   1.637   5.516  15.936  0.9240 -0.4177 -0.0088
 7446TIP3    H243830   1.656   5.385  16.010  0.9234 -1.1274 -1.2310
 7447TIP3   OH243831   6.044   5.482   4.260 -0.3016 -0.1241  0.2869
 7447TIP3    H143832   6.046   5.527   4.176 -1.7314 -0.2581  0.1608
 7447TIP3    H243833   6.035   5.389   4.237  1.3768 -0.3928  0.5692
 7448TIP3   OH243834   2.956   4.569  12.016 -0.2241 -0.0385  0.3313
 7448TIP3    H143835   2.990   4.481  12.026 -0.8082 -0.2076  0.8334
 7448TIP3    H243836   2.998   4.620  12.086  1.4784  0.5141 -1.0080
 7449TIP3   OH243837   6.310   5.161  14.201 -0.3032 -0.0304  0.0052
 7449TIP3    H143838   6.284   5.147  14.292 -0.7055 -0.8645 -0.2225
 7449TIP3    H243839   6.394   5.206  14.206  0.1236 -0.8783  0.8061
 7450TIP3   OH243840   5.304   0.297   0.334 -0.4803  0.4255 -0.0693
 7450TIP3    H143841   5.250   0.345   0.271 -0.0045  0.3980 -0.5042
 7450TIP3    H243842   5.394   0.322   0.313 -0.2817 -0.0108  0.2439
 7451TIP3   OH243843   5.657   5.152  13.739  0.1392 -0.5723 -0.2206
 7451TIP3    H143844   5.649   5.248  13.738  2.0993 -0.3129  1.5947
 7451TIP3    H243845   5.592   5.122  13.675 -1.1234  1.9072 -0.2420
 7452TIP3   OH243846   2.475   3.902   2.135  0.3204  0.0640 -0.0436
 7452TIP3    H143847   2.510   3.880   2.049 -0.0215  0.7712 -0.3685
 7452TIP3    H243848   2.466   3.817   2.180  0.5066 -0.3034 -0.6956
 7453TIP3   OH243849   4.798   0.908   2.211  0.0726  0.7257 -0.2488
 7453TIP3    H143850   4.810   0.849   2.136  1.2337  0.5694  0.0477
 7453TIP3    H243851   4.703   0.920   2.216 -0.1775 -0.8979 -0.4840
 7454TIP3   OH243852   1.857   6.499  14.821  0.3735  0.7725 -0.1378
 7454TIP3    H143853   1.900   6.531  14.742  1.8495 -0.1773  0.2312
 7454TIP3    H243854   1.876   6.405  14.822 -0.0511  0.6798  1.0802
 7455TIP3   OH243855   4.263   3.041   3.219 -0.3441  0.3436 -0.0139
 7455TIP3    H143856   4.324   3.007   3.285 -1.4251  0.1418  0.9142
 7455TIP3    H243857   4.226   3.120   3.260 -2.6467 -0.9631  0.5956
 7456TIP3   OH243858   5.867   3.564  17.085 -0.3912  0.0387 -0.1931
 7456TIP3    H143859   5.945   3.510  17.097 -2.2561 -2.7600  0.1697
 7456TIP3    H243860   5.870   3.626  17.159  1.2263 -0.2966  0.0673
 7457TIP3   OH243861   0.708   4.145  15.252 -0.1405 -0.5042  0.4924
 7457TIP3    H143862   0.791   4.164  15.209 -0.0847 -0.8779  0.4326
 7457TIP3    H243863   0.712   4.194  15.334 -1.8788  3.5436 -1.5532
 7458TIP3   OH243864   5.429   0.296  11.132  0.1450  0.3156 -0.2253
 7458TIP3    H143865   5.396   0.213  11.167  3.1551 -0.1168  1.9882
 7458TIP3    H243866   5.459   0.274  11.044 -2.1836 -0.0058 -1.0343
 7459TIP3   OH243867   3.838   1.530  16.082  0.0709  0.0416  0.1240
 7459TIP3    H143868   3.833   1.623  16.103 -0.2266  0.2054 -0.6642
 7459TIP3    H243869   3.763   1.492  16.126  0.7378  0.0001  1.2762
 7460TIP3   OH243870   6.273   3.827   2.988 -0.5347  0.4842 -0.0910
 7460TIP3    H143871   6.331   3.884   2.937 -0.2153 -0.1930 -0.4976
 7460TIP3    H243872   6.309   3.831   3.077  1.3048 -1.3349 -0.6595
 7461TIP3   OH243873   6.420   4.918   4.068 -0.0420  0.3609 -0.3511
 7461TIP3    H143874   6.441   4.852   4.134 -0.2267 -0.5815 -1.2043
 7461TIP3    H243875   6.501   4.966   4.055 -0.4339  1.7227  1.7916
 7462TIP3   OH243876   5.395   5.572   5.721 -0.5186 -0.6477 -0.6089
 7462TIP3    H143877   5.487   5.548   5.731 -0.4544 -0.5681 -0.9677
 7462TIP3    H243878   5.381   5.642   5.784 -0.1634 -0.2331 -0.9767
 7463TIP3   OH243879   1.179   5.165  14.348 -0.1803  0.2525 -0.1036
 7463TIP3    H143880   1.169   5.082  14.395 -0.1331  0.5572  0.4428
 7463TIP3    H243881   1.174   5.140  14.255  2.0432 -0.6712 -0.0463
 7464TIP3   OH243882   2.354   3.687   0.539 -0.2552  0.0317 -0.4306
 7464TIP3    H143883   2.366   3.758   0.602 -0.9384  0.9765 -1.3364
 7464TIP3    H243884   2.323   3.613   0.592  2.1006 -0.1852  0.8095
 7465TIP3   OH243885   4.961   0.113   2.206  0.2446 -0.5268 -0.3286
 7465TIP3    H143886   4.923   0.164   2.134 -0.6803 -0.0833  0.4475
 7465TIP3    H243887   5.023   0.172   2.247 -0.8009 -0.0025  0.5485
 7466TIP3   OH243888   6.386   2.888  15.389 -0.0007  0.8020 -0.1800
 7466TIP3    H143889   6.361   2.978  15.369  0.1533  0.8324 -0.2371
 7466TIP3    H243890   6.318   2.857  15.449 -1.3758  0.1735 -1.9977
 7467TIP3   OH243891   1.029   6.737   6.317  1.2569 -0.0606  0.3163
 7467TIP3    H143892   1.087   6.695   6.380 -0.6956 -0.6104  1.8771
 7467TIP3    H243893   0.972   6.667   6.286 -0.7089  0.9526  1.3973
 7468TIP3   OH243894   4.163   4.392  17.315  0.1749  0.3713 -0.1650
 7468TIP3    H143895   4.069   4.392  17.332  0.1991  0.6355 -0.0101
 7468TIP3    H243896   4.196   4.315  17.360  0.1514  0.7474  0.5195
 7469TIP3   OH243897   4.617   2.028   0.364 -0.3744  0.2384  1.0868
 7469TIP3    H143898   4.601   2.032   0.269  3.5233  0.0871  0.2826
 7469TIP3    H243899   4.571   1.949   0.392 -1.5168  0.2104 -0.6745
 7470TIP3   OH243900   6.688   1.374  15.505  0.1107  0.3803  0.5760
 7470TIP3    H143901   6.705   1.435  15.434 -0.0854  0.3873  0.5358
 7470TIP3    H243902   6.622   1.314  15.470  1.0514 -0.4985  0.2345
 7471TIP3   OH243903   1.000   2.190   4.489  0.1139  0.0076  0.4024
 7471TIP3    H143904   0.998   2.250   4.414 -0.7134  0.0126  0.4179
 7471TIP3    H243905   1.016   2.104   4.451 -2.2879 -0.3191 -0.0435
 7472TIP3   OH243906   6.269   4.994  17.358 -0.1360 -0.0072 -0.5657
 7472TIP3    H143907   6.200   5.051  17.324  0.3594  0.3924 -0.9207
 7472TIP3    H243908   6.315   5.047  17.423 -2.0789 -1.2781  2.0507
 7473TIP3   OH243909   2.698   6.527   1.266  0.0571  0.0141  0.0513
 7473TIP3    H143910   2.610   6.491   1.259  0.1870 -0.6129  1.3439
 7473TIP3    H243911   2.694   6.585   1.343  1.1855 -1.3850  1.2352
 7474TIP3   OH243912   4.921   1.209  15.626  0.0979 -0.0191  0.2012
 7474TIP3    H143913   4.979   1.168  15.562  0.8898  0.9470  0.2673
 7474TIP3    H243914   4.843   1.234  15.576 -0.7399 -2.1915  0.3031
 7475TIP3   OH243915   5.887   3.789  11.371  0.1523  0.0724 -0.6409
 7475TIP3    H143916   5.932   3.854  11.425  0.2788  0.3238 -1.0405
 7475TIP3    H243917   5.814   3.759  11.424  0.6710 -0.1883 -0.0591
 7476TIP3   OH243918   5.228   3.484  14.143  0.3984  0.3550 -0.5326
 7476TIP3    H143919   5.164   3.417  14.167  0.0452  1.4113  1.6812
 7476TIP3    H243920   5.274   3.447  14.067 -0.4424 -1.9317 -0.0071
 7477TIP3   OH243921   1.750   4.976  13.508  0.3494  0.0286 -0.0371
 7477TIP3    H143922   1.701   4.982  13.426 -0.2295  0.2828  0.3185
 7477TIP3    H243923   1.698   5.028  13.570  1.8422  1.5969 -0.0121
 7478TIP3   OH243924   2.202   3.977  11.729  0.4914 -0.2126 -0.2257
 7478TIP3    H143925   2.203   4.051  11.667  1.2231  0.8196  0.9652
 7478TIP3    H243926   2.190   4.018  11.815 -0.8350 -1.6461  0.3036
 7479TIP3   OH243927   4.157   3.266  15.014  0.3927  0.6768 -0.2135
 7479TIP3    H143928   4.250   3.284  15.027  0.5276  0.1240 -0.3739
 7479TIP3    H243929   4.145   3.176  15.045 -0.0939  0.7516 -0.1708
 7480TIP3   OH243930   5.322   5.749   5.921  0.2416 -0.0694  0.0743
 7480TIP3    H143931   5.355   5.742   6.011  1.9398 -0.6829 -0.5610
 7480TIP3    H243932   5.275   5.832   5.919  0.0250 -0.1265  1.5642
 7481TIP3   OH243933   4.514   2.850   6.041 -0.4451  0.0355  0.4270
 7481TIP3    H143934   4.553   2.805   6.117  1.6040  1.5907  0.3839
 7481TIP3    H243935   4.563   2.818   5.966 -1.5786 -0.5052 -0.1007
 7482TIP3   OH243936   0.171   2.856  15.725 -0.0089  0.4746 -0.4314
 7482TIP3    H143937   0.195   2.925  15.787  1.0136  0.0653 -0.3407
 7482TIP3    H243938   0.245   2.794  15.729  0.7677  1.1161 -3.0461
 7483TIP3   OH243939   1.207   3.352   3.382 -0.5768  0.0989  0.1408
 7483TIP3    H143940   1.234   3.326   3.294 -0.8676 -0.2668  0.1576
 7483TIP3    H243941   1.243   3.440   3.394  0.3706 -0.2684  0.0568
 7484TIP3   OH243942   6.373   4.478  16.888  0.2187  0.1679 -0.2616
 7484TIP3    H143943   6.306   4.545  16.877 -0.0159 -0.0585 -0.2450
 7484TIP3    H243944   6.444   4.504  16.829 -0.4311 -0.2833 -1.2722
 7485TIP3   OH243945   3.532   2.498  14.017  0.2377 -0.0286  0.3661
 7485TIP3    H143946   3.514   2.406  13.996  1.0503 -0.0758 -0.1525
 7485TIP3    H243947   3.455   2.526  14.067  0.4544 -1.2752  1.4581
 7486TIP3   OH243948   5.006   6.263  14.817 -0.0248  0.2190 -0.4058
 7486TIP3    H143949   4.930   6.204  14.815  0.0696  0.0563 -3.3631
 7486TIP3    H243950   4.977   6.337  14.870 -2.6412  0.5500 -2.1009
 7487TIP3   OH243951   4.971   2.165   0.041  0.4879  0.0631  0.2961
 7487TIP3    H143952   4.883   2.200   0.047 -0.1979 -0.7811 -3.0872
 7487TIP3    H243953   5.025   2.228   0.089 -1.5142  2.2488 -0.1303
 7488TIP3   OH243954   2.332   2.877   3.375 -0.4797 -0.4301  0.0319
 7488TIP3    H143955   2.335   2.789   3.411 -0.1176 -0.4528 -0.0501
 7488TIP3    H243956   2.381   2.930   3.438 -0.7177 -0.2841  0.0938
 7489TIP3   OH243957   4.272   1.667   6.019  0.2833 -0.6601 -0.0261
 7489TIP3    H143958   4.218   1.733   5.976  0.8052  0.3976  0.8999
 7489TIP3    H243959   4.222   1.641   6.096  1.0479  0.2925  0.8121
 7490TIP3   OH243960   3.555   6.222   1.758 -0.2060  0.7009 -0.2513
 7490TIP3    H143961   3.551   6.316   1.739 -0.9650  0.5764 -0.7340
 7490TIP3    H243962   3.507   6.181   1.687  2.4586 -0.3057 -1.6175
 7491TIP3   OH243963   3.170   6.442   6.072  0.0618 -0.5295 -0.1599
 7491TIP3    H143964   3.261   6.465   6.051  0.6060 -1.5956  0.8435
 7491TIP3    H243965   3.121   6.522   6.058  0.9375 -0.2493 -1.9345
 7492TIP3   OH243966   5.467   6.741   2.038 -0.6525  0.2198  0.4076
 7492TIP3    H143967   5.449   6.662   1.988 -0.0749  0.3816 -0.0654
 7492TIP3    H243968   5.381   6.781   2.051 -0.7895  0.3206 -0.7131
 7493TIP3   OH243969   6.387   2.547  15.038 -0.3005  0.5904 -0.5490
 7493TIP3    H143970   6.292   2.558  15.026 -0.4503  2.5072  1.6267
 7493TIP3    H243971   6.408   2.468  14.988 -3.3304 -0.8501  0.1536
 7494TIP3   OH243972   3.040   4.586   5.036  0.2955  0.1980 -0.9357
 7494TIP3    H143973   2.990   4.531   5.096 -1.1136 -0.1961 -2.3897
 7494TIP3    H243974   3.130   4.583   5.069 -0.4673  0.3285  1.3402
 7495TIP3   OH243975   6.022   0.998  13.298  0.2645 -0.3001 -0.8127
 7495TIP3    H143976   6.039   1.090  13.321  0.2813 -0.2281 -1.1089
 7495TIP3    H243977   6.090   0.949  13.345  1.8420  0.0517 -2.5973
 7496TIP3   OH243978   0.087   0.100   0.204 -0.2731  0.2291  0.4086
 7496TIP3    H143979   0.096   0.133   0.114  0.5133  1.6299  0.9616
 7496TIP3    H243980   0.043   0.016   0.194  0.1238  0.1744 -1.3202
 7497TIP3   OH243981   6.018   3.725   4.427 -0.4796  0.0296  0.3018
 7497TIP3    H143982   5.979   3.645   4.463 -2.3516  0.2121 -1.1908
 7497TIP3    H243983   6.015   3.713   4.332  3.7042 -0.1580 -0.0026
 7498TIP3   OH243984   5.403   1.746  11.006 -0.0491  0.9596  0.1328
 7498TIP3    H143985   5.356   1.699  10.938  0.8486  0.9486 -0.4898
 7498TIP3    H243986   5.360   1.832  11.011 -1.0880  0.4249  0.6268
 7499TIP3   OH243987   5.730   6.355   3.412 -0.0671 -0.5378  0.2767
 7499TIP3    H143988   5.729   6.435   3.361  3.8082  1.7580  3.2380
 7499TIP3    H243989   5.768   6.289   3.354 -0.1152  0.6594 -1.1626
 7500TIP3   OH243990   1.769   2.503  12.466  0.6008  0.3589  0.5320
 7500TIP3    H143991   1.752   2.447  12.390  2.3540  1.4739 -0.7592
 7500TIP3    H243992   1.682   2.529  12.496 -0.1696  1.0299 -2.0215
 7501TIP3   OH243993   2.095   0.179   2.101 -0.2140  0.8672 -0.7307
 7501TIP3    H143994   2.063   0.173   2.191 -1.6355  0.9982 -1.1969
 7501TIP3    H243995   2.168   0.116   2.097  0.0794  1.1054  0.5830
 7502TIP3   OH243996   6.640   2.996   3.288  0.6993  0.1609  0.1857
 7502TIP3    H143997   6.565   3.050   3.261  0.4461 -1.5311 -2.9124
 7502TIP3    H243998   6.633   2.992   3.383 -0.5429  3.6718  0.3910
 7503TIP3   OH243999   1.244   0.568  11.557  0.2151 -0.2976 -0.3346
 7503TIP3    H144000   1.166   0.528  11.519 -0.6369 -0.7416  1.7670
 7503TIP3    H244001   1.210   0.630  11.622  1.6092 -0.6619  0.7864
 7504TIP3   OH244002   3.923   2.894   3.645  0.0373 -0.3553 -0.1591
 7504TIP3    H144003   3.976   2.902   3.566  0.5839  4.6989  0.3467
 7504TIP3    H244004   3.834   2.884   3.613  0.5061 -1.1111 -1.2797
 7505TIP3   OH244005   2.135   2.290  11.877  0.6799  0.4660  0.1897
 7505TIP3    H144006   2.187   2.213  11.899 -1.1143 -0.6956  0.5588
 7505TIP3    H244007   2.189   2.339  11.815  2.0689 -0.8127  0.3412
 7506TIP3   OH244008   1.438   3.919  12.848 -0.1042  0.3081 -0.1108
 7506TIP3    H144009   1.463   3.887  12.762  0.7647 -0.5889  0.4489
 7506TIP3    H244010   1.488   3.865  12.909 -3.5415 -1.8105  1.1425
 7507TIP3   OH244011   0.441   5.738  16.570 -0.3713 -0.0387  0.5907
 7507TIP3    H144012   0.409   5.648  16.572 -0.2953 -0.1440 -1.4715
 7507TIP3    H244013   0.385   5.783  16.507  0.4861  0.9896  0.5247
 7508TIP3   OH244014   0.674   1.459  12.230  0.2098  0.1220 -0.6850
 7508TIP3    H144015   0.595   1.404  12.229 -0.0649  0.4804  0.1160
 7508TIP3    H244016   0.643   1.547  12.208  0.5388  0.0915 -1.2820
 7509TIP3   OH244017   4.892   0.328   3.565 -0.9593  0.3506 -0.3189
 7509TIP3    H144018   4.827   0.259   3.580 -0.7173  0.0803 -0.4889
 7509TIP3    H244019   4.959   0.312   3.630 -0.2612 -0.3858 -1.1856
 7510TIP3   OH244020   2.391   5.767  11.252 -0.2077 -0.5165 -0.2443
 7510TIP3    H144021   2.365   5.790  11.341  1.5687  0.3188  0.1073
 7510TIP3    H244022   2.475   5.722  11.263 -0.6194 -1.6305 -1.4103
 7511TIP3   OH244023   6.183   2.313   3.025  0.3700 -0.2683 -0.0332
 7511TIP3    H144024   6.210   2.283   3.112  0.9653 -1.1400 -0.5056
 7511TIP3    H244025   6.206   2.406   3.024 -0.1102 -0.1201  0.9146
 7512TIP3   OH244026   5.420   1.810  14.654  0.4750 -0.1168  0.7237
 7512TIP3    H144027   5.452   1.888  14.701  1.3453 -0.1122  0.1489
 7512TIP3    H244028   5.392   1.750  14.723  0.3754  0.4602  1.1944
 7513TIP3   OH244029   4.027   3.014  17.363  0.4268  0.6528  0.3661
 7513TIP3    H144030   4.072   3.034  17.281 -0.0859  1.0060  0.1668
 7513TIP3    H244031   4.006   3.100  17.401  0.2249  0.4910  0.6244
 7514TIP3   OH244032   3.580   5.495  12.512  0.7615  0.2100 -0.1000
 7514TIP3    H144033   3.497   5.449  12.495  0.7730  0.5532 -1.1969
 7514TIP3    H244034   3.615   5.454  12.591 -0.3891 -0.0322  0.3002
 7515TIP3   OH244035   3.138   5.597  16.973  0.0954 -0.7255 -0.7276
 7515TIP3    H144036   3.205   5.610  16.907 -2.8333  1.7205 -3.5634
 7515TIP3    H244037   3.056   5.618  16.929 -1.9874  4.6897  4.3790
 7516TIP3   OH244038   4.631   1.197  16.271  0.1657  0.7526 -0.5427
 7516TIP3    H144039   4.557   1.215  16.328  0.5011  1.7810 -0.4210
 7516TIP3    H244040   4.694   1.152  16.327  0.0136  0.7080 -0.4080
 7517TIP3   OH244041   0.756   2.421   3.321 -0.1404  0.3443 -0.8412
 7517TIP3    H144042   0.737   2.421   3.415  2.0245 -0.5732 -0.3223
 7517TIP3    H244043   0.750   2.513   3.295  0.1692  0.7501  0.4280
 7518TIP3   OH244044   3.760   5.819  16.930 -0.5164  0.0175 -0.1147
 7518TIP3    H144045   3.823   5.827  16.858 -1.5147  0.9265 -0.9270
 7518TIP3    H244046   3.694   5.886  16.911 -1.4761 -0.5892  0.9675
 7519TIP3   OH244047   1.358   0.089   0.285 -0.0594  0.5665  0.3985
 7519TIP3    H144048   1.345   0.184   0.280  3.7199  1.2565  0.1073
 7519TIP3    H244049   1.353   0.059   0.195  1.7736  1.1150  0.0705
 7520TIP3   OH244050   2.423   1.389   1.948 -0.0257  0.3649 -0.0917
 7520TIP3    H144051   2.497   1.330   1.960 -1.7107 -1.9493 -0.2527
 7520TIP3    H244052   2.404   1.423   2.036  1.0066  0.7612 -0.0075
 7521TIP3   OH244053   6.311   6.534  10.911 -0.6109  0.8214  0.0250
 7521TIP3    H144054   6.284   6.465  10.850 -0.9662 -0.4427  1.5368
 7521TIP3    H244055   6.403   6.516  10.929 -0.4906  1.2267 -0.1819
 7522TIP3   OH244056   5.817   1.892  12.861 -0.1957  0.8211  0.2401
 7522TIP3    H144057   5.834   1.808  12.904 -2.0970 -0.2600 -1.0048
 7522TIP3    H244058   5.827   1.874  12.768  2.4592  2.7936  0.0202
 7523TIP3   OH244059   2.041   1.843  13.845 -0.1759 -0.3085 -0.0015
 7523TIP3    H144060   2.055   1.851  13.939 -0.9397  2.3909 -0.0175
 7523TIP3    H244061   1.956   1.799  13.837 -0.1724 -0.4268  0.5788
 7524TIP3   OH244062   4.675   2.778  11.351  0.6241  0.6831  0.1917
 7524TIP3    H144063   4.763   2.762  11.316  0.3754  0.4613 -0.3403
 7524TIP3    H244064   4.660   2.872  11.338  0.4798  0.5758 -0.4244
 7525TIP3   OH244065   4.022   1.055   5.456 -0.0512  0.6305  0.3336
 7525TIP3    H144066   3.958   1.012   5.512 -1.0984  0.0602 -1.2402
 7525TIP3    H244067   3.982   1.139   5.433  0.1952  0.6833  0.0890
 7526TIP3   OH244068   4.309   2.810  13.569  0.2006 -0.0886 -0.1067
 7526TIP3    H144069   4.321   2.736  13.628  0.5216 -0.5734 -0.7598
 7526TIP3    H244070   4.260   2.773  13.494  1.4365  0.0415 -1.0101
 7527TIP3   OH244071   3.760   6.194  11.862 -0.3119 -0.3872 -0.2428
 7527TIP3    H144072   3.836   6.193  11.803  0.3688 -0.1910  0.5973
 7527TIP3    H244073   3.797   6.220  11.947 -1.5289  0.9233 -0.0871
 7528TIP3   OH244074   4.731   5.678   4.275  0.4879 -0.4754 -0.3079
 7528TIP3    H144075   4.753   5.585   4.275  0.2691 -0.5371 -1.3597
 7528TIP3    H244076   4.644   5.682   4.316  0.8402 -0.6370  0.4645
 7529TIP3   OH244077   0.930   0.422  14.312  0.2092  0.2423  0.0972
 7529TIP3    H144078   1.017   0.457  14.295  0.6853 -1.5053 -1.3677
 7529TIP3    H244079   0.942   0.360  14.385  0.6437 -1.5059 -1.4031
 7530TIP3   OH244080   0.796   5.433   3.515 -0.2236  0.4797  0.1421
 7530TIP3    H144081   0.786   5.340   3.533  1.2218  0.4359  0.8480
 7530TIP3    H244082   0.720   5.455   3.461 -0.6268 -1.0844  0.0180
 7531TIP3   OH244083   3.661   1.783   6.807  0.1996  0.2871  0.7537
 7531TIP3    H144084   3.692   1.841   6.876  0.8195 -0.1310  0.8304
 7531TIP3    H244085   3.629   1.706   6.853  0.2333  0.1810  0.5997
 7532TIP3   OH244086   6.309   6.176   4.270  0.6474  0.1088 -0.2114
 7532TIP3    H144087   6.295   6.228   4.349  2.7710  2.1610 -1.0653
 7532TIP3    H244088   6.339   6.239   4.205 -1.6327 -1.3902 -2.9166
 7533TIP3   OH244089   3.625   5.502  13.507  0.4786  0.2333  0.7682
 7533TIP3    H144090   3.530   5.517  13.502  0.4777  0.0087 -0.1926
 7533TIP3    H244091   3.638   5.455  13.589 -0.4313 -0.9544  0.2742
 7534TIP3   OH244092   1.940   4.023   0.701  0.1125 -0.6153 -0.1964
 7534TIP3    H144093   2.025   4.041   0.743 -0.2476  0.9066 -0.0417
 7534TIP3    H244094   1.948   4.062   0.614 -1.0988  1.5030  0.5528
 7535TIP3   OH244095   1.542   6.704   5.222  0.2320 -0.1785 -0.6979
 7535TIP3    H144096   1.622   6.663   5.190 -0.5194 -0.3152 -2.5399
 7535TIP3    H244097   1.557   6.798   5.209  0.4764 -0.1342 -0.1002
 7536TIP3   OH244098   4.637   0.466  12.389  0.0583 -0.5128  0.3541
 7536TIP3    H144099   4.626   0.513  12.307  0.1507 -1.0501  0.0287
 7536TIP3    H244100   4.705   0.401  12.371 -0.8852 -1.5621  0.4353
 7537TIP3   OH244101   1.584   1.159   1.148  0.1165  0.2052  0.2593
 7537TIP3    H144102   1.648   1.124   1.087 -0.0499 -0.7692  0.6339
 7537TIP3    H244103   1.584   1.254   1.131  0.8907  0.0854 -0.4530
 7538TIP3   OH244104   5.219   3.744  14.000 -0.6290  0.2578  0.2815
 7538TIP3    H144105   5.206   3.700  14.085  1.6387 -0.8625  0.1450
 7538TIP3    H244106   5.312   3.768  14.001 -0.9053  1.5241 -1.3335
 7539TIP3   OH244107   1.944   5.617   4.669  0.2113 -0.3010 -0.0835
 7539TIP3    H144108   1.924   5.658   4.754 -2.3688 -2.4676  0.4737
 7539TIP3    H244109   1.880   5.656   4.608  1.4801  0.5933 -0.8980
 7540TIP3   OH244110   5.755   3.257  12.548 -0.1600 -0.1168 -0.0985
 7540TIP3    H144111   5.702   3.306  12.485  1.1438  1.2907 -0.1600
 7540TIP3    H244112   5.766   3.317  12.621  2.7518  0.3512 -0.8165
 7541TIP3   OH244113   4.444   4.546   3.076  0.3848 -0.5725 -0.0537
 7541TIP3    H144114   4.491   4.613   3.025  0.3975 -1.5840 -1.4198
 7541TIP3    H244115   4.484   4.551   3.163  3.1037 -1.3655 -1.1334
 7542TIP3   OH244116   6.472   0.023  15.446  0.4161 -0.4221 -0.2130
 7542TIP3    H144117   6.440   0.033  15.536  0.4093  1.4873 -0.3907
 7542TIP3    H244118   6.401  -0.023  15.401 -1.4416  2.1590 -0.1573
 7543TIP3   OH244119   2.832   4.324  15.179  0.0892  0.0578  0.2035
 7543TIP3    H144120   2.767   4.393  15.194 -0.5041 -0.7985  1.8911
 7543TIP3    H244121   2.885   4.323  15.258  0.2262 -1.2579  0.1280
 7544TIP3   OH244122   6.526   1.016  14.503 -0.3645  0.2109 -0.2300
 7544TIP3    H144123   6.594   1.074  14.536  0.0203 -0.4711  0.1918
 7544TIP3    H244124   6.569   0.931  14.492 -1.1654 -0.2668  0.1692
 7545TIP3   OH244125   0.160   0.685  12.052  0.2303  0.2875 -0.1061
 7545TIP3    H144126   0.165   0.649  12.141  0.0312 -1.5802 -0.8191
 7545TIP3    H244127   0.103   0.625  12.005 -0.2562  1.6658 -1.3317
 7546TIP3   OH244128   4.103   1.672  16.717  0.4993 -0.0916 -0.2208
 7546TIP3    H144129   4.025   1.622  16.741  0.8267 -1.5045 -1.8669
 7546TIP3    H244130   4.081   1.763  16.736 -0.9254 -0.6433  0.8671
 7547TIP3   OH244131   5.954   1.241  16.995 -0.4428 -0.4525 -0.3544
 7547TIP3    H144132   5.861   1.225  17.007 -0.2930  0.2310  2.5895
 7547TIP3    H244133   5.995   1.154  17.003 -0.7247 -0.5747 -0.2426
 7548TIP3   OH244134   3.184   3.595  14.206  0.5884 -0.3724 -0.5165
 7548TIP3    H144135   3.233   3.516  14.229  0.0751 -0.6355 -0.3140
 7548TIP3    H244136   3.107   3.562  14.160 -0.4394 -0.0989  0.9565
 7549TIP3   OH244137   2.795   1.270  13.092 -0.1180 -0.2806  0.3454
 7549TIP3    H144138   2.886   1.298  13.102 -0.1846  0.2311 -0.4036
 7549TIP3    H244139   2.744   1.344  13.124 -0.2815 -0.9555  1.7163
 7550TIP3   OH244140   1.510   6.317  16.534 -0.3220 -0.1291  0.1471
 7550TIP3    H144141   1.489   6.240  16.481 -0.3532  0.1176 -0.2026
 7550TIP3    H244142   1.513   6.284  16.624 -1.9253 -0.2468  0.1889
 7551TIP3   OH244143   0.667   6.343  13.949  0.0104  0.1021 -0.9228
 7551TIP3    H144144   0.740   6.289  13.918  0.4265  0.6406 -0.8902
 7551TIP3    H244145   0.614   6.359  13.871  1.6510  2.4046 -1.6690
 7552TIP3   OH244146   5.601   4.249  12.840  0.2210  0.0138  0.4200
 7552TIP3    H144147   5.628   4.205  12.759 -0.6661  0.6683 -0.2623
 7552TIP3    H244148   5.678   4.299  12.867  1.1516 -1.7065  1.0681
 7553TIP3   OH244149   0.090   6.323  14.663 -0.2105  0.0794 -0.0901
 7553TIP3    H144150   0.168   6.376  14.678 -0.3389 -0.3463  2.4776
 7553TIP3    H244151   0.018   6.385  14.666 -0.1530  0.1447 -0.0617
 7554TIP3   OH244152   0.215   1.128   1.998  0.1122 -0.8280  0.7104
 7554TIP3    H144153   0.231   1.172   1.915  0.1791 -1.0157  0.6244
 7554TIP3    H244154   0.296   1.081   2.017  0.0768 -0.8318  0.8534
 7555TIP3   OH244155   3.193   3.785   4.135 -0.0838  0.3043  0.3403
 7555TIP3    H144156   3.164   3.771   4.225  1.4912  2.7937  1.3357
 7555TIP3    H244157   3.272   3.837   4.143  0.3175  0.2936 -2.5054
 7556TIP3   OH244158   4.107   6.289   2.125  0.0612  0.5417 -0.1035
 7556TIP3    H144159   4.026   6.283   2.074 -0.3861 -0.0597  0.6530
 7556TIP3    H244160   4.079   6.328   2.208  0.1687 -1.4058  0.9058
 7557TIP3   OH244161   1.743   6.309  15.111 -0.0123 -0.7819  0.0073
 7557TIP3    H144162   1.794   6.390  15.118 -0.1622 -0.6034 -0.8912
 7557TIP3    H244163   1.696   6.303  15.194 -1.4548  1.0393 -0.6050
 7558TIP3   OH244164   6.533   5.858   2.375  0.0239  0.0281  0.3118
 7558TIP3    H144165   6.529   5.838   2.282 -0.8500  0.0451  0.3400
 7558TIP3    H244166   6.625   5.847   2.398  0.1393 -0.5869 -0.4185
 7559TIP3   OH244167   0.441   1.275   2.329  0.3158  0.0210  0.3514
 7559TIP3    H144168   0.414   1.363   2.301 -3.1996 -1.1329 -0.2752
 7559TIP3    H244169   0.436   1.278   2.424 -0.3508  0.3605  0.3141
 7560TIP3   OH244170   2.668   3.402  15.561  0.1100  0.9904 -0.5461
 7560TIP3    H144171   2.725   3.327  15.580 -0.4442  0.4546 -0.9747
 7560TIP3    H244172   2.707   3.442  15.483  0.2508  0.9922 -0.4763
 7561TIP3   OH244173   1.004   3.987   4.522 -0.2269  0.3533  0.3490
 7561TIP3    H144174   1.002   3.960   4.614  0.6380 -0.1875  0.2275
 7561TIP3    H244175   1.093   4.020   4.509 -0.8181  1.9678  0.1125
 7562TIP3   OH244176   1.875   4.028  15.862 -0.9339  0.3224  0.1444
 7562TIP3    H144177   1.914   4.010  15.948 -1.7925  0.3992  0.5556
 7562TIP3    H244178   1.909   4.115  15.839 -0.1455  0.0043  0.0787
 7563TIP3   OH244179   4.018   6.703  15.177 -0.1022  0.3681 -0.4750
 7563TIP3    H144180   4.027   6.613  15.207  0.9595  0.4535 -0.4849
 7563TIP3    H244181   3.933   6.732  15.211  0.6753  0.2099  1.7634
 7564TIP3   OH244182   0.605   1.164   0.193 -0.3088  0.3109 -0.4719
 7564TIP3    H144183   0.628   1.252   0.162  2.4688 -0.1468  0.0289
 7564TIP3    H244184   0.681   1.136   0.244 -1.8938 -1.6852  0.9479
 7565TIP3   OH244185   1.440   4.869   3.683 -0.1050 -0.9301  0.6469
 7565TIP3    H144186   1.435   4.965   3.683  0.8697 -0.8645  0.7007
 7565TIP3    H244187   1.355   4.840   3.714 -0.7583 -0.1002 -0.3164
 7566TIP3   OH244188   1.519   1.116   3.414  0.0752 -0.0216  0.1447
 7566TIP3    H144189   1.576   1.153   3.481 -0.8038  0.2388  0.7752
 7566TIP3    H244190   1.442   1.086   3.463  0.0445 -1.1683 -0.5692
 7567TIP3   OH244191   2.524   2.170   4.867  0.0383 -0.0657 -0.9681
 7567TIP3    H144192   2.433   2.197   4.884 -0.8012 -2.6404 -0.8162
 7567TIP3    H244193   2.564   2.164   4.954 -0.0827 -0.2328 -0.9227
 7568TIP3   OH244194   4.374   2.585   6.095  0.0433 -0.2130  0.0351
 7568TIP3    H144195   4.368   2.612   6.004  1.4066  1.5056  0.4045
 7568TIP3    H244196   4.306   2.635   6.140  0.8256  0.6339  0.2968
 7569TIP3   OH244197   4.038   2.203  16.313  0.1111 -0.3679  0.1466
 7569TIP3    H144198   4.041   2.202  16.217 -0.8172 -0.7639  0.1185
 7569TIP3    H244199   3.989   2.125  16.337 -0.1147  0.0070  0.9327
 7570TIP3   OH244200   2.419   0.019   3.960 -0.0996  0.3050  0.0506
 7570TIP3    H144201   2.337   0.029   3.911  0.1176  1.2790 -0.1342
 7570TIP3    H244202   2.477  -0.026   3.899 -0.5822 -0.6793  0.2945
 7571TIP3   OH244203   5.145   6.295  12.287  0.2631  0.2294  0.0650
 7571TIP3    H144204   5.240   6.308  12.291  0.3002 -0.3362  1.1439
 7571TIP3    H244205   5.115   6.364  12.226  1.2669  0.8785  0.2701
 7572TIP3   OH244206   3.899   2.538   3.645 -0.5798 -0.7491 -0.1651
 7572TIP3    H144207   3.846   2.515   3.569 -0.5653 -1.9280  0.1623
 7572TIP3    H244208   3.859   2.491   3.717  0.2254 -0.7381  0.3004
 7573TIP3   OH244209   4.888   1.591   1.375  0.6202  0.3423  0.0173
 7573TIP3    H144210   4.841   1.509   1.387  2.2382 -0.3057  2.8920
 7573TIP3    H244211   4.840   1.654   1.429  2.0278  0.0333  1.7414
 7574TIP3   OH244212   2.033   6.266  14.746  0.4562  0.7924 -0.2736
 7574TIP3    H144213   2.012   6.281  14.654  0.0202  1.9442  0.0010
 7574TIP3    H244214   2.044   6.171  14.753 -0.9787  0.5261 -1.2140
 7575TIP3   OH244215   0.238   0.623  13.956  0.0274 -0.8549 -0.0655
 7575TIP3    H144216   0.244   0.689  13.887 -1.2761 -1.0442 -0.3998
 7575TIP3    H244217   0.171   0.657  14.016  0.4969 -1.1205  0.6173
 7576TIP3   OH244218   6.353   6.305   5.670 -0.3044 -0.4731 -0.4749
 7576TIP3    H144219   6.334   6.390   5.708  1.0278  0.4081 -1.6910
 7576TIP3    H244220   6.401   6.258   5.739  1.0013  0.6444 -0.5884
 7577TIP3   OH244221   0.611   1.700  12.159  0.4083  0.0307 -0.0820
 7577TIP3    H144222   0.527   1.743  12.143 -0.2800 -1.5698 -0.9813
 7577TIP3    H244223   0.666   1.727  12.085  0.2501 -0.0025 -0.2114
 7578TIP3   OH244224   2.424   3.486  15.044 -0.7215 -0.1863  0.0460
 7578TIP3    H144225   2.348   3.461  15.097 -2.1689  2.2949 -0.6770
 7578TIP3    H244226   2.453   3.568  15.083 -1.0124  1.0186 -2.1346
 7579TIP3   OH244227   4.392   1.869  14.245 -0.2832 -0.0628  0.0519
 7579TIP3    H144228   4.387   1.944  14.185 -1.2872 -0.4198 -0.3386
 7579TIP3    H244229   4.467   1.818  14.214  1.8068  1.8391  1.6290
 7580TIP3   OH244230   0.564   4.081  13.105 -0.3459  0.7810 -0.1196
 7580TIP3    H144231   0.584   3.988  13.094 -0.4561  0.7260  0.1404
 7580TIP3    H244232   0.607   4.105  13.187  1.8158  1.5754 -1.4060
 7581TIP3   OH244233   1.232   4.996  10.627  0.0945  0.5658 -0.3531
 7581TIP3    H144234   1.263   4.906  10.637 -0.4557  0.6217  2.9240
 7581TIP3    H244235   1.138   4.991  10.641 -0.1424  1.5382 -1.4112
 7582TIP3   OH244236   6.686   4.602   0.281 -0.6658  0.0418 -0.1796
 7582TIP3    H144237   6.745   4.667   0.318  2.6666 -0.6555 -3.5558
 7582TIP3    H244238   6.711   4.520   0.324 -1.4749  0.2165  0.6468
 7583TIP3   OH244239   5.810   3.123  12.990 -0.2453  0.3936  0.2752
 7583TIP3    H144240   5.743   3.097  13.052 -0.0617  2.2609  1.3455
 7583TIP3    H244241   5.768   3.115  12.904 -0.3495 -2.6742  0.5073
 7584TIP3   OH244242   6.519   0.424  12.985 -0.1937  0.2862  0.0059
 7584TIP3    H144243   6.576   0.459  13.054  1.1189 -0.2088 -0.7873
 7584TIP3    H244244   6.517   0.330  13.000 -0.0932  0.2034 -0.4851
 7585TIP3   OH244245   0.892   1.474  11.532 -0.0810 -0.6304  0.1106
 7585TIP3    H144246   0.854   1.463  11.619  2.4259 -1.6183  1.1954
 7585TIP3    H244247   0.821   1.455  11.471 -2.9269  3.3391  1.7521
 7586TIP3   OH244248   2.141   0.360   0.639  0.8200 -0.0389  0.1513
 7586TIP3    H144249   2.192   0.300   0.693  0.2232  0.3907  1.2065
 7586TIP3    H244250   2.091   0.412   0.701  0.7245  1.0167 -0.7895
 7587TIP3   OH244251   3.135   3.038   6.168 -0.5294 -0.1912  0.3398
 7587TIP3    H144252   3.202   2.984   6.209 -0.9921 -0.0782  1.2712
 7587TIP3    H244253   3.075   3.060   6.239 -0.6041  1.1572 -0.1192
 7588TIP3   OH244254   1.705   0.491  12.730 -0.3454 -0.5039 -0.3101
 7588TIP3    H144255   1.708   0.405  12.772 -0.7224  0.1456  1.1187
 7588TIP3    H244256   1.676   0.550  12.800 -3.1461  0.3188 -2.0091
 7589TIP3   OH244257   2.340   3.816   6.278  0.5841  0.0293  0.4512
 7589TIP3    H144258   2.330   3.721   6.287  3.7737 -0.4785  0.0284
 7589TIP3    H244259   2.254   3.847   6.250 -0.7046 -2.6455  1.1102
 7590TIP3   OH244260   1.176   5.006   0.357 -0.1513 -0.6622  0.1833
 7590TIP3    H144261   1.268   4.983   0.370 -0.3690 -1.4528  0.3612
 7590TIP3    H244262   1.133   4.983   0.439 -0.7109 -1.3715 -0.2987
 7591TIP3   OH244263   5.516   2.789   4.136 -0.1360 -0.1012  0.2452
 7591TIP3    H144264   5.473   2.704   4.131  0.9437 -0.6491  0.0173
 7591TIP3    H244265   5.491   2.823   4.222 -1.3543 -0.1978 -0.0392
 7592TIP3   OH244266   2.259   1.126  13.938 -0.2152  0.2256  0.4305
 7592TIP3    H144267   2.232   1.208  13.979 -1.0447  0.0756  0.1927
 7592TIP3    H244268   2.192   1.063  13.963  0.7240 -0.5381  1.1066
 7593TIP3   OH244269   3.185   1.036  14.228  0.6155 -0.2201 -0.1063
 7593TIP3    H144270   3.103   1.080  14.210  0.4702 -1.2217 -2.1036
 7593TIP3    H244271   3.224   1.086  14.300 -0.6158  1.7075 -0.7147
 7594TIP3   OH244272   1.208   1.604   3.160  0.0196  0.5346  0.9437
 7594TIP3    H144273   1.263   1.640   3.090  0.3238 -1.0326  0.3349
 7594TIP3    H244274   1.120   1.601   3.122  0.2656 -0.7594  0.4064
 7595TIP3   OH244275   5.888   2.568  15.585 -0.5269 -0.4188  0.2436
 7595TIP3    H144276   5.934   2.493  15.548 -0.2334 -0.2035  0.1716
 7595TIP3    H244277   5.911   2.641  15.527 -2.0608 -0.5771 -0.6307
 7596TIP3   OH244278   1.388   6.342  11.353 -0.2167 -0.1299  0.5516
 7596TIP3    H144279   1.440   6.390  11.418  0.0288 -1.2075  1.1816
 7596TIP3    H244280   1.327   6.406  11.319  1.6198  1.2394 -0.3437
 7597TIP3   OH244281   5.133   4.196  15.216 -0.2933 -0.0244 -0.2089
 7597TIP3    H144282   5.042   4.190  15.187 -0.3433  0.2611 -0.1171
 7597TIP3    H244283   5.138   4.138  15.292 -0.3971 -0.0487 -0.2191
 7598TIP3   OH244284   4.553   3.164  12.734  0.0121  0.0573  0.3454
 7598TIP3    H144285   4.505   3.245  12.751 -0.3473 -0.2505  0.8352
 7598TIP3    H244286   4.572   3.166  12.640 -2.3720 -0.5621 -0.2176
 7599TIP3   OH244287   1.807   1.199   4.908  0.8279  0.2997 -0.0859
 7599TIP3    H144288   1.888   1.208   4.958  1.1217  2.3019 -0.8360
 7599TIP3    H244289   1.743   1.254   4.954 -0.1890 -1.3203  0.5478
 7600TIP3   OH244290   2.464   3.704  14.659  0.1534  0.2146 -0.4208
 7600TIP3    H144291   2.553   3.694  14.693  0.5340  0.1400 -1.4024
 7600TIP3    H244292   2.471   3.774  14.594 -0.9006  1.5604  0.8428
 7601TIP3   OH244293   0.824   1.664   0.849  0.3536 -0.2414 -0.2963
 7601TIP3    H144294   0.885   1.649   0.777 -0.3001  1.0062 -1.1402
 7601TIP3    H244295   0.760   1.726   0.814  0.0361  0.4279  1.3674
 7602TIP3   OH244296   2.690   0.447  11.708 -0.0908  0.3342 -0.0663
 7602TIP3    H144297   2.774   0.487  11.731 -0.3221  2.4127 -2.4455
 7602TIP3    H244298   2.713   0.359  11.677  1.1984  0.8069 -0.5240
 7603TIP3   OH244299   4.791   4.736   1.663 -0.1777 -0.5122 -0.8412
 7603TIP3    H144300   4.712   4.774   1.624  0.5533 -0.1425 -2.0064
 7603TIP3    H244301   4.793   4.771   1.752 -0.2687  1.0693 -1.4385
 7604TIP3   OH244302   5.020   4.140   5.246  0.4475 -0.3494 -0.0803
 7604TIP3    H144303   5.029   4.217   5.303 -0.5883 -0.0627 -0.2784
 7604TIP3    H244304   5.098   4.142   5.191  0.2326  0.8433 -0.3894
 7605TIP3   OH244305   1.082   4.741   1.931 -0.0482  1.0223 -0.2868
 7605TIP3    H144306   1.107   4.659   1.973 -0.8500  0.6472 -0.5053
 7605TIP3    H244307   1.109   4.810   1.991 -3.2020  0.4603  2.0590
 7606TIP3   OH244308   6.145   2.670   3.736 -0.6797  0.0175  0.3982
 7606TIP3    H144309   6.052   2.691   3.726 -0.6588 -0.7500 -1.9762
 7606TIP3    H244310   6.161   2.600   3.672  1.5902  0.3078  0.5640
 7607TIP3   OH244311   2.295   6.239  17.475 -0.0857 -0.3105  0.0639
 7607TIP3    H144312   2.362   6.227  17.543  0.6884 -0.0663 -0.6358
 7607TIP3    H244313   2.259   6.151  17.461  0.5792 -0.5737 -0.0310
 7608TIP3   OH244314   5.830   1.057   0.123  0.1757  0.1352  0.3358
 7608TIP3    H144315   5.811   1.095   0.037 -3.7118 -0.6267  0.6613
 7608TIP3    H244316   5.805   1.125   0.186 -0.5909 -0.5863  0.8434
 7609TIP3   OH244317   5.756   3.783  10.658  0.0806 -0.4816  0.3189
 7609TIP3    H144318   5.767   3.871  10.623 -0.2472  0.6659  2.8702
 7609TIP3    H244319   5.689   3.743  10.602  0.6626  0.6326 -1.2441
 7610TIP3   OH244320   2.903   0.946   1.049 -0.2609  0.1593 -0.5189
 7610TIP3    H144321   2.992   0.938   1.085 -1.1318 -1.3126  1.5672
 7610TIP3    H244322   2.915   0.941   0.954  1.8311 -0.9070 -0.2722
 7611TIP3   OH244323   1.963   3.222   3.001  0.8052  0.8059 -0.2852
 7611TIP3    H144324   2.052   3.187   2.994  0.0725 -1.0687 -0.7469
 7611TIP3    H244325   1.933   3.231   2.911  0.4207  1.1613 -0.1265
 7612TIP3   OH244326   1.283   6.649  12.908 -0.2314  0.2202 -0.6587
 7612TIP3    H144327   1.362   6.664  12.854 -0.1826  0.7716 -0.4446
 7612TIP3    H244328   1.225   6.722  12.885  0.6287  1.7302  1.5576
 7613TIP3   OH244329   2.813   3.380   1.548  0.2771 -0.0142 -0.2456
 7613TIP3    H144330   2.782   3.446   1.611 -0.6855  0.9732 -1.6911
 7613TIP3    H244331   2.908   3.382   1.556  0.2409  1.1983  0.1030
 7614TIP3   OH244332   2.521   0.214   5.461  0.5054  0.3465  0.4008
 7614TIP3    H144333   2.584   0.206   5.389  1.1106  0.7793  0.8720
 7614TIP3    H244334   2.543   0.142   5.520  0.1117  0.0876  0.2363
 7615TIP3   OH244335   4.085   4.215   5.519  0.0055 -0.3005 -0.0410
 7615TIP3    H144336   4.164   4.161   5.516 -0.6004 -1.2521  0.3536
 7615TIP3    H244337   4.054   4.206   5.609 -0.6664 -0.1173 -0.2514
 7616TIP3   OH244338   5.638   4.814   4.636 -0.1247  0.4034  0.1391
 7616TIP3    H144339   5.632   4.810   4.731  1.4354  0.7868  0.2732
 7616TIP3    H244340   5.641   4.908   4.616 -0.8290  0.3369 -0.3312
 7617TIP3   OH244341   1.622   4.282   4.883  0.0517 -0.0145  0.4133
 7617TIP3    H144342   1.689   4.337   4.841 -0.4643 -0.7253 -1.4546
 7617TIP3    H244343   1.539   4.326   4.865 -0.0886  0.4422  2.0325
 7618TIP3   OH244344   6.097   6.669   0.378 -0.5140  0.2058 -0.6313
 7618TIP3    H144345   6.047   6.750   0.389  0.0123  0.3677  0.6803
 7618TIP3    H244346   6.031   6.600   0.376 -0.9479  0.6177 -1.4807
 7619TIP3   OH244347   0.851   4.614  16.498 -0.1289 -0.1854  0.4358
 7619TIP3    H144348   0.865   4.626  16.592 -0.9310  0.5430  0.4749
 7619TIP3    H244349   0.905   4.682  16.457  1.5119 -1.5250  0.2632
 7620TIP3   OH244350   2.518   2.166   5.490  0.3354 -0.0494  0.5106
 7620TIP3    H144351   2.538   2.101   5.557  0.7312  0.0354  0.4742
 7620TIP3    H244352   2.470   2.117   5.423  0.9194 -0.3765  0.3270
 7621TIP3   OH244353   1.226   1.841  15.756  0.2469 -0.0957 -0.3248
 7621TIP3    H144354   1.196   1.753  15.734  0.7371 -0.1046 -0.9873
 7621TIP3    H244355   1.163   1.873  15.820  0.1795 -1.0036  0.0729
 7622TIP3   OH244356   6.578   4.396   2.832  0.1721  0.1380  0.3179
 7622TIP3    H144357   6.643   4.409   2.900  0.5225 -1.0597  0.2403
 7622TIP3    H244358   6.519   4.329   2.867  0.3961 -0.5393 -0.5681
 7623TIP3   OH244359   4.223   2.886   2.398 -0.1459  0.4421 -0.2645
 7623TIP3    H144360   4.150   2.846   2.446  0.8008  0.2332  1.0503
 7623TIP3    H244361   4.232   2.973   2.437  0.2601  0.4946 -0.4745
 7624TIP3   OH244362   4.886   0.202   4.066  0.3360  0.2973 -0.2607
 7624TIP3    H144363   4.792   0.190   4.081  0.2900 -1.4161 -1.5310
 7624TIP3    H244364   4.924   0.207   4.153 -0.7752 -0.5609  0.3060
 7625TIP3   OH244365   2.104   6.567   0.181 -0.4630 -0.1512 -0.3765
 7625TIP3    H144366   2.152   6.640   0.222 -2.2971  0.6676  0.4263
 7625TIP3    H244367   2.037   6.544   0.245 -1.3959 -0.9836 -1.6175
 7626TIP3   OH244368   1.814   4.978  15.340 -0.2742  0.4025 -0.1067
 7626TIP3    H144369   1.719   4.976  15.328  0.0607  0.6234 -4.2439
 7626TIP3    H244370   1.843   5.054  15.289  2.2225 -0.7301 -0.5350
 7627TIP3   OH244371   2.761   2.218  15.219  0.1745 -0.1980  0.2199
 7627TIP3    H144372   2.789   2.309  15.204 -0.5617 -0.1700 -1.1051
 7627TIP3    H244373   2.765   2.177  15.133 -1.9749 -0.7072  0.3034
 7628TIP3   OH244374   0.551   5.711  13.137 -0.4878 -0.1787  0.0333
 7628TIP3    H144375   0.521   5.637  13.085  0.8588 -1.2757  0.7351
 7628TIP3    H244376   0.625   5.677  13.187 -1.3652  0.9563  2.2577
 7629TIP3   OH244377   3.421   3.076  13.529 -0.4438  0.2389 -0.0533
 7629TIP3    H144378   3.402   3.012  13.460  1.7880 -0.7901  0.1918
 7629TIP3    H244379   3.512   3.103  13.512 -1.4253  3.8426 -0.4692
 7630TIP3   OH244380   3.360   0.655  17.178  0.1146 -0.3854  0.3238
 7630TIP3    H144381   3.395   0.573  17.215  0.5180 -0.2844  0.1655
 7630TIP3    H244382   3.420   0.723  17.209 -1.0915  0.0787  1.7726
 7631TIP3   OH244383   6.455   1.689  16.432 -0.0132 -0.2562 -0.0912
 7631TIP3    H144384   6.529   1.740  16.464  0.3842 -0.3535 -0.8354
 7631TIP3    H244385   6.424   1.736  16.355 -0.8942 -0.0767  0.3703
 7632TIP3   OH244386   4.335   3.199   1.416  0.7421  0.0078 -0.4065
 7632TIP3    H144387   4.339   3.293   1.435  0.0969 -0.2490  1.1648
 7632TIP3    H244388   4.423   3.177   1.385  1.0423  1.0436 -0.3350
 7633TIP3   OH244389   2.350   0.776   4.318 -0.1421  0.2826  0.1026
 7633TIP3    H144390   2.357   0.852   4.375  0.2031 -0.0422  0.4938
 7633TIP3    H244391   2.284   0.801   4.253  0.2919  1.0791 -0.0360
 7634TIP3   OH244392   0.354   1.018  12.963  0.2719  0.0137 -0.5885
 7634TIP3    H144393   0.289   0.975  12.907 -0.3234  1.7989 -1.3549
 7634TIP3    H244394   0.438   0.999  12.920  0.6841 -3.9378  1.4363
 7635TIP3   OH244395   3.714   5.340   2.119 -1.3527  0.2085  0.6464
 7635TIP3    H144396   3.758   5.301   2.195 -2.5057 -0.1064  1.1673
 7635TIP3    H244397   3.765   5.310   2.044 -0.4735  0.1424  1.2563
 7636TIP3   OH244398   3.246   4.083  12.024 -0.1194  0.8205 -0.1615
 7636TIP3    H144399   3.288   4.048  11.946  1.4417  1.0290  0.5517
 7636TIP3    H244400   3.315   4.133  12.068 -0.8070  0.2606  1.6301
 7637TIP3   OH244401   3.393   6.277  16.467  0.0273  0.3455  0.1696
 7637TIP3    H144402   3.335   6.287  16.391 -1.4351 -0.5142  1.1284
 7637TIP3    H244403   3.356   6.205  16.516  3.6618 -2.3911 -0.6706
 7638TIP3   OH244404   3.052   4.316  11.407  0.0149  0.4922  0.0142
 7638TIP3    H144405   3.051   4.222  11.389 -0.1365  0.9215 -2.6943
 7638TIP3    H244406   3.143   4.336  11.429  0.2457 -0.1278 -0.3683
 7639TIP3   OH244407   2.095   0.944   5.749  0.0367 -0.3653 -0.1442
 7639TIP3    H144408   2.086   0.860   5.704 -0.1668  0.2043 -1.2328
 7639TIP3    H244409   2.185   0.946   5.780  0.9821  0.1495 -2.6262
 7640TIP3   OH244410   2.920   5.880   5.516 -0.4069 -0.4139 -0.5436
 7640TIP3    H144411   2.867   5.802   5.534  1.0284 -1.5673 -1.1205
 7640TIP3    H244412   2.981   5.885   5.590 -1.2769  0.8943  0.1111
 7641TIP3   OH244413   1.059   5.353   3.165  0.1619 -0.2294  0.5651
 7641TIP3    H144414   1.017   5.424   3.212  0.2080  0.6634 -0.6865
 7641TIP3    H244415   1.004   5.338   3.088  0.1873 -1.5079  0.7765
 7642TIP3   OH244416   5.111   0.255   4.631  0.2298 -0.6480  0.4800
 7642TIP3    H144417   5.176   0.293   4.572 -0.5555 -1.7149 -1.1547
 7642TIP3    H244418   5.088   0.326   4.690  1.5485  0.2694 -0.0628
 7643TIP3   OH244419   5.740   5.275   0.793 -0.1737 -0.4363  0.3208
 7643TIP3    H144420   5.651   5.301   0.818 -1.8117 -3.3736 -1.7680
 7643TIP3    H244421   5.785   5.357   0.775 -2.7322  1.1403  0.6146
 7644TIP3   OH244422   0.797   5.042  13.272 -0.7533 -0.1017  0.1959
 7644TIP3    H144423   0.828   5.062  13.361 -0.2671  0.3051 -0.0568
 7644TIP3    H244424   0.866   4.987  13.236 -1.3377 -0.9325  0.3450
 7645TIP3   OH244425   0.456   4.332  11.684 -0.2489  0.2986  0.0487
 7645TIP3    H144426   0.532   4.389  11.674 -0.2717  0.3191 -0.0047
 7645TIP3    H244427   0.431   4.342  11.776  0.3929 -0.4278  0.3197
 7646TIP3   OH244428   0.999   3.042   5.231 -0.1765  0.4659  0.3702
 7646TIP3    H144429   1.017   3.069   5.321  0.5375  0.0018  0.3751
 7646TIP3    H244430   0.950   2.961   5.239  0.3928  0.1147  0.3441
 7647TIP3   OH244431   4.756   3.361   5.721  0.4077  0.3055  0.4057
 7647TIP3    H144432   4.764   3.411   5.640  1.6243 -1.3300 -0.5541
 7647TIP3    H244433   4.674   3.312   5.712 -0.4835  1.6009  1.0917
 7648TIP3   OH244434   6.710   3.711  14.725  0.3462  0.0509  0.0244
 7648TIP3    H144435   6.667   3.654  14.789  1.8001  1.5249  2.5259
 7648TIP3    H244436   6.768   3.652  14.676 -0.8372 -1.1412  0.0030
 7649TIP3   OH244437   5.092   2.400  16.630  0.4360  0.4512  0.5774
 7649TIP3    H144438   5.178   2.423  16.664  1.7938  1.2323 -2.9100
 7649TIP3    H244439   5.038   2.477  16.645  1.8967  2.0077 -1.5684
 7650TIP3   OH244440   3.590   1.473   1.700 -0.5070 -0.1866  0.7898
 7650TIP3    H144441   3.614   1.381   1.712 -1.8389 -0.5527  0.7920
 7650TIP3    H244442   3.543   1.495   1.780 -1.9950 -0.1298 -0.0677
 7651TIP3   OH244443   3.941   1.321   5.392  0.1417  0.4155  0.1889
 7651TIP3    H144444   3.949   1.404   5.438 -2.0680  0.4000  0.7000
 7651TIP3    H244445   3.848   1.312   5.373  0.6283 -0.8396 -1.9855
 7652TIP3   OH244446   5.129   1.517  17.481 -0.1532  0.3173  0.7041
 7652TIP3    H144447   5.218   1.528  17.447  0.2849  0.3833  1.8235
 7652TIP3    H244448   5.097   1.438  17.437 -0.6488  1.8532 -1.9034
 7653TIP3   OH244449   0.857   4.756   4.991  0.4007 -0.2974 -0.3541
 7653TIP3    H144450   0.906   4.827   4.950  0.5795 -1.2456 -1.8675
 7653TIP3    H244451   0.920   4.685   4.998 -0.1312 -0.7525 -0.1474
 7654TIP3   OH244452   4.117   6.692  16.294  0.3679  0.0083  0.1382
 7654TIP3    H144453   4.198   6.738  16.273  0.0043  1.0245  0.8893
 7654TIP3    H244454   4.068   6.691  16.211 -0.2771  2.3893  0.4025
 7655TIP3   OH244455   4.175   0.390  11.777 -0.0075 -0.6776 -0.1940
 7655TIP3    H144456   4.099   0.404  11.720 -0.0688  1.6035  0.3750
 7655TIP3    H244457   4.145   0.416  11.864  1.4886  0.4865  0.0038
 7656TIP3   OH244458   2.593   2.681  14.693  0.0376 -0.0267  0.2947
 7656TIP3    H144459   2.628   2.592  14.704  0.0879  0.2260  2.8717
 7656TIP3    H244460   2.500   2.668  14.672 -0.2589 -0.7548  1.8753
 7657TIP3   OH244461   3.417   2.057   5.476 -0.1828  0.5770 -0.2398
 7657TIP3    H144462   3.359   2.127   5.445 -0.3916  0.9179  0.8447
 7657TIP3    H244463   3.385   1.978   5.434 -2.1726  0.5688  1.1619
 7658TIP3   OH244464   4.133   6.687  17.280 -0.2165 -0.2999 -0.2462
 7658TIP3    H144465   4.193   6.745  17.327  0.0305 -2.5093  2.4015
 7658TIP3    H244466   4.050   6.695  17.327 -0.6253 -0.9024 -0.8464
 7659TIP3   OH244467   0.383   5.331   0.363  0.2819 -0.8139 -0.1022
 7659TIP3    H144468   0.336   5.253   0.390  0.1515 -0.0011  2.2286
 7659TIP3    H244469   0.473   5.316   0.391  0.8001 -1.0935 -1.8121
 7660TIP3   OH244470   6.356   4.145   4.788  0.5269 -0.4933  0.2622
 7660TIP3    H144471   6.272   4.107   4.762  1.4521 -2.2626 -0.3034
 7660TIP3    H244472   6.340   4.182   4.875 -0.6825 -1.3461  0.4178
 7661TIP3   OH244473   1.096   4.983  15.952  0.7509 -0.2147  0.0707
 7661TIP3    H144474   1.102   4.989  15.856 -0.0931 -0.1195  0.0191
 7661TIP3    H244475   1.184   5.004  15.983  1.5384 -2.0863 -0.7595
 7662TIP3   OH244476   4.171   2.331  15.142 -0.4466 -0.1593  0.0344
 7662TIP3    H144477   4.225   2.256  15.118 -0.6171 -0.5686  0.9021
 7662TIP3    H244478   4.097   2.327  15.082  0.2716  0.1864 -0.9113
 7663TIP3   OH244479   2.002   2.589   3.235  0.7160 -0.5496 -0.4513
 7663TIP3    H144480   2.057   2.643   3.177 -0.2959  0.9883 -0.0425
 7663TIP3    H244481   2.013   2.628   3.322 -2.5913  1.2433 -0.6729
 7664TIP3   OH244482   6.405   5.441   1.229 -0.3723  0.4541 -0.4991
 7664TIP3    H144483   6.351   5.500   1.282 -0.2700  0.1881 -0.1013
 7664TIP3    H244484   6.349   5.420   1.154 -0.8298  0.1887 -0.0956
 7665TIP3   OH244485   3.288   6.633   5.392  0.2566  0.2449  0.6755
 7665TIP3    H144486   3.296   6.582   5.473 -1.4531 -1.6988 -0.2990
 7665TIP3    H244487   3.359   6.600   5.337 -0.1220 -0.2423  0.4762
 7666TIP3   OH244488   5.114   2.800  15.593 -0.2858  0.2340  0.2457
 7666TIP3    H144489   5.200   2.770  15.623 -1.2888 -1.1459  1.9634
 7666TIP3    H244490   5.115   2.786  15.498  2.4150  3.1169 -0.2943
 7667TIP3   OH244491   2.560   2.386  15.013 -0.3922 -0.1928 -0.3344
 7667TIP3    H144492   2.623   2.454  15.038 -1.4602  0.6122  0.2732
 7667TIP3    H244493   2.495   2.387  15.083 -0.3457 -1.9946 -0.2244
 7668TIP3   OH244494   5.665   0.120  14.578  0.2117  0.2338 -0.0435
 7668TIP3    H144495   5.586   0.127  14.632  0.2840 -0.3460  0.1514
 7668TIP3    H244496   5.652   0.184  14.508  0.1618  1.0645  0.7110
 7669TIP3   OH244497   6.385   2.126   4.882 -0.4976 -0.2227 -0.1879
 7669TIP3    H144498   6.417   2.074   4.955 -1.2808 -2.1616 -1.1279
 7669TIP3    H244499   6.415   2.079   4.804 -1.2144  0.7662 -1.1064
 7670TIP3   OH244500   2.934   0.817  16.472  0.4105  0.2078 -0.2883
 7670TIP3    H144501   3.015   0.859  16.445  0.9018  0.0317  0.8340
 7670TIP3    H244502   2.882   0.809  16.392  0.7324  1.9824 -0.7154
 7671TIP3   OH244503   3.138   5.980  16.340 -0.3058 -0.4978  0.2538
 7671TIP3    H144504   3.209   6.015  16.393  0.5627 -1.3633 -0.3083
 7671TIP3    H244505   3.166   5.891  16.318 -1.0642 -0.4775 -0.8671
 7672TIP3   OH244506   0.556   2.666   4.515 -0.0839 -0.2269  0.4752
 7672TIP3    H144507   0.575   2.745   4.565  1.4088 -0.5586  0.4860
 7672TIP3    H244508   0.614   2.600   4.552 -0.2471 -0.9460 -0.5109
 7673TIP3   OH244509   3.534   0.570  16.640 -0.2696 -0.5483 -0.4044
 7673TIP3    H144510   3.442   0.590  16.658 -0.6786 -1.7658 -0.9992
 7673TIP3    H244511   3.530   0.497  16.578  1.0983 -0.1797 -0.9527
 7674TIP3   OH244512   1.323   6.586   5.830  0.1946  0.0712 -0.0451
 7674TIP3    H144513   1.404   6.575   5.780 -0.8526 -0.1465 -1.8159
 7674TIP3    H244514   1.311   6.681   5.835 -0.5615  0.1235 -1.8384
 7675TIP3   OH244515   6.261   0.141  14.497 -0.3740  0.1637 -0.4446
 7675TIP3    H144516   6.350   0.169  14.518 -0.0547 -0.6867 -0.6115
 7675TIP3    H244517   6.272   0.085  14.420 -0.7433 -1.8656  0.9113
 7676TIP3   OH244518   4.685   3.722  13.979 -0.6430 -0.6642  0.4132
 7676TIP3    H144519   4.699   3.720  14.073 -3.7819 -0.1290  0.9973
 7676TIP3    H244520   4.590   3.730  13.968 -0.3216  0.7077 -2.7732
 7677TIP3   OH244521   1.378   4.698   3.296  0.2007 -0.0002  0.2623
 7677TIP3    H144522   1.432   4.627   3.262  1.3252  1.4611 -1.1368
 7677TIP3    H244523   1.305   4.705   3.235 -1.2860 -1.4677  1.7340
 7678TIP3   OH244524   3.811   5.615   0.729 -0.5741 -0.6726 -0.3840
 7678TIP3    H144525   3.767   5.539   0.693 -0.4733 -1.5163  1.1918
 7678TIP3    H244526   3.747   5.654   0.788 -0.6018  0.4471 -1.1251
 7679TIP3   OH244527   5.672   3.478   4.064  0.5992  0.1060 -0.7431
 7679TIP3    H144528   5.669   3.431   4.147 -1.9559  0.9746 -0.2514
 7679TIP3    H244529   5.700   3.567   4.088 -0.2443  0.3871 -0.7764
 7680TIP3   OH244530   1.639   1.557   3.452  0.1967 -0.0737 -0.2955
 7680TIP3    H144531   1.546   1.579   3.454 -0.1960 -1.6012  1.7673
 7680TIP3    H244532   1.679   1.629   3.404 -1.7233  2.0794  1.0992
 7681TIP3   OH244533   1.443   4.826  15.024 -0.0165 -0.4172  0.3665
 7681TIP3    H144534   1.449   4.915  14.988  1.3553  0.7380  3.0725
 7681TIP3    H244535   1.508   4.776  14.976  0.1318  0.4173 -0.3216
 7682TIP3   OH244536   0.701   0.434  11.405  0.7544 -0.4164 -0.7082
 7682TIP3    H144537   0.697   0.340  11.384  1.1105 -0.7774  0.7243
 7682TIP3    H244538   0.611   0.458  11.423  0.7912 -0.7292 -0.0964
 7683TIP3   OH244539   6.428   5.919   5.835  0.0108 -0.8264  0.2375
 7683TIP3    H144540   6.425   5.871   5.917  1.0114 -0.9795  0.1917
 7683TIP3    H244541   6.513   5.963   5.835 -1.2647  1.9060  0.8164
 7684TIP3   OH244542   4.407   2.425   5.240 -0.1203 -0.1643  0.0432
 7684TIP3    H144543   4.331   2.424   5.182 -0.0458  0.8618 -0.0831
 7684TIP3    H244544   4.383   2.366   5.312 -0.5112 -0.8565 -0.6335
 7685TIP3   OH244545   6.758   1.408   4.251 -0.8323 -0.7385  0.4409
 7685TIP3    H144546   6.749   1.384   4.344 -0.3396  1.4002  1.0979
 7685TIP3    H244547   6.680   1.459   4.232 -0.0550  0.4034  0.2290
 7686TIP3   OH244548   6.408   6.167  15.274  0.2008 -0.0093 -0.2014
 7686TIP3    H144549   6.458   6.111  15.215 -0.1024 -2.1977  1.4984
 7686TIP3    H244550   6.325   6.182  15.228  0.9235  0.4602 -1.3894
 7687TIP3   OH244551   3.655   3.486   5.626  0.1395 -0.9729 -0.5012
 7687TIP3    H144552   3.650   3.539   5.547  1.6265  0.9295  0.5934
 7687TIP3    H244553   3.704   3.540   5.688 -1.8187 -1.9539  2.0688
 7688TIP3   OH244554   4.189   0.661   1.974 -0.1068 -0.2938 -0.7275
 7688TIP3    H144555   4.278   0.665   1.939 -0.6023  0.7657 -1.9410
 7688TIP3    H244556   4.157   0.574   1.949 -0.2081  0.1909 -2.3522
 7689TIP3   OH244557   0.455   3.632   0.923 -0.0819  0.4693 -0.1655
 7689TIP3    H144558   0.487   3.638   1.013 -0.8364  1.5988  0.0510
 7689TIP3    H244559   0.385   3.698   0.918 -0.2659  0.2014 -1.4878
 7690TIP3   OH244560   4.522   5.652   0.426 -0.5500  0.6138 -0.2700
 7690TIP3    H144561   4.564   5.733   0.455 -0.3607  0.4667 -0.1315
 7690TIP3    H244562   4.460   5.631   0.496 -0.0802  0.2489  0.0442
 7691TIP3   OH244563   5.495   4.024  16.330  0.9227 -0.1489  0.1867
 7691TIP3    H144564   5.519   3.990  16.416  0.5412  1.0668  0.8041
 7691TIP3    H244565   5.541   3.968  16.268  0.3851 -1.6951  1.1369
 7692TIP3   OH244566   4.714   6.770  15.415  1.0836 -0.0144  0.1472
 7692TIP3    H144567   4.738   6.840  15.476  1.5439  0.2815 -0.3619
 7692TIP3    H244568   4.642   6.807  15.364  0.8058 -0.2031  0.3980
 7693TIP3   OH244569   3.300   0.325  11.250 -0.1740 -0.1444  0.0546
 7693TIP3    H144570   3.388   0.317  11.215 -0.6368 -0.2378 -1.1100
 7693TIP3    H244571   3.269   0.235  11.259 -0.8039 -0.0818 -1.2659
 7694TIP3   OH244572   5.245   2.632  13.334  0.4734 -0.3005 -0.0057
 7694TIP3    H144573   5.306   2.591  13.395  0.5216  0.5673  0.5560
 7694TIP3    H244574   5.211   2.708  13.382  2.5758  2.0742 -1.9970
 7695TIP3   OH244575   2.455   5.394  12.509  0.2798 -0.6174  0.2471
 7695TIP3    H144576   2.364   5.382  12.536  0.3659 -0.4398  0.6311
 7695TIP3    H244577   2.467   5.332  12.437  0.1922 -1.4928  0.9606
 7696TIP3   OH244578   2.343   0.157  15.791  0.0252  0.1592 -0.3233
 7696TIP3    H144579   2.369   0.131  15.879 -0.3633  1.4273  0.1769
 7696TIP3    H244580   2.415   0.211  15.759 -0.4091  0.7539 -0.2957
 7697TIP3   OH244581   2.226   4.213  12.550  0.4487  0.5744 -0.1637
 7697TIP3    H144582   2.191   4.150  12.487 -1.2572  0.8446  0.4541
 7697TIP3    H244583   2.218   4.170  12.635  0.6326  1.0595  0.1053
 7698TIP3   OH244584   6.649   3.645   3.546 -0.4778  0.4447 -0.1686
 7698TIP3    H144585   6.579   3.581   3.557 -0.7211  0.8830  0.9587
 7698TIP3    H244586   6.730   3.594   3.553 -0.6684  0.0711 -0.6008
 7699TIP3   OH244587   2.446   4.899  12.917  0.2865  0.4967  0.2633
 7699TIP3    H144588   2.493   4.979  12.892 -0.8991  1.3815  0.7844
 7699TIP3    H244589   2.478   4.878  13.005 -1.0384  1.7259  1.0755
 7700TIP3   OH244590   2.490   6.694   4.518  0.6523  0.3440  0.0898
 7700TIP3    H144591   2.458   6.720   4.431 -0.2143  0.9208  0.5682
 7700TIP3    H244592   2.552   6.623   4.500  1.2125  1.0963 -1.0664
 7701TIP3   OH244593   4.077   0.536  14.892  0.1697  0.0189 -0.7942
 7701TIP3    H144594   4.115   0.464  14.943 -0.4425 -1.3864 -2.2080
 7701TIP3    H244595   4.147   0.601  14.886  0.0132  0.6282  2.4097
 7702TIP3   OH244596   0.889   3.102  16.054 -0.5377  0.5071 -0.7277
 7702TIP3    H144597   0.812   3.157  16.043 -1.0824 -0.0911 -0.0361
 7702TIP3    H244598   0.918   3.083  15.965 -1.4593  0.3793 -1.0101
 7703TIP3   OH244599   0.887   6.011  13.689  0.1909 -0.0074 -0.2845
 7703TIP3    H144600   0.919   5.955  13.760 -1.6270  0.9814  1.4435
 7703TIP3    H244601   0.881   5.953  13.613 -1.0212 -2.0696  1.2644
 7704TIP3   OH244602   1.254   6.484  14.113  0.4553  0.2888  0.8988
 7704TIP3    H144603   1.242   6.570  14.153 -1.0048 -0.9889  3.4646
 7704TIP3    H244604   1.186   6.479  14.046  0.3608  0.9865  0.9305
 7705TIP3   OH244605   3.051   3.637   6.606 -0.1177 -0.6670 -0.0793
 7705TIP3    H144606   3.009   3.571   6.550 -0.1452 -0.2688 -0.5396
 7705TIP3    H244607   3.016   3.720   6.574  1.1855 -0.3084 -0.6333
 7706TIP3   OH244608   5.946   1.957   2.282 -0.0946 -0.0460  0.0178
 7706TIP3    H144609   5.926   2.000   2.365  0.8716 -0.6705  0.6045
 7706TIP3    H244610   5.864   1.918   2.254 -0.5404  0.5827  0.4360
 7707TIP3   OH244611   4.735   0.526  12.105 -0.2995  0.0461  0.0483
 7707TIP3    H144612   4.736   0.544  12.011  3.3009 -1.1996 -0.2791
 7707TIP3    H244613   4.768   0.606  12.145 -1.5841  0.4809  0.2980
 7708TIP3   OH244614   3.314   0.023   5.946  0.2509  0.7098  0.0219
 7708TIP3    H144615   3.388  -0.011   5.996  0.6974  2.2494  0.4507
 7708TIP3    H244616   3.237  -0.014   5.989  0.7083 -2.1728 -1.3508
 7709TIP3   OH244617   1.917   5.423  15.748 -0.1964 -0.2507 -0.0210
 7709TIP3    H144618   1.930   5.409  15.842 -0.4077 -0.2794  0.0048
 7709TIP3    H244619   1.997   5.392  15.708 -1.1041 -2.7200 -0.0858
 7710TIP3   OH244620   0.589   2.786   5.695 -0.2232  0.4129  0.2757
 7710TIP3    H144621   0.614   2.734   5.619  0.0956 -0.0341  0.6755
 7710TIP3    H244622   0.497   2.806   5.682 -0.5116 -0.7438  0.3769
 7711TIP3   OH244623   3.071   4.618  17.415 -0.0911 -0.3799  0.5587
 7711TIP3    H144624   3.017   4.626  17.337  0.8164 -0.1425 -0.0629
 7711TIP3    H244625   3.016   4.572  17.478 -1.1135  0.1187  0.0534
 7712TIP3   OH244626   1.919   5.388   4.462 -0.2306  0.0329  0.1881
 7712TIP3    H144627   1.946   5.390   4.370  2.6735 -0.1567  0.9347
 7712TIP3    H244628   1.887   5.477   4.479  1.7819  0.9249 -0.3642
 7713TIP3   OH244629   4.494   6.401   4.397 -0.4072  0.0442 -0.1022
 7713TIP3    H144630   4.489   6.460   4.321  0.0881  1.3474  0.8346
 7713TIP3    H244631   4.409   6.413   4.441  0.1431  1.0521  0.7553
 7714TIP3   OH244632   2.261   0.903  15.534 -0.0289  0.5480 -0.2148
 7714TIP3    H144633   2.201   0.873  15.603  0.1477  1.4629  0.3488
 7714TIP3    H244634   2.207   0.902  15.455  0.4884 -3.2101 -0.6986
 7715TIP3   OH244635   2.666   1.499   4.631  0.5991  0.2353  0.5840
 7715TIP3    H144636   2.645   1.548   4.710 -0.4515  1.3636 -0.3551
 7715TIP3    H244637   2.589   1.510   4.575  1.2606 -0.6556 -0.5420
 7716TIP3   OH244638   1.519   0.234   6.149  0.0997  0.0675  0.0116
 7716TIP3    H144639   1.451   0.177   6.186 -0.5137  0.7371 -0.0448
 7716TIP3    H244640   1.482   0.322   6.157  0.5206  0.3446 -0.9655
 7717TIP3   OH244641   0.207   6.555   3.446 -0.2906 -0.1334 -0.6103
 7717TIP3    H144642   0.275   6.589   3.504 -1.1991 -0.7292  0.8649
 7717TIP3    H244643   0.184   6.629   3.390  0.1228  0.6783  0.2704
 7718TIP3   OH244644   1.145   0.835  15.494 -0.2468 -0.1012  0.0254
 7718TIP3    H144645   1.097   0.753  15.492 -0.8770  0.2779 -1.4342
 7718TIP3    H244646   1.106   0.889  15.425 -0.2182  1.6426  1.2865
 7719TIP3   OH244647   1.752   5.724   0.782  0.2526  0.5680 -0.2279
 7719TIP3    H144648   1.830   5.699   0.733  0.4547 -0.0913  0.4114
 7719TIP3    H244649   1.679   5.709   0.721  0.5105 -0.1245 -0.3736
 7720TIP3   OH244650   0.686   1.948   4.395  0.0358 -0.5255 -0.8545
 7720TIP3    H144651   0.611   1.963   4.453 -0.7951  0.0629 -2.0417
 7720TIP3    H244652   0.762   1.950   4.454 -0.6712  1.1616  0.0912
 7721TIP3   OH244653   4.282   3.240   0.382  0.3713 -0.3151  0.6985
 7721TIP3    H144654   4.288   3.282   0.296 -2.1769 -0.5653  0.3250
 7721TIP3    H244655   4.197   3.197   0.382  1.9609 -3.8602  1.8339
 7722TIP3   OH244656   2.900   2.967  15.646  0.2582  0.0283 -0.5678
 7722TIP3    H144657   2.819   2.970  15.594  0.4855  0.2202 -0.9133
 7722TIP3    H244658   2.922   3.059  15.661  0.9115 -0.0163 -1.2527
 7723TIP3   OH244659   0.170   5.846   2.850  0.4724 -0.1345 -0.0647
 7723TIP3    H144660   0.091   5.871   2.801  0.5261 -1.2062 -0.7599
 7723TIP3    H244661   0.214   5.783   2.792  1.7337  0.2935  0.4047
 7724TIP3   OH244662   5.090   2.623   1.626  0.0088 -0.1257 -0.1503
 7724TIP3    H144663   5.136   2.699   1.590 -0.7365  0.0368 -0.7917
 7724TIP3    H244664   4.999   2.650   1.631 -0.0771 -0.5550  0.8050
 7725TIP3   OH244665   5.895   2.799  14.932  0.1678 -0.2650  0.3357
 7725TIP3    H144666   5.807   2.785  14.897 -0.5513 -1.2534  2.4055
 7725TIP3    H244667   5.953   2.786  14.856 -1.4439  0.4024 -1.0570
 7726TIP3   OH244668   3.829   3.779  13.930  0.3413 -0.1190 -0.0804
 7726TIP3    H144669   3.765   3.849  13.921  0.5025 -0.0184 -0.4792
 7726TIP3    H244670   3.806   3.718  13.859 -1.4363 -1.7923  1.8055
 7727TIP3   OH244671   1.743   6.268   1.539  0.7129 -0.7121  0.1872
 7727TIP3    H144672   1.711   6.254   1.450 -1.5138  2.6375  0.2737
 7727TIP3    H244673   1.835   6.293   1.528  0.9226 -1.9170 -0.9861
 7728TIP3   OH244674   5.041   2.359   1.577 -0.2731  0.6525  0.4388
 7728TIP3    H144675   5.078   2.447   1.579 -1.5836  1.2522 -0.5810
 7728TIP3    H244676   4.947   2.371   1.590 -0.6567 -0.4467 -1.0490
 7729TIP3   OH244677   5.700   3.186   1.589  0.1193 -0.4365  0.3438
 7729TIP3    H144678   5.677   3.268   1.632  0.3377  0.0716 -0.5094
 7729TIP3    H244679   5.675   3.119   1.653 -1.4291  0.2038  0.4580
 7730TIP3   OH244680   6.729   4.751   4.809 -0.1536  0.1107  0.3139
 7730TIP3    H144681   6.648   4.724   4.851  0.2409 -2.3280 -0.3509
 7730TIP3    H244682   6.795   4.744   4.878 -0.2813  1.0475  0.5595
 7731TIP3   OH244683   1.518   0.199  11.910 -0.4807 -0.0856 -0.3843
 7731TIP3    H144684   1.553   0.117  11.944  1.1517  1.6515  2.6282
 7731TIP3    H244685   1.490   0.247  11.988  0.6937  3.0760 -1.7264
 7732TIP3   OH244686   5.699   0.053   4.679 -0.1656 -0.3021  0.3037
 7732TIP3    H144687   5.734   0.022   4.763 -0.1295  0.1514  0.4569
 7732TIP3    H244688   5.777   0.075   4.628 -0.2210  1.1120  0.7966
 7733TIP3   OH244689   3.803   3.258   4.398 -0.1272 -0.0607 -0.2634
 7733TIP3    H144690   3.783   3.312   4.322 -2.3402  2.0464  1.6231
 7733TIP3    H244691   3.896   3.270   4.413 -0.1015  1.3107 -1.3594
 7734TIP3   OH244692   0.874   1.101  13.774 -0.3166  0.4070 -0.4749
 7734TIP3    H144693   0.818   1.175  13.750 -1.5344  0.3515  1.9599
 7734TIP3    H244694   0.819   1.024  13.762 -0.6383  0.3047  1.3709
 7735TIP3   OH244695   4.954   3.328   6.519 -0.2003  0.0224  0.2774
 7735TIP3    H144696   5.018   3.324   6.449  1.0574 -2.5074  1.4117
 7735TIP3    H244697   4.890   3.260   6.497 -1.5383  1.2981  0.0738
 7736TIP3   OH244698   5.628   0.539   6.250 -0.0460  0.2615 -0.2584
 7736TIP3    H144699   5.652   0.514   6.339  0.1534  1.7440  0.1293
 7736TIP3    H244700   5.543   0.583   6.259  0.3056  1.0513 -0.6882
 7737TIP3   OH244701   0.258   5.980  12.366  0.2493  0.4703  0.0759
 7737TIP3    H144702   0.264   6.072  12.341 -2.2829  1.3998  2.4453
 7737TIP3    H244703   0.165   5.959  12.361  0.7013 -1.7992  0.1835
 7738TIP3   OH244704   5.650   5.904  16.422  0.3591 -0.3880  0.4535
 7738TIP3    H144705   5.739   5.877  16.400  0.8721  3.4705 -3.4694
 7738TIP3    H244706   5.600   5.894  16.341 -1.8895  0.6538  1.6106
 7739TIP3   OH244707   3.742   6.153   6.248 -0.0489  0.1147  0.6123
 7739TIP3    H144708   3.707   6.230   6.293  0.1660  1.6431 -1.6787
 7739TIP3    H244709   3.836   6.157   6.264  0.0422  0.7237 -0.0221
 7740TIP3   OH244710   5.509   4.342  16.253 -0.0134  0.5530  1.3584
 7740TIP3    H144711   5.425   4.376  16.222  1.4202  2.1818 -1.1807
 7740TIP3    H244712   5.533   4.399  16.326 -0.4259  1.0496  1.1148
 7741TIP3   OH244713   4.507   4.135  11.337 -0.1209  0.2145 -0.7052
 7741TIP3    H144714   4.543   4.150  11.425 -1.0000 -0.2275 -0.2577
 7741TIP3    H244715   4.530   4.214  11.288  1.0732  0.1358 -0.3187
 7742TIP3   OH244716   3.415   2.244  14.048  0.4404 -0.1838  0.4148
 7742TIP3    H144717   3.351   2.173  14.042 -0.3956  0.4284  1.6944
 7742TIP3    H244718   3.491   2.203  14.091  1.3231 -1.1328 -1.8679
 7743TIP3   OH244719   0.107   3.509  14.788  0.1328  0.4178 -0.2180
 7743TIP3    H144720   0.137   3.576  14.849  0.4777  0.4161 -0.3853
 7743TIP3    H244721   0.059   3.447  14.842 -1.2433  1.4232 -0.2206
 7744TIP3   OH244722   6.596   1.006   1.534 -0.1655 -0.2026 -0.4709
 7744TIP3    H144723   6.553   1.018   1.618  0.2772 -1.0738 -0.0973
 7744TIP3    H244724   6.602   1.094   1.497  0.4843  0.3342  0.8387
 7745TIP3   OH244725   5.512   2.196   2.330 -0.3949  0.6345 -0.1990
 7745TIP3    H144726   5.560   2.260   2.276 -0.0493  0.1481 -0.4758
 7745TIP3    H244727   5.528   2.225   2.420  1.4570 -0.1940 -0.2161
 7746TIP3   OH244728   0.031   5.751  16.878 -0.3286  0.6458  0.1335
 7746TIP3    H144729   0.060   5.660  16.871 -1.7635  0.1124  0.7423
 7746TIP3    H244730   0.096   5.793  16.933  0.6955  0.1564 -0.6728
 7747TIP3   OH244731   5.799   5.660   2.630 -0.3841 -0.6208  0.2054
 7747TIP3    H144732   5.861   5.595   2.664  1.4080  1.0253  0.2199
 7747TIP3    H244733   5.813   5.660   2.536 -1.4377 -1.2655  0.0319
 7748TIP3   OH244734   0.996   1.693   5.629 -0.0290 -0.4030  0.3607
 7748TIP3    H144735   1.016   1.697   5.535 -2.4215 -1.0845 -0.2371
 7748TIP3    H244736   1.010   1.783   5.660  1.1292 -0.2419 -0.5451
 7749TIP3   OH244737   2.801   6.616  14.210 -0.8555 -0.2674 -0.4097
 7749TIP3    H144738   2.829   6.640  14.298  0.1723  1.1924 -1.0912
 7749TIP3    H244739   2.865   6.657  14.152 -0.6901 -2.3144 -1.8229
 7750TIP3   OH244740   2.266   5.912   2.751 -0.3114 -0.0462 -0.5768
 7750TIP3    H144741   2.300   5.851   2.817  1.8723  0.9583 -0.7009
 7750TIP3    H244742   2.218   5.978   2.802  0.4962  0.1610 -0.0687
 7751TIP3   OH244743   1.157   2.686  12.214  0.2496  0.1053  0.1945
 7751TIP3    H144744   1.203   2.769  12.225 -2.1229  1.3382  1.7295
 7751TIP3    H244745   1.084   2.706  12.156 -0.1890 -0.9829  0.3412
 7752TIP3   OH244746   0.919   6.107  16.376 -0.2524 -0.1848  0.3499
 7752TIP3    H144747   0.913   6.195  16.413  0.4827 -0.2673  0.6693
 7752TIP3    H244748   1.005   6.103  16.335 -1.0498 -0.0848 -1.4150
 7753TIP3   OH244749   5.026   4.985  16.888 -0.1249 -0.0290  0.2668
 7753TIP3    H144750   5.107   5.026  16.858 -0.8462  0.9392 -0.4424
 7753TIP3    H244751   5.024   4.900  16.844 -0.5800  0.8775 -1.6081
 7754TIP3   OH244752   6.117   3.269   4.121  0.2318  0.5123 -0.0050
 7754TIP3    H144753   6.145   3.235   4.206  1.1982 -1.0601 -0.8963
 7754TIP3    H244754   6.165   3.351   4.111 -1.1317  1.5768  1.6298
 7755TIP3   OH244755   6.201   2.565   1.862  0.4248 -0.1371 -0.6115
 7755TIP3    H144756   6.175   2.484   1.820  2.8168 -0.9339 -0.6942
 7755TIP3    H244757   6.211   2.543   1.954  1.5851 -0.0995 -0.7133
 7756TIP3   OH244758   3.745   2.136   6.290 -0.4092  0.7013  0.2444
 7756TIP3    H144759   3.778   2.159   6.203 -0.8616  0.3683 -0.0197
 7756TIP3    H244760   3.778   2.205   6.347  1.3456  0.0079  0.1339
 7757TIP3   OH244761   0.988   4.369   4.870  0.1130 -0.4444 -1.0075
 7757TIP3    H144762   1.015   4.378   4.779 -0.4005 -0.8639 -1.2073
 7757TIP3    H244763   1.069   4.350   4.918  0.2830 -0.9549 -1.4830
 7758TIP3   OH244764   0.489   6.775   1.386 -0.7636  0.0012 -0.6083
 7758TIP3    H144765   0.442   6.847   1.344 -1.4467  0.5414  0.9863
 7758TIP3    H244766   0.423   6.707   1.400 -1.0922  0.6585  1.4016
 7759TIP3   OH244767   1.364   3.671   2.301  0.2323  0.3922  0.1311
 7759TIP3    H144768   1.384   3.668   2.208 -2.7791  1.7148 -0.6982
 7759TIP3    H244769   1.288   3.729   2.307 -0.8677 -1.1228  3.1839
 7760TIP3   OH244770   0.373   6.217  12.232 -0.0073 -0.1699 -0.1767
 7760TIP3    H144771   0.443   6.233  12.295 -0.2429  0.2205 -0.0057
 7760TIP3    H244772   0.294   6.252  12.274 -0.1865 -0.0056 -0.6358
 7761TIP3   OH244773   5.174   3.023   5.327 -0.2859 -0.3551  0.0147
 7761TIP3    H144774   5.142   2.957   5.266 -1.4427  1.2518 -1.2234
 7761TIP3    H244775   5.209   2.974   5.401 -1.8250 -2.3207 -0.4972
 7762TIP3   OH244776   4.741   1.600  16.260 -0.4111 -0.1978 -0.7247
 7762TIP3    H144777   4.703   1.583  16.346 -2.0305 -0.3279 -1.4130
 7762TIP3    H244778   4.671   1.644  16.212  0.8159  0.8108 -1.6563
 7763TIP3   OH244779   0.322   6.381   3.263  0.1552  0.1963 -0.2544
 7763TIP3    H144780   0.268   6.451   3.302  0.8157 -0.2208  1.4543
 7763TIP3    H244781   0.258   6.325   3.219 -0.6567  0.5512  0.4237
 7764TIP3   OH244782   2.271   2.469   6.181 -1.0188  0.1415 -0.9447
 7764TIP3    H144783   2.287   2.514   6.264  1.3950 -1.5792 -0.3846
 7764TIP3    H244784   2.181   2.436   6.188 -1.0013  0.3938  0.7717
 7765TIP3   OH244785   5.256   3.644  15.808  0.0786  0.3361  0.2818
 7765TIP3    H144786   5.162   3.633  15.814  0.2086  0.1681  2.8699
 7765TIP3    H244787   5.274   3.725  15.855  1.2529  0.2399  0.0308
 7766TIP3   OH244788   5.818   6.756   4.163  0.4616  0.2528  0.1556
 7766TIP3    H144789   5.910   6.754   4.138  1.0344  0.3505  2.1204
 7766TIP3    H244790   5.771   6.766   4.080  2.1323 -0.9707 -1.0068
 7767TIP3   OH244791   1.183   3.839   6.438 -0.2947  0.3327 -0.3450
 7767TIP3    H144792   1.116   3.802   6.380 -1.5898  1.9045  0.0649
 7767TIP3    H244793   1.168   3.933   6.435  1.4598  0.6700  0.3456
 7768TIP3   OH244794   1.035   4.557  13.868 -0.1461  0.5945 -0.1910
 7768TIP3    H144795   1.047   4.465  13.841  1.6605  0.7209  0.0410
 7768TIP3    H244796   1.119   4.598  13.847 -0.0323  1.6107  1.9954
 7769TIP3   OH244797   0.697   4.583   1.034  0.2156  0.0394 -0.1330
 7769TIP3    H144798   0.723   4.580   0.942  0.7936 -1.7807  0.0619
 7769TIP3    H244799   0.704   4.676   1.057  0.9557  0.4012 -1.6732
 7770TIP3   OH244800   1.278   0.017   2.634  0.6428  0.2014  0.1003
 7770TIP3    H144801   1.254   0.002   2.543 -1.7201  0.5735  0.6102
 7770TIP3    H244802   1.313   0.106   2.635  1.3567 -0.0638 -0.5477
 7771TIP3   OH244803   2.329   1.397   2.685 -0.6777  0.1756 -0.6047
 7771TIP3    H144804   2.250   1.353   2.653 -0.3983 -1.4955  0.8299
 7771TIP3    H244805   2.300   1.448   2.760 -0.7649  1.4704 -1.4859
 7772TIP3   OH244806   2.048   0.963  14.033 -0.0214 -0.1574 -0.2660
 7772TIP3    H144807   2.046   0.891  14.097  1.4753 -1.5556 -1.6645
 7772TIP3    H244808   1.971   0.949  13.979 -0.4828  0.1351  0.3072
 7773TIP3   OH244809   2.054   5.043  15.835  0.2838 -0.1478 -0.0584
 7773TIP3    H144810   2.101   5.061  15.754  0.4310 -1.0098 -0.1736
 7773TIP3    H244811   1.973   4.999  15.808 -0.9238  1.8398  0.0902
 7774TIP3   OH244812   6.697   6.085  13.069  0.1897  0.1769 -0.2599
 7774TIP3    H144813   6.660   6.171  13.090  0.9272  0.1899  1.1069
 7774TIP3    H244814   6.788   6.103  13.046  0.5312 -0.2725  0.6668
 7775TIP3   OH244815   6.516   2.699   2.714 -0.1741  0.0681 -0.3136
 7775TIP3    H144816   6.589   2.686   2.775  0.0800  1.0708 -0.3731
 7775TIP3    H244817   6.527   2.790   2.684 -1.3339  0.1636 -0.4753
 7776TIP3   OH244818   0.602   1.635   0.079  0.1024 -0.1575  0.0653
 7776TIP3    H144819   0.638   1.557   0.122 -1.8812 -0.5024  1.2291
 7776TIP3    H244820   0.519   1.650   0.124  0.1051  2.2217 -0.6329
 7777TIP3   OH244821   3.701   4.920  10.936  0.2709 -0.4551  0.0991
 7777TIP3    H144822   3.765   4.849  10.939  2.3322  1.2322 -1.7970
 7777TIP3    H244823   3.723   4.975  11.011  1.3348  0.3127 -0.7509
 7778TIP3   OH244824   3.370   6.153   1.025 -0.1810 -0.4812  0.5641
 7778TIP3    H144825   3.307   6.187   1.089  0.1417  0.4094  0.4215
 7778TIP3    H244826   3.455   6.188   1.053 -0.0080 -0.2270 -0.2417
 7779TIP3   OH244827   2.482   6.335  10.681 -0.6643 -0.4229  0.4821
 7779TIP3    H144828   2.560   6.311  10.731 -1.7836 -2.4900  1.3854
 7779TIP3    H244829   2.484   6.278  10.604 -1.5080 -0.8345  0.7540
 7780TIP3   OH244830   1.726   5.823   5.421  0.0036 -0.2798  0.4420
 7780TIP3    H144831   1.651   5.778   5.382  0.9619 -1.2280 -0.3650
 7780TIP3    H244832   1.698   5.843   5.511 -1.6404  0.4683 -0.1811
 7781TIP3   OH244833   4.239   1.196  11.424 -0.2190  0.0690 -0.4228
 7781TIP3    H144834   4.159   1.151  11.397 -0.5585 -1.1453  2.2807
 7781TIP3    H244835   4.208   1.262  11.486  0.7483  0.7208 -0.6238
 7782TIP3   OH244836   5.002   6.128   3.125  0.9843 -1.0239 -0.2882
 7782TIP3    H144837   4.976   6.072   3.052  2.3626 -1.9327 -0.1369
 7782TIP3    H244838   4.975   6.079   3.203  1.5400 -1.1490 -0.1684
 7783TIP3   OH244839   0.135   6.545   4.066 -0.0857  0.2133  0.0068
 7783TIP3    H144840   0.102   6.545   3.976 -4.3444 -1.3961  1.3325
 7783TIP3    H244841   0.105   6.629   4.102 -0.0636  0.0348  0.4420
 7784TIP3   OH244842   3.203   6.412  13.106 -0.2159 -0.2205 -0.4378
 7784TIP3    H144843   3.243   6.489  13.145 -0.0999  0.1961 -1.3570
 7784TIP3    H244844   3.186   6.437  13.015 -0.2909 -1.2332 -0.7132
 7785TIP3   OH244845   2.458   4.343  15.310  0.0721 -0.5937  0.2023
 7785TIP3    H144846   2.530   4.396  15.277  0.2537 -1.4132 -0.7651
 7785TIP3    H244847   2.417   4.397  15.378  1.5734 -0.1139  0.7531
 7786TIP3   OH244848   5.326   3.329  11.129  0.0928 -0.0821  0.4870
 7786TIP3    H144849   5.418   3.328  11.104 -0.1072 -1.0269 -0.2917
 7786TIP3    H244850   5.322   3.385  11.206  0.9974  1.6286 -0.6495
 7787TIP3   OH244851   2.223   2.051   2.395  0.5320 -0.6340 -0.0523
 7787TIP3    H144852   2.240   2.142   2.373  0.0363 -0.9853 -2.0841
 7787TIP3    H244853   2.177   2.055   2.479 -0.6732  1.0849 -0.7371
 7788TIP3   OH244854   6.678   2.679  13.891  0.1485 -0.6945 -0.4177
 7788TIP3    H144855   6.725   2.731  13.957 -0.4656 -1.6499  0.8026
 7788TIP3    H244856   6.616   2.740  13.852 -0.2203 -0.3812  0.6436
 7789TIP3   OH244857   4.058   4.699  12.372 -0.7036  0.0522 -0.4179
 7789TIP3    H144858   4.153   4.706  12.375 -0.8257  1.8788  0.9309
 7789TIP3    H244859   4.039   4.613  12.410  0.3620  0.3656  0.9096
 7790TIP3   OH244860   2.576   3.386   4.865  0.3923  0.2178  0.0985
 7790TIP3    H144861   2.610   3.387   4.954 -1.0402  1.0939  0.6760
 7790TIP3    H244862   2.647   3.422   4.811  1.4130 -0.6796  0.8032
 7791TIP3   OH244863   4.114   2.213  15.405 -0.2570 -0.0922 -0.1079
 7791TIP3    H144864   4.148   2.172  15.326 -0.7273  1.0995 -0.9531
 7791TIP3    H244865   4.019   2.208  15.396 -0.3124  0.1560  0.3277
 7792TIP3   OH244866   6.634   5.374  15.919 -0.5723 -0.3380  0.4409
 7792TIP3    H144867   6.693   5.393  15.847 -1.1860 -0.6051 -0.1458
 7792TIP3    H244868   6.585   5.455  15.934 -1.2717 -0.6202 -0.2415
 7793TIP3   OH244869   6.531   6.748   4.118 -0.4288  0.2958  0.1043
 7793TIP3    H144870   6.577   6.830   4.137  0.5888 -0.1502 -0.3503
 7793TIP3    H244871   6.543   6.735   4.024  0.8474 -1.1969  0.4396
 7794TIP3   OH244872   3.711   5.556   4.397 -0.2363 -0.3734  0.0029
 7794TIP3    H144873   3.773   5.484   4.409 -2.3776 -2.2105  0.5628
 7794TIP3    H244874   3.715   5.605   4.479  0.1083 -0.7811  0.2339
 7795TIP3   OH244875   4.273   0.879  10.713  0.1478 -0.3404  0.1773
 7795TIP3    H144876   4.320   0.815  10.660 -1.8872 -0.4850 -1.5800
 7795TIP3    H244877   4.332   0.954  10.718  1.2985 -1.1823 -0.3429
 7796TIP3   OH244878   1.526   5.598   4.244  0.7291 -0.2180  0.4843
 7796TIP3    H144879   1.533   5.529   4.177 -0.0909  0.4279 -0.2989
 7796TIP3    H244880   1.433   5.601   4.266  0.5796  1.3009 -0.2419
 7797TIP3   OH244881   2.548   4.917   0.642  0.0339  0.2546  0.2424
 7797TIP3    H144882   2.491   4.951   0.573  1.3446 -1.1496 -1.6598
 7797TIP3    H244883   2.493   4.857   0.692 -0.9173  1.2080  0.3689
 7798TIP3   OH244884   1.116   1.132   2.799  0.3061  0.5910 -0.7111
 7798TIP3    H144885   1.119   1.223   2.828 -2.4383 -0.0092  2.0258
 7798TIP3    H244886   1.185   1.089   2.849  0.8193  0.9348 -1.1094
 7799TIP3   OH244887   6.130   5.790  13.976  0.0425 -0.4641  0.5846
 7799TIP3    H144888   6.218   5.758  13.992  0.4335  0.4878  0.3764
 7799TIP3    H244889   6.115   5.855  14.045 -0.0096  0.2986 -0.1397
 7800TIP3   OH244890   3.189   4.918   5.747 -0.3367  0.1408  0.6290
 7800TIP3    H144891   3.169   4.975   5.821 -1.3196 -1.6328  1.8073
 7800TIP3    H244892   3.284   4.908   5.750 -0.3205  0.4242  1.4048
 7801TIP3   OH244893   4.840   1.904   3.652  0.9443 -0.2962  0.3024
 7801TIP3    H144894   4.799   1.977   3.700 -0.7021 -1.0391  0.0955
 7801TIP3    H244895   4.773   1.836   3.651  1.0191 -0.4479 -2.7478
 7802TIP3   OH244896   4.151   3.487  12.492  0.0954 -0.3676 -0.2173
 7802TIP3    H144897   4.215   3.475  12.423  0.0608 -1.9369 -0.0151
 7802TIP3    H244898   4.067   3.466  12.452 -0.0783 -0.0836 -0.0119
 7803TIP3   OH244899   3.360   4.975   0.284 -0.0995  0.5306 -0.0424
 7803TIP3    H144900   3.441   5.008   0.320 -1.1075  0.9159  1.9898
 7803TIP3    H244901   3.367   4.879   0.290  0.0504  0.5756  0.4503
 7804TIP3   OH244902   3.211   3.419   3.394  0.4686  0.6370  0.7853
 7804TIP3    H144903   3.225   3.337   3.439  0.9881  1.4567  2.1690
 7804TIP3    H244904   3.205   3.485   3.463  0.9594  1.9019 -0.3173
 7805TIP3   OH244905   1.273   4.126  14.634 -0.0420  0.1640  0.8250
 7805TIP3    H144906   1.208   4.058  14.617  0.4577  0.1724 -1.5197
 7805TIP3    H244907   1.297   4.159  14.547  0.9142  2.2373  1.7839
 7806TIP3   OH244908   4.647   4.187  17.435  0.0684 -0.0707 -0.1205
 7806TIP3    H144909   4.686   4.104  17.463  0.3167  0.1292  0.1341
 7806TIP3    H244910   4.627   4.233  17.517 -0.3932 -0.0260 -0.2529
 7807TIP3   OH244911   2.614   5.082  12.790 -0.1216 -0.2781  0.2317
 7807TIP3    H144912   2.698   5.059  12.829  0.1618 -3.4811 -1.8503
 7807TIP3    H244913   2.637   5.126  12.708 -0.3241 -1.9923 -0.8108
 7808TIP3   OH244914   5.537   3.088   3.776 -0.1907 -0.2117  0.0481
 7808TIP3    H144915   5.490   3.056   3.853  1.6408 -2.0493  0.4596
 7808TIP3    H244916   5.508   3.179   3.768 -2.3222 -0.6886  1.3908
 7809TIP3   OH244917   5.334   3.568   0.797  0.4519  0.1754  0.5813
 7809TIP3    H144918   5.317   3.659   0.775  0.6520  0.9254  3.2740
 7809TIP3    H244919   5.287   3.553   0.879 -0.6367 -2.5497 -0.4219
 7810TIP3   OH244920   1.069   1.249  12.318  0.5087  0.1880  0.2579
 7810TIP3    H144921   1.006   1.205  12.262 -0.0303 -0.0273  1.0173
 7810TIP3    H244922   1.147   1.193  12.315  0.0094 -0.5490  0.7977
 7811TIP3   OH244923   1.595   0.639  11.951 -0.2858 -0.0168 -0.4805
 7811TIP3    H144924   1.607   0.559  11.900  4.1682 -0.4682  0.8671
 7811TIP3    H244925   1.580   0.608  12.041 -1.7296  0.7557 -0.4251
 7812TIP3   OH244926   5.573   4.033  16.819 -0.0838  0.2488  0.5915
 7812TIP3    H144927   5.518   4.071  16.887 -0.1130 -1.6114  1.6928
 7812TIP3    H244928   5.658   4.073  16.832 -0.5482  1.2948  0.4994
 7813TIP3   OH244929   4.460   1.808  13.128  0.2492  0.7057  0.1351
 7813TIP3    H144930   4.366   1.822  13.112  0.3702  0.8628 -0.4525
 7813TIP3    H244931   4.496   1.896  13.138  0.2979  0.6361  0.5833
 7814TIP3   OH244932   0.778   2.315   2.587 -0.0709 -0.2258 -0.2941
 7814TIP3    H144933   0.863   2.309   2.631  1.1171 -0.2419 -2.4627
 7814TIP3    H244934   0.777   2.403   2.549  0.5643 -1.3628 -3.1855
 7815TIP3   OH244935   3.611   5.641   1.912 -0.2681  0.0071 -0.4661
 7815TIP3    H144936   3.582   5.731   1.926 -0.2894 -0.0551 -0.1091
 7815TIP3    H244937   3.706   5.647   1.906 -0.3414  0.1951 -1.5225
 7816TIP3   OH244938   6.064   1.120   1.319  0.3936  0.3362 -0.3150
 7816TIP3    H144939   6.073   1.211   1.291  0.0071  0.1612 -1.0602
 7816TIP3    H244940   5.973   1.111   1.345  0.0083 -0.2149 -1.7529
 7817TIP3   OH244941   4.576   5.650   5.010  0.0975 -0.4464  0.2477
 7817TIP3    H144942   4.481   5.659   5.007 -0.0680 -2.0584 -0.2392
 7817TIP3    H244943   4.593   5.562   4.976  1.8301  0.1866 -0.6703
 7818TIP3   OH244944   1.285   1.867   4.935  0.0737 -0.2510 -0.2349
 7818TIP3    H144945   1.343   1.799   4.970  0.9334  0.8263  0.4886
 7818TIP3    H244946   1.335   1.948   4.944 -0.8164  0.4476 -1.3566
 7819TIP3   OH244947   4.244   0.064  13.211  0.7419 -0.6612 -0.1479
 7819TIP3    H144948   4.176   0.035  13.151  1.0115 -0.3580 -0.6078
 7819TIP3    H244949   4.230   0.158  13.220  0.7734 -0.6842  0.1814
 7820TIP3   OH244950   5.283   4.940  15.039  0.2397  0.0048  0.4087
 7820TIP3    H144951   5.254   4.898  14.958  0.6312  0.3517  0.0865
 7820TIP3    H244952   5.267   4.874  15.107 -2.1088  0.4787  0.4056
 7821TIP3   OH244953   3.296   0.781   4.745  0.0578 -0.3502  0.4213
 7821TIP3    H144954   3.247   0.836   4.806  0.0972  0.1099  0.0422
 7821TIP3    H244955   3.251   0.696   4.749  0.8831 -0.7581  2.1138
 7822TIP3   OH244956   3.632   3.446  14.512 -0.5840  0.6423  0.6402
 7822TIP3    H144957   3.686   3.472  14.586  1.7303 -2.4059  0.2225
 7822TIP3    H244958   3.615   3.352  14.526 -0.7056  0.1314 -2.2643
 7823TIP3   OH244959   2.711   2.929   6.932 -0.4368 -0.3874  0.0726
 7823TIP3    H144960   2.634   2.912   6.879 -0.4426 -0.1376  0.0026
 7823TIP3    H244961   2.715   2.855   6.993 -1.0919 -0.0831  0.4957
 7824TIP3   OH244962   1.919   5.391   2.455  0.4171  0.5834  0.4566
 7824TIP3    H144963   1.932   5.401   2.549 -1.3149  0.2619  0.7628
 7824TIP3    H244964   1.842   5.335   2.447  1.5731 -0.8777 -1.1723
 7825TIP3   OH244965   1.938   5.519   2.217  0.0781 -0.3909  0.4645
 7825TIP3    H144966   1.980   5.449   2.168  0.9329  0.4815 -0.0821
 7825TIP3    H244967   1.919   5.481   2.302  0.6699 -1.2375  0.2303
 7826TIP3   OH244968   5.440   5.324  15.605 -0.3368 -0.2933  0.6802
 7826TIP3    H144969   5.424   5.245  15.655  0.0284 -0.8616 -0.0894
 7826TIP3    H244970   5.375   5.321  15.534  0.1784 -0.3016  0.2007
 7827TIP3   OH244971   0.117   3.069  11.863 -0.3770 -0.4812  0.1523
 7827TIP3    H144972   0.155   3.109  11.941 -0.6873 -1.5743  0.9019
 7827TIP3    H244973   0.173   3.097  11.791 -0.3197  0.8709  0.7090
 7828TIP3   OH244974   5.248   1.452   1.894  0.8087  0.0072  0.0026
 7828TIP3    H144975   5.275   1.493   1.976  1.3062 -0.1763 -0.0644
 7828TIP3    H244976   5.318   1.475   1.832 -0.6676  2.1764 -1.0287
 7829TIP3   OH244977   4.223   3.851  11.888  0.2561  0.2618  0.3712
 7829TIP3    H144978   4.203   3.852  11.981 -1.2358  2.2401  0.0996
 7829TIP3    H244979   4.222   3.943  11.862 -0.7632 -0.3051 -1.8516
 7830TIP3   OH244980   4.955   6.302   0.479 -0.0817  0.4492 -0.2721
 7830TIP3    H144981   5.046   6.317   0.504  0.0654  1.1634 -1.1816
 7830TIP3    H244982   4.932   6.378   0.425 -1.1472  0.1696 -0.2236
 7831TIP3   OH244983   0.328   2.252  12.983 -0.1817 -0.1578 -0.0755
 7831TIP3    H144984   0.376   2.216  12.908 -0.5547 -3.0170  0.9145
 7831TIP3    H244985   0.383   2.323  13.016  1.5335 -0.9136 -1.1960
 7832TIP3   OH244986   3.205   3.079  13.159  0.5076  0.1135  0.0047
 7832TIP3    H144987   3.256   3.019  13.214 -1.6093 -1.1044  0.7587
 7832TIP3    H244988   3.117   3.075  13.195 -0.8466 -0.1891 -3.0561
 7833TIP3   OH244989   4.522   5.969   2.247  0.3372 -0.4081  0.0437
 7833TIP3    H144990   4.519   5.910   2.172 -0.5359 -0.4201  0.0874
 7833TIP3    H244991   4.433   6.001   2.257  0.5546  0.0059  0.7567
 7834TIP3   OH244992   4.025   3.355  11.170  0.1519 -0.0983  0.1713
 7834TIP3    H144993   4.098   3.417  11.174  2.6916 -2.9172  0.5859
 7834TIP3    H244994   3.999   3.355  11.078 -0.0457  1.6470  0.1871
 7835TIP3   OH244995   5.601   6.276  16.332  0.4378  0.3588  0.1345
 7835TIP3    H144996   5.608   6.356  16.279 -0.5541  0.1052 -0.3984
 7835TIP3    H244997   5.662   6.215  16.291  0.9919  0.7394  0.3733
 7836TIP3   OH244998   6.298   6.715   4.302 -0.0258  0.0378  0.3588
 7836TIP3    H144999   6.373   6.673   4.260 -1.2836 -0.6178 -1.3572
 7836TIP3    H245000   6.293   6.801   4.260 -0.9062 -0.3721 -0.4052
 7837TIP3   OH245001   3.428   2.204  14.604  0.5739 -0.0916  0.1799
 7837TIP3    H145002   3.367   2.239  14.540  0.1512 -0.9724  0.0914
 7837TIP3    H245003   3.391   2.119  14.630  1.0614 -0.0401  1.1183
 7838TIP3   OH245004   3.530   6.496   5.474 -0.2593 -0.4528  0.2768
 7838TIP3    H145005   3.605   6.530   5.425 -1.2170 -0.1615 -1.0362
 7838TIP3    H245006   3.535   6.401   5.462 -0.2430 -0.4160 -0.0047
 7839TIP3   OH245007   5.656   0.263  14.098  0.0330 -0.7637  0.3825
 7839TIP3    H145008   5.750   0.280  14.095  0.0565 -1.0167 -2.0696
 7839TIP3    H245009   5.649   0.168  14.108  0.0749 -0.9076 -0.8589
 7840TIP3   OH245010   0.366   0.663  12.823 -0.3213 -0.2165 -0.0432
 7840TIP3    H145011   0.291   0.647  12.880  0.6568 -1.4596  0.9281
 7840TIP3    H245012   0.356   0.600  12.752 -0.2229 -0.3261  0.0420
 7841TIP3   OH245013   2.939   2.228  15.471  0.1776  0.1669  0.4084
 7841TIP3    H145014   2.895   2.181  15.542 -0.5132  1.2503  0.7391
 7841TIP3    H245015   2.870   2.246  15.408  0.4642  0.5479  0.1995
 7842TIP3   OH245016   3.962   0.754   2.550 -0.2258 -0.0256 -0.0488
 7842TIP3    H145017   3.901   0.828   2.553  0.7692  0.8910 -1.5016
 7842TIP3    H245018   3.948   0.714   2.464  0.1158 -0.7846  0.2362
 7843TIP3   OH245019   4.407   5.292  16.970  0.1035  0.1140 -0.5049
 7843TIP3    H145020   4.491   5.333  16.947  0.8865 -0.4721  1.0996
 7843TIP3    H245021   4.432   5.209  17.010 -1.1743  0.3956  0.9660
 7844TIP3   OH245022   6.073   6.119  15.317  0.4668  0.0431  0.1989
 7844TIP3    H145023   6.027   6.045  15.278 -1.2366  0.5233  1.1994
 7844TIP3    H245024   6.126   6.155  15.245 -0.2359 -0.9045 -0.8273
 7845TIP3   OH245025   4.756   0.394  15.323  0.1533  0.0398 -0.4647
 7845TIP3    H145026   4.718   0.350  15.400 -0.4556 -0.4098 -1.0130
 7845TIP3    H245027   4.759   0.486  15.348 -0.2803 -0.0683  0.0109
 7846TIP3   OH245028   1.357   5.775   2.034 -0.0568 -0.0528 -0.1513
 7846TIP3    H145029   1.365   5.715   1.960  2.2945  0.8999 -0.7369
 7846TIP3    H245030   1.277   5.746   2.079  0.3813 -2.9237 -0.9987
 7847TIP3   OH245031   3.421   4.018   5.212 -0.8175  0.4429 -0.5601
 7847TIP3    H145032   3.426   4.000   5.306  0.6979 -1.1535 -0.9101
 7847TIP3    H245033   3.391   3.937   5.173 -0.2618  0.7039 -1.5678
 7848TIP3   OH245034   4.791   0.820  12.863  0.3434 -0.0220 -0.4477
 7848TIP3    H145035   4.750   0.733  12.869 -0.9000  0.6608  3.0013
 7848TIP3    H245036   4.882   0.805  12.887  0.0211 -0.3429  0.6223
 7849TIP3   OH245037   3.327   1.760  13.406  0.2066 -0.1348  0.3616
 7849TIP3    H145038   3.365   1.724  13.326  2.4049  1.2007  0.6928
 7849TIP3    H245039   3.303   1.850  13.383 -1.6804 -0.5579  0.5280
 7850TIP3   OH245040   5.262   1.199   1.519  0.1547  0.5444 -0.4664
 7850TIP3    H145041   5.188   1.156   1.561  1.2215  0.3042  1.2671
 7850TIP3    H245042   5.311   1.128   1.478  1.4819  0.1170  1.7141
 7851TIP3   OH245043   6.529   2.912  13.141  0.3064  0.8460 -0.3197
 7851TIP3    H145044   6.465   2.957  13.196  0.1474  0.4511 -0.1777
 7851TIP3    H245045   6.614   2.940  13.176  0.2083 -0.1465  0.7607
 7852TIP3   OH245046   0.121   1.154   2.313  0.2922 -0.5873  0.8783
 7852TIP3    H145047   0.125   1.105   2.230 -0.7249 -1.7395  1.4742
 7852TIP3    H245048   0.195   1.121   2.364  0.3903 -0.5355  0.7697
 7853TIP3   OH245049   5.784   5.823  14.447  0.8741  0.1848 -0.0333
 7853TIP3    H145050   5.776   5.912  14.415  1.3473  0.3489  0.2921
 7853TIP3    H245051   5.706   5.810  14.503  1.2179  0.6729  0.5685
 7854TIP3   OH245052   0.201   5.546  14.738  0.1032 -0.3068  0.5212
 7854TIP3    H145053   0.159   5.473  14.784 -0.2982 -0.9551 -0.8468
 7854TIP3    H245054   0.165   5.624  14.780 -1.7260 -0.8500  0.0407
 7855TIP3   OH245055   6.062   2.548   0.395  0.2146  0.2101 -0.3146
 7855TIP3    H145056   5.994   2.613   0.375  0.8108  1.9843  2.6555
 7855TIP3    H245057   6.080   2.505   0.312 -2.3972  1.7401 -1.8213
 7856TIP3   OH245058   2.285   6.108   1.983 -0.6073  0.1500 -0.1573
 7856TIP3    H145059   2.224   6.175   2.014  0.5318  1.5981 -0.9305
 7856TIP3    H245060   2.354   6.157   1.938  0.3140 -1.5466 -0.6803
 7857TIP3   OH245061   3.661   2.345  16.882 -0.4310  0.0205  0.0101
 7857TIP3    H145062   3.622   2.314  16.800  2.6314 -0.3669 -1.4281
 7857TIP3    H245063   3.649   2.440  16.879  0.6022  0.1402 -1.5051
 7858TIP3   OH245064   1.072   4.106  16.098  0.1323 -0.3084  0.3108
 7858TIP3    H145065   0.996   4.120  16.156  0.4157 -1.9014  1.1066
 7858TIP3    H245066   1.067   4.179  16.036 -0.4586  1.2275  2.0343
 7859TIP3   OH245067   0.696   5.711   4.379  0.4846 -0.5913  0.1053
 7859TIP3    H145068   0.633   5.641   4.362 -0.4645 -0.0314  1.1545
 7859TIP3    H245069   0.716   5.746   4.292 -0.8581 -0.6317 -0.2487
 7860TIP3   OH245070   5.129   1.138   5.606  0.1106  0.3149  0.3931
 7860TIP3    H145071   5.103   1.085   5.531 -0.0707 -0.8401  1.2535
 7860TIP3    H245072   5.075   1.216   5.600 -0.4219 -0.0933 -0.2663
 7861TIP3   OH245073   5.527   1.246  13.814  0.1166  0.9077  0.1173
 7861TIP3    H145074   5.509   1.161  13.774  1.3424 -0.4096  2.1608
 7861TIP3    H245075   5.482   1.309  13.758 -0.8454 -1.0689 -1.4727
 7862TIP3   OH245076   6.168   5.143   5.627  0.3204 -0.4340  0.0732
 7862TIP3    H145077   6.197   5.065   5.580  0.5045 -1.0749  1.2094
 7862TIP3    H245078   6.177   5.120   5.719 -0.1095  0.7574  0.4312
 7863TIP3   OH245079   1.266   3.787  13.106  0.6088  0.5406  0.8033
 7863TIP3    H145080   1.360   3.806  13.114  0.7219  0.6113 -0.5594
 7863TIP3    H245081   1.254   3.759  13.015 -0.0690 -3.0633  1.8223
 7864TIP3   OH245082   2.871   5.276  13.069  0.1622 -0.0455  0.4205
 7864TIP3    H145083   2.842   5.189  13.044 -0.4182  0.3968 -0.4499
 7864TIP3    H245084   2.928   5.260  13.145 -0.4223 -1.1195  0.6625
 7865TIP3   OH245085   1.304   6.580   0.627 -0.5607 -0.0619 -0.1382
 7865TIP3    H145086   1.236   6.581   0.694 -0.6645 -0.1771 -0.2418
 7865TIP3    H245087   1.330   6.672   0.618  1.0602 -0.2652  1.6730
 7866TIP3   OH245088   5.551   3.396  11.508 -0.2368  0.5432  0.3594
 7866TIP3    H145089   5.482   3.459  11.484  0.5342  0.8053 -1.3342
 7866TIP3    H245090   5.563   3.409  11.602 -1.9344  1.0559  0.5442
 7867TIP3   OH245091   4.879   1.275   4.832  0.2227 -0.4919  0.4828
 7867TIP3    H145092   4.961   1.234   4.804  1.4155  1.7144  0.5522
 7867TIP3    H245093   4.906   1.349   4.887 -1.8549 -0.2754  1.2947
 7868TIP3   OH245094   2.034   2.411  15.347  0.2621  0.8215 -0.1048
 7868TIP3    H145095   1.940   2.398  15.347  0.1518  1.5395  0.1953
 7868TIP3    H245096   2.067   2.353  15.416 -0.1784  1.8925  1.0381
 7869TIP3   OH245097   0.566   4.811  12.542 -0.3782 -0.1777 -0.1148
 7869TIP3    H145098   0.651   4.856  12.537 -1.0921  1.5387  1.8549
 7869TIP3    H245099   0.588   4.718  12.534  1.6169  0.2426 -0.1589
 7870TIP3   OH245100   1.255   1.381   2.861  0.0182 -0.1800 -0.2472
 7870TIP3    H145101   1.331   1.350   2.911 -0.2668  2.0646  1.7567
 7870TIP3    H245102   1.292   1.442   2.798 -0.0167  0.0631 -0.0319
 7871TIP3   OH245103   4.077   6.488  12.398 -0.1773  0.3326 -0.4839
 7871TIP3    H145104   3.998   6.469  12.449  0.4376 -2.9084 -0.5155
 7871TIP3    H245105   4.149   6.481  12.461  0.2202  2.3746 -0.6382
 7872TIP3   OH245106   0.324   4.787   1.358 -0.5550  0.0081  0.6079
 7872TIP3    H145107   0.312   4.692   1.361  0.4022 -0.2036 -1.0519
 7872TIP3    H245108   0.394   4.801   1.294  0.1690  1.7763  1.6900
 7873TIP3   OH245109   4.035   3.823  14.856  0.4756  0.2700  0.1095
 7873TIP3    H145110   4.003   3.762  14.789  0.3227  0.9016 -0.3970
 7873TIP3    H245111   4.105   3.873  14.813  1.1631 -0.0915  0.7680
 7874TIP3   OH245112   0.833   2.614  12.461  0.1506  0.3699  0.6985
 7874TIP3    H145113   0.906   2.560  12.429  0.2594  1.5534 -1.1830
 7874TIP3    H245114   0.825   2.590  12.554  1.3189 -1.5747  0.3662
 7875TIP3   OH245115   3.079   0.182  16.813  0.1053  0.3369  0.8645
 7875TIP3    H145116   3.159   0.220  16.777 -0.6956  0.5103 -0.8578
 7875TIP3    H245117   3.109   0.110  16.868  1.5153  1.6459  1.8870
 7876TIP3   OH245118   5.486   3.739   4.544 -0.1761  0.7658 -0.1748
 7876TIP3    H145119   5.393   3.757   4.554 -0.3526 -0.2966  0.2302
 7876TIP3    H245120   5.491   3.679   4.470  0.1707  0.6866 -0.0903
 7877TIP3   OH245121   3.779   5.103  11.125 -0.0034  0.6636  0.1022
 7877TIP3    H145122   3.835   5.165  11.078 -1.1240 -0.0532 -2.3396
 7877TIP3    H245123   3.703   5.154  11.150 -0.5550  0.5119 -1.1847
 7878TIP3   OH245124   2.422   0.484   1.276  0.6601  0.9661  0.2650
 7878TIP3    H145125   2.379   0.512   1.357  3.3083 -0.8690  2.5387
 7878TIP3    H245126   2.378   0.403   1.252  1.0386  0.5062  1.0468
 7879TIP3   OH245127   5.354   0.755  10.577  0.1663 -0.6809 -0.2636
 7879TIP3    H145128   5.305   0.837  10.575  0.0722 -0.7402 -0.3681
 7879TIP3    H245129   5.384   0.747  10.668  0.3134 -0.4490 -0.2894
 7880TIP3   OH245130   3.302   5.741  16.242  0.3046 -0.1413 -0.3784
 7880TIP3    H145131   3.243   5.775  16.175 -2.1523 -0.8412  1.2840
 7880TIP3    H245132   3.355   5.677  16.197 -1.4467 -0.7828 -1.6523
 7881TIP3   OH245133   1.910   5.775   5.705 -0.0880  0.0332  0.0876
 7881TIP3    H145134   1.836   5.715   5.703  0.1394 -0.2683 -1.7492
 7881TIP3    H245135   1.920   5.799   5.797 -1.3419 -1.2938  0.6068
 7882TIP3   OH245136   3.790   3.861  16.622 -0.4195  0.6028 -0.4891
 7882TIP3    H145137   3.885   3.865  16.616 -0.3061 -2.0295 -1.4902
 7882TIP3    H245138   3.759   3.929  16.562  0.8074  1.2983 -0.3534
 7883TIP3   OH245139   0.926   4.705  12.333  0.5095  0.0866  0.0575
 7883TIP3    H145140   0.891   4.783  12.376 -1.2171  0.3022 -1.5885
 7883TIP3    H245141   1.000   4.738  12.282 -0.3568  0.7419 -0.8225
 7884TIP3   OH245142   4.908   3.410   5.931  0.0879 -0.1670 -0.2898
 7884TIP3    H145143   4.862   3.382   5.852 -1.0858  0.0863  0.2787
 7884TIP3    H245144   4.997   3.377   5.920  0.1698  0.5175 -2.0650
 7885TIP3   OH245145   0.357   1.498  11.310  0.6383  0.2228  0.0819
 7885TIP3    H145146   0.433   1.500  11.253  1.3336 -2.5427  0.7490
 7885TIP3    H245147   0.391   1.525  11.396  0.4545  0.7047  0.0052
 7886TIP3   OH245148   1.540   6.644   4.580 -0.0318  0.1951  0.0283
 7886TIP3    H145149   1.485   6.572   4.550 -0.9856  0.8248  0.2183
 7886TIP3    H245150   1.478   6.713   4.605  0.8365  0.8253  0.5039
 7887TIP3   OH245151   0.259   1.638   2.887  0.4645  0.1661  0.1878
 7887TIP3    H145152   0.261   1.584   2.965 -1.0254  2.3329  1.8448
 7887TIP3    H245153   0.230   1.724   2.917  0.9451  1.4349 -2.5751
 7888TIP3   OH245154   4.759   2.380   3.668  0.2611  0.8221  0.3861
 7888TIP3    H145155   4.833   2.371   3.728 -0.9757 -0.3043  1.8140
 7888TIP3    H245156   4.764   2.470   3.637  2.8080  0.4891 -0.3809
 7889TIP3   OH245157   4.895   5.478   2.376  0.3954  0.1446 -0.9002
 7889TIP3    H145158   4.800   5.487   2.372  0.3941 -0.2172 -3.8049
 7889TIP3    H245159   4.923   5.550   2.434 -1.5291  1.2822 -1.2793
 7890TIP3   OH245160   5.999   1.922  16.376  0.0559 -0.1218 -0.2166
 7890TIP3    H145161   6.090   1.951  16.368 -0.9212  4.2467  1.6571
 7890TIP3    H245162   5.977   1.891  16.288  2.8760  0.1153 -1.1237
 7891TIP3   OH245163   2.135   5.535  15.486 -0.0896  0.0101  0.1222
 7891TIP3    H145164   2.136   5.492  15.400  1.3704 -1.1557  0.6798
 7891TIP3    H245165   2.176   5.472  15.545  0.8278  1.6023  1.2588
 7892TIP3   OH245166   6.050   1.747   0.732  0.0821 -0.1132 -0.2441
 7892TIP3    H145167   6.086   1.831   0.760 -0.9395  0.2401  0.0546
 7892TIP3    H245168   5.969   1.770   0.687  0.0014 -0.9191 -0.5221
 7893TIP3   OH245169   1.746   0.904   0.145  0.3891 -0.2986 -0.4811
 7893TIP3    H145170   1.779   0.908   0.235 -0.2678 -3.0380 -0.0274
 7893TIP3    H245171   1.686   0.978   0.138  0.7552  0.1996  1.1917
 7894TIP3   OH245172   0.872   1.939   4.624  0.2027 -0.2349  0.0127
 7894TIP3    H145173   0.967   1.943   4.639 -0.1179  0.5801  2.2311
 7894TIP3    H245174   0.849   1.848   4.645  0.4383 -0.3674 -0.2860
 7895TIP3   OH245175   2.264   5.719  11.016  0.5825 -0.5952  0.0492
 7895TIP3    H145176   2.330   5.670  10.967 -0.0879 -3.0274  1.3893
 7895TIP3    H245177   2.298   5.722  11.106 -0.7566 -1.2521  0.6074
 7896TIP3   OH245178   1.306   3.306  11.332  0.5503  0.2681 -0.2865
 7896TIP3    H145179   1.229   3.302  11.277 -0.3540  1.8401  0.7965
 7896TIP3    H245180   1.274   3.334  11.418  2.3567  1.2955  0.1171
 7897TIP3   OH245181   2.127   0.837  15.783 -0.1095 -0.2829  0.0535
 7897TIP3    H145182   2.095   0.747  15.789  0.4831 -0.4203  1.8616
 7897TIP3    H245183   2.067   0.888  15.837  0.4474  0.1231  0.3082
 7898TIP3   OH245184   0.439   0.844   1.455  1.0313  0.4132  0.0358
 7898TIP3    H145185   0.533   0.830   1.443  0.8262 -1.1664  0.0979
 7898TIP3    H245186   0.398   0.763   1.426 -0.1966  0.3536  1.7758
 7899TIP3   OH245187   0.589   1.688  13.072  0.5026  0.0901 -0.2788
 7899TIP3    H145188   0.494   1.680  13.086  0.5670  1.4823  1.3436
 7899TIP3    H245189   0.627   1.683  13.160  2.3098 -3.5747 -1.0710
 7900TIP3   OH245190   2.703   6.468   0.669 -0.5844 -0.4010  0.5674
 7900TIP3    H145191   2.761   6.402   0.709 -0.8811 -0.1842  1.3721
 7900TIP3    H245192   2.758   6.511   0.603  0.6323  0.7270  2.2238
 7901TIP3   OH245193   1.765   1.965   3.458 -0.5096 -0.0073  0.2843
 7901TIP3    H145194   1.735   1.900   3.394 -0.6956  1.5599 -1.2957
 7901TIP3    H245195   1.855   1.984   3.433 -0.0898 -0.4256  1.4200
 7902TIP3   OH245196   3.535   3.552   1.988 -0.5135  0.4196 -0.2368
 7902TIP3    H145197   3.554   3.638   2.025  2.0274  0.3979 -1.3154
 7902TIP3    H245198   3.585   3.491   2.041 -1.5620 -0.3166 -0.0598
 7903TIP3   OH245199   1.316   2.355   5.602 -0.3528 -0.0557 -0.0770
 7903TIP3    H145200   1.362   2.275   5.629  1.4163  0.3995 -1.5240
 7903TIP3    H245201   1.299   2.342   5.508 -1.1654  0.7601 -0.0527
 7904TIP3   OH245202   3.190   6.284   4.889 -0.8611  0.8516  0.5404
 7904TIP3    H145203   3.218   6.284   4.981  0.3032  2.6729  0.2124
 7904TIP3    H245204   3.223   6.365   4.853 -2.8903  1.0592 -1.0547
 7905TIP3   OH245205   5.361   1.861  16.205  0.1303 -0.2485  0.2925
 7905TIP3    H145206   5.312   1.816  16.136 -0.6343 -1.1675  1.3981
 7905TIP3    H245207   5.332   1.819  16.286  2.9358 -1.0298  0.9884
 7906TIP3   OH245208   6.647   5.422   2.067  0.3429 -0.4576 -0.3489
 7906TIP3    H145209   6.715   5.485   2.092 -0.0897  0.0805 -0.4918
 7906TIP3    H245210   6.594   5.410   2.146  0.0497 -0.1458 -0.4918
 7907TIP3   OH245211   0.774   3.186   1.215  0.5978  0.7403 -0.2782
 7907TIP3    H145212   0.749   3.223   1.130 -3.6175  1.0330  0.8692
 7907TIP3    H245213   0.794   3.094   1.196 -3.4142 -0.0811 -1.3472
 7908TIP3   OH245214   2.641   5.940   1.122 -0.2616  0.1837 -0.1985
 7908TIP3    H145215   2.637   5.915   1.030  0.4664  0.8282 -0.4144
 7908TIP3    H245216   2.719   5.897   1.156 -2.1149 -2.5644  0.9352
 7909TIP3   OH245217   4.516   3.045   3.633 -0.5122  0.0476 -0.4193
 7909TIP3    H145218   4.447   3.044   3.700 -0.3280 -0.4644 -0.2314
 7909TIP3    H245219   4.530   3.138   3.615 -1.4784  0.1474 -0.7002
 7910TIP3   OH245220   3.638   0.144   2.943 -0.3635 -0.4364 -0.2035
 7910TIP3    H145221   3.668   0.220   2.992  0.4977 -0.9393  0.0717
 7910TIP3    H245222   3.548   0.130   2.973 -0.3707  0.1982  0.0767
 7911TIP3   OH245223   1.058   3.402  14.014  0.0680  0.3493  0.6596
 7911TIP3    H145224   1.152   3.382  14.018  0.0350 -0.7543 -2.0127
 7911TIP3    H245225   1.054   3.498  14.011  1.1601  0.3932  0.0776
 7912TIP3   OH245226   1.326   3.222  12.511  0.1853 -0.0459 -0.1096
 7912TIP3    H145227   1.230   3.212  12.513 -0.1958  2.0779 -2.1352
 7912TIP3    H245228   1.355   3.155  12.449 -0.1658  0.1585 -0.5026
 7913TIP3   OH245229   1.463   5.986   2.165 -0.1873 -0.1878 -0.4573
 7913TIP3    H145230   1.536   6.027   2.118  0.2347 -1.2413 -0.7480
 7913TIP3    H245231   1.414   5.939   2.097 -1.0401  0.3630 -0.2355
 7914TIP3   OH245232   1.580   3.484  11.837  0.0164 -0.3081  0.5816
 7914TIP3    H145233   1.629   3.541  11.897  1.2191 -0.9894  0.2723
 7914TIP3    H245234   1.534   3.545  11.780  0.8948  0.3740  0.5651
 7915TIP3   OH245235   6.702   3.275  16.086  0.7502 -0.2905  0.1115
 7915TIP3    H145236   6.639   3.205  16.105  0.3980 -1.1209 -3.4293
 7915TIP3    H245237   6.651   3.339  16.036  1.8816  0.8285  0.3577
 7916TIP3   OH245238   3.493   2.703  12.844 -0.1307  0.1980  0.2992
 7916TIP3    H145239   3.449   2.782  12.874 -0.5192 -0.2612  0.9637
 7916TIP3    H245240   3.463   2.692  12.754  0.7644  1.3887 -0.1765
 7917TIP3   OH245241   3.202   2.230   5.001 -0.1804 -0.0999  0.3185
 7917TIP3    H145242   3.256   2.302   5.033  1.2909 -2.6254  4.1690
 7917TIP3    H245243   3.253   2.191   4.930  1.1449  0.0040  1.1917
 7918TIP3   OH245244   1.557   6.497  12.405  0.2621  0.0356 -0.0238
 7918TIP3    H145245   1.574   6.436  12.477  1.2191 -0.2207 -0.4549
 7918TIP3    H245246   1.584   6.450  12.326  0.6317  0.8577 -0.4059
 7919TIP3   OH245247   3.876   3.059   5.552  0.3411 -0.1208 -0.0871
 7919TIP3    H145248   3.806   3.084   5.612 -1.2885 -1.9309 -1.1376
 7919TIP3    H245249   3.944   3.125   5.567 -1.5042  1.6592  1.0616
 7920TIP3   OH245250   6.522   2.397   3.521 -0.3531  0.3961 -0.0996
 7920TIP3    H145251   6.614   2.376   3.534 -0.7264 -1.6399 -0.3670
 7920TIP3    H245252   6.484   2.395   3.609 -0.4187 -0.3343 -0.1372
 7921TIP3   OH245253   1.012   4.601  17.380 -0.2751  0.1068 -0.1582
 7921TIP3    H145254   0.957   4.523  17.378 -1.5332  0.9054  1.0296
 7921TIP3    H245255   1.014   4.626  17.472  1.8316  0.3224 -0.2148
 7922TIP3   OH245256   3.199   3.705  11.416 -0.3362 -0.1482  0.0827
 7922TIP3    H145257   3.270   3.767  11.402  1.0268 -1.6221  0.2278
 7922TIP3    H245258   3.239   3.619  11.403 -2.1881 -1.0131 -0.2305
 7923TIP3   OH245259   0.652   0.769   0.918 -0.1800  0.1606  0.0314
 7923TIP3    H145260   0.712   0.784   0.991  0.5035  1.1267 -0.7027
 7923TIP3    H245261   0.664   0.676   0.896  0.4916  0.1579  0.3882
 7924TIP3   OH245262   0.470   0.798   2.200 -0.7663 -0.0488  0.3377
 7924TIP3    H145263   0.385   0.785   2.242 -0.4806  0.6249  1.1621
 7924TIP3    H245264   0.465   0.887   2.164 -1.3951 -0.9756 -2.0568
 7925TIP3   OH245265   0.847   6.146   1.790 -0.0394  0.1479 -0.1357
 7925TIP3    H145266   0.768   6.093   1.783  0.4902 -0.5205 -1.1782
 7925TIP3    H245267   0.844   6.181   1.879 -0.1625 -1.9908  0.7437
 7926TIP3   OH245268   1.185   2.833  12.503 -0.5234  0.3509 -0.2389
 7926TIP3    H145269   1.090   2.846  12.496 -0.4663 -0.0495 -2.1164
 7926TIP3    H245270   1.205   2.765  12.439  1.2511  1.5018 -0.9682
 7927TIP3   OH245271   1.126   0.240  11.627 -0.3213  0.1468 -0.8915
 7927TIP3    H145272   1.216   0.266  11.648 -0.2686 -0.2729 -0.5808
 7927TIP3    H245273   1.127   0.228  11.532 -0.1044  0.3531 -0.9168
 7928TIP3   OH245274   0.182   6.110  13.058  0.4091  0.2709 -0.3397
 7928TIP3    H145275   0.207   6.133  13.148 -1.5217  1.3515 -0.0344
 7928TIP3    H245276   0.263   6.119  13.008  1.4605 -0.0673  1.2133
 7929TIP3   OH245277   5.979   2.107  10.962 -0.3596  0.6384  0.2786
 7929TIP3    H145278   6.017   2.020  10.975  0.1014  0.9520  1.1710
 7929TIP3    H245279   6.032   2.146  10.893 -1.3898 -0.2440 -1.0465
 7930TIP3   OH245280   1.806   0.432  16.954  0.3239  0.4789 -0.8068
 7930TIP3    H145281   1.879   0.411  16.896 -0.1500 -0.7048 -0.9944
 7930TIP3    H245282   1.732   0.384  16.917 -0.4924  1.4491 -0.4620
 7931TIP3   OH245283   5.185   0.234  15.670 -0.2043 -0.8963  0.4490
 7931TIP3    H145284   5.279   0.215  15.671 -0.4224 -2.0838  0.7902
 7931TIP3    H245285   5.179   0.325  15.643  1.0208 -0.9848 -0.2180
 7932TIP3   OH245286   5.829   0.742  15.880  0.5428  0.8484  0.6926
 7932TIP3    H145287   5.741   0.773  15.900  0.3669  0.5156  0.4453
 7932TIP3    H245288   5.887   0.814  15.907  0.1841  1.1470  0.6747
 7933TIP3   OH245289   4.800   0.448   2.333  0.6519 -0.8806 -0.7659
 7933TIP3    H145290   4.755   0.506   2.394  0.7901  1.1099 -2.4523
 7933TIP3    H245291   4.736   0.381   2.311 -0.1679 -0.2807 -0.2338
 7934TIP3   OH245292   3.280   5.440   1.225  0.2233 -0.0601 -0.6955
 7934TIP3    H145293   3.195   5.468   1.191 -0.5887 -0.8190  0.6168
 7934TIP3    H245294   3.301   5.362   1.175  0.7509  0.7941 -1.8520
 7935TIP3   OH245295   1.896   4.747  16.998  0.3270  0.0217  0.6261
 7935TIP3    H145296   1.916   4.684  17.067 -0.2973 -0.8134  0.0760
 7935TIP3    H245297   1.962   4.730  16.931  0.4340  0.2662  0.6693
 7936TIP3   OH245298   5.006   2.201   2.334 -0.3853  0.3440  0.0418
 7936TIP3    H145299   4.973   2.154   2.411 -2.1190  1.3948  0.0095
 7936TIP3    H245300   4.936   2.264   2.313  1.1552  1.8584 -0.8310
 7937TIP3   OH245301   4.799   5.037   6.353 -0.0483 -0.8547 -0.0509
 7937TIP3    H145302   4.842   5.027   6.268 -0.7948 -0.8874 -0.4397
 7937TIP3    H245303   4.809   5.130   6.374 -0.8244 -0.5990 -0.7269
 7938TIP3   OH245304   4.179   1.101  13.787  0.6504 -0.4098 -0.0467
 7938TIP3    H145305   4.172   1.194  13.810 -1.6485 -0.2581 -1.0808
 7938TIP3    H245306   4.095   1.064  13.814  0.3514 -1.5316 -2.2837
 7939TIP3   OH245307   5.427   5.227   0.198  0.0807 -0.1487  0.1706
 7939TIP3    H145308   5.420   5.133   0.178 -2.1460 -0.3234  1.4790
 7939TIP3    H245309   5.450   5.230   0.291  2.6968  0.6684 -0.4111
 7940TIP3   OH245310   0.992   2.671   5.315  0.1548 -0.8028 -0.3952
 7940TIP3    H145311   1.050   2.616   5.264  0.2518  0.3464 -1.5670
 7940TIP3    H245312   1.040   2.688   5.397  1.6945  0.4525 -1.4970
 7941TIP3   OH245313   2.092   3.283   2.484  0.2099  0.0367 -0.0109
 7941TIP3    H145314   2.145   3.245   2.554 -0.0818 -0.5611 -0.1021
 7941TIP3    H245315   2.152   3.290   2.410  0.5461  0.7675  0.3226
 7942TIP3   OH245316   4.560   4.760  15.286  0.4858 -0.3402 -0.3683
 7942TIP3    H145317   4.464   4.759  15.292  0.3392  0.5167 -1.8830
 7942TIP3    H245318   4.584   4.848  15.316  1.0329 -1.2994  2.1964
 7943TIP3   OH245319   4.102   5.081  14.175 -0.1825 -0.1207 -0.1783
 7943TIP3    H145320   4.138   5.068  14.088 -0.4504  0.2308 -0.3405
 7943TIP3    H245321   4.016   5.120  14.161  0.1624  0.8434  0.2588
 7944TIP3   OH245322   5.805   3.615  15.926  0.3083  0.5411 -0.1602
 7944TIP3    H145323   5.786   3.664  16.006  0.5063  1.4779 -0.6670
 7944TIP3    H245324   5.879   3.661  15.887  1.2622 -0.8669 -0.0825
 7945TIP3   OH245325   5.095   2.547   4.898  0.4488  0.2835  0.4668
 7945TIP3    H145326   5.007   2.554   4.936  0.0165 -0.5641 -0.3245
 7945TIP3    H245327   5.115   2.453   4.903  0.1653  0.0558 -1.7751
 7946TIP3   OH245328   0.351   2.907  16.345 -0.1682 -0.1584 -0.2356
 7946TIP3    H145329   0.327   2.940  16.431 -2.5264  0.0593 -0.9289
 7946TIP3    H245330   0.349   2.811  16.355  0.1379 -0.1368  0.0702
 7947TIP3   OH245331   1.610   4.660  14.874 -0.3908 -0.4967 -0.6955
 7947TIP3    H145332   1.632   4.570  14.897 -0.3605  0.0684  1.7505
 7947TIP3    H245333   1.554   4.653  14.797  1.0759 -2.4698 -1.6493
 7948TIP3   OH245334   1.698   5.977  14.153  0.3768  0.1198  0.0399
 7948TIP3    H145335   1.608   6.008  14.166 -0.0832 -0.8308 -0.7102
 7948TIP3    H245336   1.723   5.940  14.237 -0.1381 -0.0784  0.1092
 7949TIP3   OH245337   1.747   6.569   5.086  0.3476  0.1167 -0.5189
 7949TIP3    H145338   1.777   6.571   4.995  0.4538  1.1296 -0.4751
 7949TIP3    H245339   1.781   6.487   5.121 -0.0246 -0.4684 -1.5008
 7950TIP3   OH245340   4.905   6.251   2.343 -0.3110  0.8726 -0.2727
 7950TIP3    H145341   4.833   6.189   2.351  0.4412  0.0801  0.7254
 7950TIP3    H245342   4.965   6.210   2.280 -0.4733  1.2651 -0.6831
 7951TIP3   OH245343   0.409   5.568  15.890 -0.2108  0.6470  0.1073
 7951TIP3    H145344   0.314   5.568  15.878 -0.2053 -0.5568 -0.1821
 7951TIP3    H245345   0.441   5.510  15.820  0.8058  1.5661 -0.2273
 7952TIP3   OH245346   4.697   4.394  11.818 -0.6831  0.0395 -0.2312
 7952TIP3    H145347   4.773   4.446  11.842 -1.1654 -0.2297  2.1093
 7952TIP3    H245348   4.727   4.340  11.745  1.2468  0.1975  0.3911
 7953TIP3   OH245349   4.672   6.066   3.174 -0.3046  0.0872 -0.1779
 7953TIP3    H145350   4.745   6.061   3.236 -0.4918  1.1786  0.1513
 7953TIP3    H245351   4.676   6.154   3.138 -0.4745 -0.3897 -1.4072
 7954TIP3   OH245352   1.893   0.424   4.384  0.6661 -0.1176  0.0669
 7954TIP3    H145353   1.925   0.373   4.459 -1.8821 -1.1777  0.5421
 7954TIP3    H245354   1.872   0.510   4.421  0.6844 -0.1988  0.2698
 7955TIP3   OH245355   0.363   1.062   4.642  0.6056 -0.3148 -0.4532
 7955TIP3    H145356   0.446   1.037   4.601  1.9810  0.7522  1.5005
 7955TIP3    H245357   0.343   1.148   4.604  2.0882  0.8600  1.2601
 7956TIP3   OH245358   0.267   4.198  13.713  0.1333 -0.2989  0.1728
 7956TIP3    H145359   0.240   4.106  13.716 -1.4019  0.0549 -1.4632
 7956TIP3    H245360   0.345   4.201  13.769 -0.2983 -2.3981  0.9995
 7957TIP3   OH245361   0.210   4.941  13.602  0.2312 -0.1733  1.0416
 7957TIP3    H145362   0.164   4.897  13.530  1.5109  0.6867 -0.3506
 7957TIP3    H245363   0.262   4.871  13.643  0.5443 -0.3999  0.2645
 7958TIP3   OH245364   5.504   1.240   3.785  0.2107 -0.0724  0.1549
 7958TIP3    H145365   5.563   1.196   3.724  0.0801  1.4228 -1.0982
 7958TIP3    H245366   5.562   1.281   3.849  0.5104  0.7151 -0.6091
 7959TIP3   OH245367   1.173   0.306   5.062 -0.2437 -0.5381 -0.0274
 7959TIP3    H145368   1.243   0.329   5.000 -1.3675  0.5207 -0.9589
 7959TIP3    H245369   1.217   0.255   5.130  1.4807  0.3256 -0.4359
 7960TIP3   OH245370   2.680   1.607   6.133  0.1128 -0.2372 -0.6261
 7960TIP3    H145371   2.587   1.629   6.137  0.0865 -0.5567  1.9347
 7960TIP3    H245372   2.696   1.555   6.212  2.7300  0.8932 -0.3149
 7961TIP3   OH245373   2.272   5.626  16.295  0.6722 -0.0858  0.2710
 7961TIP3    H145374   2.212   5.599  16.365 -0.0815  0.6376 -0.0735
 7961TIP3    H245375   2.289   5.546  16.246  0.2506 -0.3663  0.5709
 7962TIP3   OH245376   1.323   0.666   5.996  0.7059 -0.0576  0.7585
 7962TIP3    H145377   1.336   0.757   5.968  0.8206 -0.6343 -1.2513
 7962TIP3    H245378   1.250   0.634   5.942 -0.4426 -0.7217  2.5894
 7963TIP3   OH245379   5.975   3.667   4.898  0.4047  0.4118  0.2252
 7963TIP3    H145380   6.030   3.742   4.876  1.4088 -0.5690 -0.7465
 7963TIP3    H245381   5.929   3.693   4.978  2.1433  1.3307  0.9634
 7964TIP3   OH245382   6.749   6.743  14.000 -0.4274  0.4107  0.0292
 7964TIP3    H145383   6.757   6.665  14.055  0.5370  0.0650 -0.5790
 7964TIP3    H245384   6.654   6.754  13.988 -0.6170  0.0693  1.1403
 7965TIP3   OH245385   3.953   0.302   3.626 -0.3751 -0.4274  0.0563
 7965TIP3    H145386   3.971   0.379   3.570  0.4884 -0.7923 -0.1933
 7965TIP3    H245387   4.011   0.314   3.701 -0.5877 -0.5956  0.2468
 7966TIP3   OH245388   6.750   5.653  17.348 -0.1863 -0.3816  0.0969
 7966TIP3    H145389   6.734   5.573  17.298  0.1915 -0.8620  0.7364
 7966TIP3    H245390   6.779   5.622  17.434  0.8296  0.4505  0.0645
 7967TIP3   OH245391   2.677   1.228   6.555 -0.3834 -0.0793  0.3399
 7967TIP3    H145392   2.760   1.222   6.603 -0.1294  0.1038 -0.0726
 7967TIP3    H245393   2.667   1.322   6.538 -1.2942  0.0543  1.4603
 7968TIP3   OH245394   5.170   0.452   6.216 -0.5406  0.6027 -0.1973
 7968TIP3    H145395   5.088   0.457   6.265 -0.8377  1.0208 -0.7267
 7968TIP3    H245396   5.163   0.371   6.166 -1.6735  1.7780 -2.0418
 7969TIP3   OH245397   4.773   6.159   0.632 -0.7194  0.2530  0.3990
 7969TIP3    H145398   4.842   6.196   0.577 -1.2092  2.2398  1.0568
 7969TIP3    H245399   4.705   6.226   0.634 -1.6067 -0.6424  1.7521
 7970TIP3   OH245400   3.306   5.074   2.458 -0.0306  0.0852 -0.7016
 7970TIP3    H145401   3.359   5.139   2.504 -0.2041  1.6863 -2.6610
 7970TIP3    H245402   3.363   5.038   2.391  0.0378 -1.8060  0.2886
 7971TIP3   OH245403   3.717   0.383  12.384  0.2081 -0.6570  0.5939
 7971TIP3    H145404   3.622   0.393  12.384  0.0463 -1.9569  1.3164
 7971TIP3    H245405   3.741   0.390  12.477  1.0069  1.0946  0.2859
 7972TIP3   OH245406   0.949   1.550  12.362  0.2582 -0.3602  0.3593
 7972TIP3    H145407   1.019   1.485  12.367 -0.8080 -1.6267 -0.4909
 7972TIP3    H245408   0.890   1.516  12.296 -1.5591  0.2924  1.5848
 7973TIP3   OH245409   0.792   4.774   6.017  0.1043 -0.3514 -0.2366
 7973TIP3    H145410   0.752   4.853   6.054  1.2313  0.4035 -0.5803
 7973TIP3    H245411   0.736   4.702   6.047  0.0485  0.3902  1.5535
 7974TIP3   OH245412   3.242   4.823   6.123  0.0118 -0.0389 -0.4384
 7974TIP3    H145413   3.276   4.743   6.083  2.2348  0.1023  0.9829
 7974TIP3    H245414   3.316   4.884   6.123 -0.7015  0.9243  1.2783
 7975TIP3   OH245415   6.606   3.577   1.041 -0.1063 -0.1334 -1.1008
 7975TIP3    H145416   6.612   3.664   1.001  0.0089  0.5310  0.3004
 7975TIP3    H245417   6.516   3.573   1.074 -0.6258 -1.2012 -2.5149
 7976TIP3   OH245418   5.503   0.291   3.667 -0.1054 -0.2230 -0.0019
 7976TIP3    H145419   5.538   0.286   3.579  1.0228  0.2621  0.4053
 7976TIP3    H245420   5.496   0.199   3.696  0.7458 -0.3333 -0.1277
 7977TIP3   OH245421   6.476   3.914  16.926 -0.2532  0.2264  0.1595
 7977TIP3    H145422   6.434   3.885  16.845  3.2659  1.2061 -2.2608
 7977TIP3    H245423   6.479   4.010  16.918  0.5608  0.3022  1.2475
 7978TIP3   OH245424   4.245   2.207  11.966 -0.0790  0.1487 -0.1357
 7978TIP3    H145425   4.337   2.181  11.957  0.5555  1.4594  1.9231
 7978TIP3    H245426   4.196   2.124  11.962  1.3730 -0.8078  0.7735
 7979TIP3   OH245427   6.509   6.234  17.122 -0.3180  0.1339 -0.4247
 7979TIP3    H145428   6.446   6.181  17.074  0.9797 -0.9110 -1.0518
 7979TIP3    H245429   6.456   6.297  17.171 -1.9916 -2.1846  0.9338
 7980TIP3   OH245430   1.872   3.413  14.519  0.1957 -0.5814  0.3458
 7980TIP3    H145431   1.883   3.506  14.500  0.7408 -1.3114 -3.9012
 7980TIP3    H245432   1.939   3.393  14.583  0.9963  1.6801  0.2906
 7981TIP3   OH245433   6.334   5.924  14.603 -0.5523 -0.0995 -0.2798
 7981TIP3    H145434   6.387   5.928  14.682  0.5954 -0.6060 -0.9950
 7981TIP3    H245435   6.309   6.015  14.586 -0.3437  0.0799  0.3607
 7982TIP3   OH245436   5.250   2.981  12.414 -0.0406 -0.2671 -0.0495
 7982TIP3    H145437   5.181   2.914  12.413 -0.4107  0.1013  0.5300
 7982TIP3    H245438   5.239   3.027  12.331 -1.3262  0.6156  0.5834
 7983TIP3   OH245439   5.928   5.269  14.879 -0.3627 -0.1920 -0.1842
 7983TIP3    H145440   5.974   5.336  14.930 -1.5241 -1.9005  3.4399
 7983TIP3    H245441   5.843   5.308  14.860  0.8131  1.3079 -3.0929
 7984TIP3   OH245442   4.462   3.921  15.694  0.0260 -0.5190  0.4835
 7984TIP3    H145443   4.481   4.001  15.742 -0.2560  0.2097 -0.5898
 7984TIP3    H245444   4.428   3.861  15.760 -0.5451  0.5205  1.1591
 7985TIP3   OH245445   0.498   2.457   4.770 -0.0785 -0.3545 -0.0229
 7985TIP3    H145446   0.467   2.452   4.861 -0.4401 -0.5092 -0.1510
 7985TIP3    H245447   0.472   2.373   4.732 -1.5474  0.3953 -0.7712
 7986TIP3   OH245448   4.145   6.628  13.642  0.4420 -0.2314 -0.2630
 7986TIP3    H145449   4.124   6.534  13.641 -2.6840  0.3279  1.0279
 7986TIP3    H245450   4.115   6.660  13.557  2.0444 -0.4628 -0.9351
 7987TIP3   OH245451   2.303   3.398  16.268  0.0453 -0.4513  0.6704
 7987TIP3    H145452   2.235   3.358  16.213  2.1355 -0.6895 -1.9824
 7987TIP3    H245453   2.375   3.334  16.265  1.4802  1.1042  0.8363
 7988TIP3   OH245454   5.281   6.751  12.660  0.0964  0.2219 -0.0797
 7988TIP3    H145455   5.367   6.741  12.699  0.4441  0.6993 -0.7110
 7988TIP3    H245456   5.275   6.845  12.640 -0.5020  0.1636 -0.1924
 7989TIP3   OH245457   0.920   1.460  16.075  0.2683  0.0333  0.2949
 7989TIP3    H145458   0.858   1.438  16.006 -0.3898  1.3733  0.4256
 7989TIP3    H245459   0.872   1.442  16.156  0.9484 -1.2962  0.4238
 7990TIP3   OH245460   5.689   0.318   1.317  0.7737 -0.0220  0.3235
 7990TIP3    H145461   5.608   0.328   1.266  2.1973  1.0338 -1.8862
 7990TIP3    H245462   5.683   0.386   1.384  0.3351  0.8469 -0.5624
 7991TIP3   OH245463   0.617   3.299   0.226  0.1010  0.4035 -0.2546
 7991TIP3    H145464   0.706   3.312   0.258  0.0806  0.6252 -0.2832
 7991TIP3    H245465   0.627   3.253   0.143  0.1438 -0.3426  0.1563
 7992TIP3   OH245466   0.833   3.847   0.805  0.2655  0.0656 -0.0774
 7992TIP3    H145467   0.870   3.916   0.750 -0.2963 -0.2290 -0.8436
 7992TIP3    H245468   0.746   3.832   0.770 -0.1055 -0.1471  0.8995
 7993TIP3   OH245469   2.784   6.037  11.704 -0.5042 -0.1032  0.1088
 7993TIP3    H145470   2.782   6.109  11.641  0.7586  0.2378  0.4398
 7993TIP3    H245471   2.702   5.990  11.688  0.0446 -0.4029 -2.2066
 7994TIP3   OH245472   2.828   6.187   1.902  0.0452  0.1135 -0.2293
 7994TIP3    H145473   2.778   6.198   1.983 -1.3580 -2.0333 -0.7026
 7994TIP3    H245474   2.861   6.097   1.907  1.2459  0.4704 -1.3567
 7995TIP3   OH245475   1.186   0.450  14.921  0.2296  0.3914  0.1499
 7995TIP3    H145476   1.169   0.425  15.012  0.9288 -2.0957 -0.3358
 7995TIP3    H245477   1.260   0.510  14.927  0.6210 -0.1660  1.1811
 7996TIP3   OH245478   5.967   4.060   5.521  0.1139 -0.1776  0.6086
 7996TIP3    H145479   5.942   4.033   5.610 -0.6521 -0.8410  0.2000
 7996TIP3    H245480   6.031   3.994   5.494 -0.0085 -0.2454  0.4862
 7997TIP3   OH245481   2.626   0.757  12.693  0.2152  0.1607 -0.0024
 7997TIP3    H145482   2.564   0.830  12.698 -1.3251 -1.0058 -1.0939
 7997TIP3    H245483   2.597   0.696  12.761 -1.2626 -1.3710 -1.8983
 7998TIP3   OH245484   5.525   3.277  13.959 -0.1636  0.2345 -0.1496
 7998TIP3    H145485   5.600   3.244  14.008  0.2429  0.1035 -0.8412
 7998TIP3    H245486   5.515   3.367  13.987 -0.7732 -0.2181  1.1567
 7999TIP3   OH245487   4.638   2.808   2.364  0.3967  0.2913 -0.4415
 7999TIP3    H145488   4.565   2.761   2.323 -1.4223 -0.6614  3.4551
 7999TIP3    H245489   4.601   2.890   2.394  1.2022  0.3063  0.5845
 8000TIP3   OH245490   0.300   0.120   1.197 -0.0268  0.1909 -0.2704
 8000TIP3    H145491   0.220   0.071   1.215 -0.1042 -0.6375 -2.5456
 8000TIP3    H245492   0.270   0.210   1.185 -0.2828  0.2983  0.9722
 8001TIP3   OH245493   3.764   6.734  14.943 -0.2138  0.4450  0.2467
 8001TIP3    H145494   3.763   6.757  15.036  1.6806 -0.0194  0.4220
 8001TIP3    H245495   3.725   6.810  14.899 -0.8455  0.7973  1.3718
 8002TIP3   OH245496   6.681   2.251   4.481  0.0710  0.2224  0.6034
 8002TIP3    H145497   6.754   2.200   4.446  0.1994  2.1681 -2.3062
 8002TIP3    H245498   6.717   2.295   4.558  1.2118 -0.7609  0.6580
 8003TIP3   OH245499   5.611   6.731   4.941 -0.1896 -0.5606 -0.4836
 8003TIP3    H145500   5.530   6.698   4.902  0.0799 -1.9015  0.0150
 8003TIP3    H245501   5.586   6.811   4.987 -0.6844  0.5330 -2.5849
 8004TIP3   OH245502   0.139   0.177  16.542  0.3046  0.1312  0.2780
 8004TIP3    H145503   0.123   0.115  16.613  0.6969  0.4232  0.6239
 8004TIP3    H245504   0.206   0.237  16.577  1.5998 -0.6001 -0.8430
 8005TIP3   OH245505   2.097   0.843  11.615  0.2791  0.4638  0.2128
 8005TIP3    H145506   2.030   0.887  11.563  0.1356 -0.8453 -0.7552
 8005TIP3    H245507   2.177   0.892  11.597 -0.1547  1.2427  0.3607
 8006TIP3   OH245508   1.489   2.962   5.268  0.1124  0.1938  0.4550
 8006TIP3    H145509   1.430   2.892   5.242  1.1359 -0.5350  0.0609
 8006TIP3    H245510   1.572   2.941   5.227  1.6581 -0.6523  3.6617
 8007TIP3   OH245511   4.618   4.481   0.622  0.2433  0.0992 -0.3123
 8007TIP3    H145512   4.571   4.423   0.562  0.7481 -0.3099 -0.3146
 8007TIP3    H245513   4.704   4.441   0.632 -0.1031 -0.2830  1.3302
 8008TIP3   OH245514   0.956   0.608   1.262 -0.0233 -0.2928 -0.2102
 8008TIP3    H145515   1.029   0.619   1.322  0.8694 -2.9220 -0.7047
 8008TIP3    H245516   0.892   0.556   1.310 -0.6266  0.1545 -0.5172
 8009TIP3   OH245517   1.908   4.398   2.715  0.6135 -0.2628 -0.3636
 8009TIP3    H145518   1.962   4.320   2.726  1.9832  0.7699  0.7059
 8009TIP3    H245519   1.956   4.452   2.652  0.6580  0.4994  0.3038
 8010TIP3   OH245520   4.981   2.355  16.341  0.0502  0.1361  0.1005
 8010TIP3    H145521   5.015   2.308  16.416 -1.0110 -1.0213 -0.1169
 8010TIP3    H245522   4.970   2.445  16.372  0.3211 -0.1669  1.1032
 8011TIP3   OH245523   6.243   1.857  11.662  0.0958 -0.5948 -0.0920
 8011TIP3    H145524   6.190   1.782  11.635 -0.2543 -0.4537  0.1989
 8011TIP3    H245525   6.197   1.893  11.738 -0.8128  1.0412 -1.3189
 8012TIP3   OH245526   4.023   0.018   2.748 -0.2506  0.3836 -0.0571
 8012TIP3    H145527   4.103   0.069   2.761  0.0428 -0.6898  3.4617
 8012TIP3    H245528   3.952   0.081   2.762  0.1103  0.2694  2.9549
 8013TIP3   OH245529   0.626   3.267  15.187 -0.5686 -0.2520 -0.0815
 8013TIP3    H145530   0.678   3.208  15.133  2.4543  1.1193  1.1442
 8013TIP3    H245531   0.604   3.340  15.128 -2.6278 -1.5440 -1.0377
 8014TIP3   OH245532   1.947   0.915  12.143  0.0089  0.2366 -0.0515
 8014TIP3    H145533   1.906   0.997  12.171 -1.7201 -0.0284 -1.6022
 8014TIP3    H245534   1.955   0.923  12.048  2.8410 -0.1221  0.0608
 8015TIP3   OH245535   3.363   0.868   1.028 -0.1764 -0.2445  0.6880
 8015TIP3    H145536   3.404   0.781   1.020  0.8980  0.2052  1.1284
 8015TIP3    H245537   3.269   0.849   1.034  0.0356 -1.3792  0.7337
 8016TIP3   OH245538   1.063   4.084  12.070  0.7413 -0.0468 -0.0955
 8016TIP3    H145539   1.026   4.147  12.008  1.7424 -0.4305 -1.1069
 8016TIP3    H245540   1.111   4.139  12.133 -0.7652  0.3867  0.7399
 8017TIP3   OH245541   0.321   5.222   4.709 -0.3550  0.0707  0.1257
 8017TIP3    H145542   0.295   5.257   4.623  0.2932  0.3103  0.0197
 8017TIP3    H245543   0.385   5.153   4.688  0.2491  0.5276  0.4325
 8018TIP3   OH245544   2.521   3.892   1.688  0.3842  0.2832 -0.6916
 8018TIP3    H145545   2.469   3.955   1.638  1.6767  1.1362 -1.0214
 8018TIP3    H245546   2.591   3.866   1.628  1.9478  1.2991  0.6034
 8019TIP3   OH245547   4.324   2.445  13.200  0.2239 -0.0211 -0.3055
 8019TIP3    H145548   4.414   2.445  13.170 -0.3510 -0.8384 -2.1442
 8019TIP3    H245549   4.279   2.383  13.143 -0.9995 -1.6118  2.1973
 8020TIP3   OH245550   1.459   3.130  13.341  0.2359 -0.0970 -0.2969
 8020TIP3    H145551   1.450   3.177  13.424  0.9224  1.9490 -1.3175
 8020TIP3    H245552   1.539   3.079  13.352  1.4631  1.7169 -0.3536
 8021TIP3   OH245553   2.588   5.732  12.369 -0.0543  0.1065 -0.1759
 8021TIP3    H145554   2.600   5.639  12.390 -1.1460  0.1271  0.6310
 8021TIP3    H245555   2.675   5.763  12.345  0.2025 -1.2799 -1.1022
 8022TIP3   OH245556   6.035   2.349   5.711  0.6171  0.1802 -0.2904
 8022TIP3    H145557   6.009   2.260   5.735 -0.5325  0.9823  1.7051
 8022TIP3    H245558   6.102   2.337   5.644  0.7158 -2.1844  0.1297
 8023TIP3   OH245559   4.383   2.044  15.024  0.1736  0.3591 -0.1964
 8023TIP3    H145560   4.319   1.990  14.978  0.2154  0.6323 -0.5763
 8023TIP3    H245561   4.387   2.006  15.112  1.7108 -1.5541 -1.0252
 8024TIP3   OH245562   1.680   0.148  14.274  0.2237 -0.0658  0.4431
 8024TIP3    H145563   1.625   0.070  14.266  0.6653 -0.2706 -0.9376
 8024TIP3    H245564   1.626   0.219  14.238  0.3306  0.0022  0.4176
 8025TIP3   OH245565   3.587   6.265  16.739  0.2540  0.1321  0.0424
 8025TIP3    H145566   3.576   6.288  16.647  1.5202  0.2808 -0.0868
 8025TIP3    H245567   3.556   6.341  16.787 -1.1669 -0.2498 -0.2153
 8026TIP3   OH245568   6.776   1.708  13.421  0.0313  0.0281  0.7484
 8026TIP3    H145569   6.748   1.619  13.398 -0.2087 -0.0927  1.4781
 8026TIP3    H245570   6.710   1.765  13.381 -0.6530 -0.2033  1.5188
 8027TIP3   OH245571   1.329   2.631   2.422 -0.2655  0.0990 -0.2035
 8027TIP3    H145572   1.420   2.622   2.448 -0.0623  1.6745 -0.3228
 8027TIP3    H245573   1.331   2.685   2.343 -1.3489  0.8270  0.2388
 8028TIP3   OH245574   3.870   2.481   2.924 -0.2816  0.0100 -0.1069
 8028TIP3    H145575   3.934   2.486   2.852 -0.2414 -1.6334 -0.2366
 8028TIP3    H245576   3.923   2.467   3.002 -0.1868  3.7307  0.6298
 8029TIP3   OH245577   1.104   0.349  15.187 -0.0311  0.8418 -0.0200
 8029TIP3    H145578   1.178   0.301  15.224 -0.1909 -0.6793 -1.5831
 8029TIP3    H245579   1.035   0.284  15.178 -1.6351  2.2391  1.4366
 8030TIP3   OH245580   6.626   4.431  17.049 -0.3746 -0.3970 -0.2123
 8030TIP3    H145581   6.644   4.434  17.143  0.5100 -0.1023 -0.3803
 8030TIP3    H245582   6.539   4.468  17.040 -0.4686 -0.4378  0.4981
 8031TIP3   OH245583   4.672   6.240  14.960 -0.8339 -0.3915 -0.7351
 8031TIP3    H145584   4.670   6.336  14.957  0.4102 -0.2780  0.7009
 8031TIP3    H245585   4.737   6.215  14.894  1.1415 -0.0091  0.9530
 8032TIP3   OH245586   2.731   1.690   4.296 -0.2276 -0.3205 -0.3637
 8032TIP3    H145587   2.822   1.661   4.291 -0.5512 -1.2129 -1.3368
 8032TIP3    H245588   2.681   1.618   4.260 -1.3020  0.3190 -0.1855
 8033TIP3   OH245589   1.933   6.597  14.030  0.1710  0.8191  0.6595
 8033TIP3    H145590   1.871   6.663  14.000 -0.5679 -0.4938 -0.9186
 8033TIP3    H245591   1.878   6.523  14.058  0.9284 -0.6241 -1.3840
 8034TIP3   OH245592   4.719   1.740   3.309  0.0084 -0.3838  0.3599
 8034TIP3    H145593   4.716   1.645   3.301 -0.0761 -0.4669  1.2719
 8034TIP3    H245594   4.654   1.761   3.376 -1.6936  0.5452 -1.4793
 8035TIP3   OH245595   1.273   5.586  15.231 -0.2029  0.0280  0.5201
 8035TIP3    H145596   1.336   5.541  15.175  0.5693  0.6792  0.8567
 8035TIP3    H245597   1.233   5.516  15.283 -0.9464 -0.5956 -0.8227
 8036TIP3   OH245598   2.993   6.237  12.554 -0.2633  0.1623 -0.3268
 8036TIP3    H145599   3.073   6.262  12.600 -0.5683  1.5859 -0.5100
 8036TIP3    H245600   2.962   6.319  12.515 -2.3591 -0.1545  0.5912
 8037TIP3   OH245601   5.936   3.010  15.570  0.5091 -0.4134 -0.4433
 8037TIP3    H145602   5.940   2.989  15.664 -0.1539  1.4189  0.0413
 8037TIP3    H245603   5.930   2.925  15.527 -0.6066 -1.2766  1.2782
 8038TIP3   OH245604   1.892   4.566   0.637 -0.4652 -0.4406  0.7674
 8038TIP3    H145605   1.920   4.486   0.592 -1.4779 -0.2599 -0.2228
 8038TIP3    H245606   1.952   4.634   0.606 -0.1542 -0.6380  0.9329
 8039TIP3   OH245607   6.241   2.134   2.480  0.2573  0.9706  0.2207
 8039TIP3    H145608   6.164   2.192   2.478  0.4612  1.2616 -1.9215
 8039TIP3    H245609   6.315   2.192   2.465  0.5474  0.3075 -1.0924
 8040TIP3   OH245610   0.170   3.652  12.234 -0.2917 -0.4277  0.3630
 8040TIP3    H145611   0.204   3.729  12.188 -1.9013 -0.4596 -0.9554
 8040TIP3    H245612   0.194   3.667  12.326  0.7396  0.9041 -0.0867
 8041TIP3   OH245613   4.955   6.188  13.691 -0.2926 -0.0852 -0.3810
 8041TIP3    H145614   4.890   6.194  13.761  0.3113  1.0181  0.1119
 8041TIP3    H245615   4.938   6.264  13.636  0.1495 -0.1681 -0.6356
 8042TIP3   OH245616   1.982   1.735   6.070 -0.0417  0.3448  0.0661
 8042TIP3    H145617   1.907   1.775   6.027 -0.4101  0.6771  0.9909
 8042TIP3    H245618   1.966   1.747   6.163  1.0994  0.3028  0.2861
 8043TIP3   OH245619   3.609   4.798   1.102 -0.5674  0.4584 -0.3345
 8043TIP3    H145620   3.559   4.729   1.057 -0.4897 -1.0979  1.8301
 8043TIP3    H245621   3.546   4.839   1.161 -0.1646  0.9815 -0.2609
 8044TIP3   OH245622   2.489   2.042  16.814  0.3608  0.6507 -0.4703
 8044TIP3    H145623   2.539   1.962  16.798 -0.5005 -0.1651  0.7982
 8044TIP3    H245624   2.397   2.016  16.806 -0.0906  0.6942  3.1037
 8045TIP3   OH245625   4.680   1.336  11.396 -0.0105 -0.0330 -0.9542
 8045TIP3    H145626   4.716   1.311  11.481 -2.3827 -0.8230 -0.0723
 8045TIP3    H245627   4.657   1.429  11.406 -3.2954 -0.8551  0.5881
 8046TIP3   OH245628   6.137   3.044   4.707 -0.0939  0.3761  0.0702
 8046TIP3    H145629   6.172   2.956   4.718  1.5914  1.1127  0.9737
 8046TIP3    H245630   6.043   3.034   4.724 -0.0503 -1.3396 -0.4948
 8047TIP3   OH245631   1.240   4.456  15.977  0.2381 -0.2519  0.5589
 8047TIP3    H145632   1.263   4.499  16.060 -0.1929  1.5806 -0.2218
 8047TIP3    H245633   1.220   4.528  15.918 -1.3904 -1.5716 -0.5932
 8048TIP3   OH245634   4.497   6.213  17.092  0.1258  0.0426  0.2250
 8048TIP3    H145635   4.472   6.278  17.158 -0.8654  1.9658 -1.8820
 8048TIP3    H245636   4.593   6.219  17.087  0.1889  0.0359  1.2960
 8049TIP3   OH245637   4.325   1.766  14.746  0.5702  0.1930  0.5432
 8049TIP3    H145638   4.254   1.819  14.782  0.1238 -0.4938  0.6876
 8049TIP3    H245639   4.318   1.682  14.791  2.4964  0.6218  1.7795
 8050TIP3   OH245640   3.298   6.040  16.987 -0.3174  0.1007  0.1766
 8050TIP3    H145641   3.202   6.042  16.979 -0.3793  1.4745  0.8622
 8050TIP3    H245642   3.323   6.132  16.985  0.7928 -0.1238  2.0452
 8051TIP3   OH245643   6.275   0.321   3.330 -0.0977  0.0843 -0.2836
 8051TIP3    H145644   6.191   0.276   3.318 -0.3931  0.4056  0.4887
 8051TIP3    H245645   6.294   0.310   3.423 -0.1511  1.5029 -0.0831
 8052TIP3   OH245646   2.794   0.782  14.867 -0.3040  0.1952 -0.2069
 8052TIP3    H145647   2.796   0.878  14.865 -0.5156  0.2307  0.8710
 8052TIP3    H245648   2.800   0.757  14.775  0.0910  1.2363 -0.4846
 8053TIP3   OH245649   4.753   5.448  15.599 -0.1361  0.6633 -0.0464
 8053TIP3    H145650   4.658   5.458  15.606 -0.4487 -1.5944 -0.1754
 8053TIP3    H245651   4.776   5.392  15.674  0.8692  0.0397 -0.7970
 8054TIP3   OH245652   1.110   1.505   5.332  0.5452  0.1187  0.6195
 8054TIP3    H145653   1.071   1.592   5.323  0.0798 -0.3294 -2.7639
 8054TIP3    H245654   1.036   1.445   5.333  0.9403 -0.4577 -1.3249
 8055TIP3   OH245655   6.167   6.600   6.461 -0.4270 -0.2901 -0.0526
 8055TIP3    H145656   6.206   6.534   6.405 -1.3571 -0.6080 -0.3440
 8055TIP3    H245657   6.110   6.551   6.521 -1.7207  0.2732 -0.7699
 8056TIP3   OH245658   0.762   3.790  11.701  0.4293  0.5553  0.8639
 8056TIP3    H145659   0.700   3.827  11.638 -0.4891  0.8707  1.9167
 8056TIP3    H245660   0.708   3.735  11.758  1.7199 -2.4901 -0.6073
 8057TIP3   OH245661   4.628   3.215   0.184 -0.6003  0.1347 -0.0689
 8057TIP3    H145662   4.610   3.215   0.278  2.2276 -0.4508  0.5756
 8057TIP3    H245663   4.663   3.127   0.167 -1.1420  0.2026 -1.7031
 8058TIP3   OH245664   2.002   4.045  16.099 -0.2419  0.1835  0.3023
 8058TIP3    H145665   2.091   4.018  16.119 -0.4984 -1.4870 -0.6001
 8058TIP3    H245666   1.969   4.084  16.180  1.8603  2.4957  0.1467
 8059TIP3   OH245667   0.913   5.763  16.877  0.5094 -0.1705  0.0706
 8059TIP3    H145668   0.843   5.697  16.874  1.1815 -0.8866 -1.8135
 8059TIP3    H245669   0.979   5.725  16.935 -0.0964 -0.0572  0.8588
 8060TIP3   OH245670   3.443   6.096  15.202 -0.0315 -0.5151 -0.2493
 8060TIP3    H145671   3.393   6.106  15.121  0.5794  0.1710 -0.5524
 8060TIP3    H245672   3.524   6.054  15.175  2.3475  3.9766 -0.9100
 8061TIP3   OH245673   1.089   1.450  12.661  0.4980  0.5020  0.0434
 8061TIP3    H145674   1.045   1.481  12.740 -1.0990  0.4707 -0.8060
 8061TIP3    H245675   1.033   1.379  12.628 -0.0183  1.8767 -2.2400
 8062TIP3   OH245676   4.518   2.609   0.662  0.0176  0.3336  0.2450
 8062TIP3    H145677   4.439   2.630   0.613 -0.2544  0.7185  0.8306
 8062TIP3    H245678   4.588   2.656   0.616 -0.1857  0.4448  0.0499
 8063TIP3   OH245679   2.788   0.502   0.965 -0.7103  0.3288  0.3315
 8063TIP3    H145680   2.803   0.571   0.901 -0.1246 -0.7641 -0.7493
 8063TIP3    H245681   2.693   0.497   0.973 -0.7497  2.2925  1.6187
 8064TIP3   OH245682   2.098   1.089  17.391 -0.4998  0.0341  0.3756
 8064TIP3    H145683   2.042   1.059  17.320  1.7746 -0.0128 -1.5588
 8064TIP3    H245684   2.170   1.026  17.393  0.4421  1.0855  1.4698
 8065TIP3   OH245685   3.195   5.593   3.853 -0.1692 -0.3338  0.3523
 8065TIP3    H145686   3.193   5.618   3.946 -1.1676 -0.6210  0.4230
 8065TIP3    H245687   3.267   5.644   3.816 -1.8414  2.4084  0.5815
 8066TIP3   OH245688   1.919   2.106   4.380 -0.4677  0.8052 -0.6413
 8066TIP3    H145689   1.854   2.174   4.362 -3.6109 -2.1421 -1.6435
 8066TIP3    H245690   1.909   2.088   4.473 -0.6684  0.7757 -0.6671
 8067TIP3   OH245691   6.192   0.459   1.627 -0.0206  0.1798 -0.1381
 8067TIP3    H145692   6.130   0.388   1.616 -2.4248  1.8566  1.4667
 8067TIP3    H245693   6.259   0.423   1.685 -0.2377 -1.2550 -0.7395
 8068TIP3   OH245694   5.879   3.697  17.302  0.3340  0.1657 -0.6853
 8068TIP3    H145695   5.837   3.782  17.316  0.5959  0.1887  0.0087
 8068TIP3    H245696   5.907   3.670  17.390 -1.1037 -1.3470 -0.6547
 8069TIP3   OH245697   4.227   2.073  11.415 -0.0852 -0.4272  0.1185
 8069TIP3    H145698   4.240   2.141  11.348  1.5654 -0.6995  0.1252
 8069TIP3    H245699   4.167   2.113  11.478 -2.2141 -0.3725 -1.7716
 8070TIP3   OH245700   5.483   1.480   6.306 -0.5630  0.4749 -0.2281
 8070TIP3    H145701   5.398   1.451   6.273 -0.6438  1.5049 -0.9945
 8070TIP3    H245702   5.462   1.543   6.375 -0.4480  1.0091 -0.6678
 8071TIP3   OH245703   3.925   6.312  15.726  0.2479 -0.0838 -0.2674
 8071TIP3    H145704   3.888   6.319  15.814 -1.1722 -1.8151 -0.6769
 8071TIP3    H245705   3.852   6.332  15.667  0.6235 -1.0212 -1.0767
 8072TIP3   OH245706   3.605   6.321   5.988  0.1879  0.1691  0.1088
 8072TIP3    H145707   3.688   6.302   5.944  0.0508  1.1600 -0.6193
 8072TIP3    H245708   3.559   6.237   5.989  0.7740 -0.1687 -0.4053
 8073TIP3   OH245709   2.471   5.318  14.879  0.3283  0.7618 -1.1732
 8073TIP3    H145710   2.426   5.402  14.891 -0.0506  0.5842 -1.3319
 8073TIP3    H245711   2.438   5.263  14.950 -0.2992  0.3842 -1.7480
 8074TIP3   OH245712   3.107   0.823   3.875 -0.0855 -0.0197  0.2845
 8074TIP3    H145713   3.079   0.904   3.833 -0.4897  0.3653  1.2490
 8074TIP3    H245714   3.076   0.832   3.966 -1.1236 -1.7331  0.1386
 8075TIP3   OH245715   5.762   1.033   1.511 -0.1940  0.0030  0.6644
 8075TIP3    H145716   5.672   1.060   1.526 -1.0110 -1.5870 -0.9884
 8075TIP3    H245717   5.772   1.032   1.416  1.5104 -0.0559  0.8033
 8076TIP3   OH245718   0.819   2.237  12.672  0.6622 -0.1651 -0.6812
 8076TIP3    H145719   0.898   2.184  12.681  2.0579  1.8093 -0.5674
 8076TIP3    H245720   0.839   2.318  12.718 -1.2516  0.6008 -1.0983
 8077TIP3   OH245721   4.529   5.337  12.898 -0.1733  0.3749  0.1373
 8077TIP3    H145722   4.579   5.390  12.960  0.6742 -0.0543 -0.1719
 8077TIP3    H245723   4.560   5.365  12.812 -1.9053  1.5397 -0.1608
 8078TIP3   OH245724   3.740   1.233  15.470 -0.5055  0.3066 -0.4125
 8078TIP3    H145725   3.762   1.230  15.376 -1.3016 -0.5585 -0.5773
 8078TIP3    H245726   3.804   1.175  15.511 -0.3082  0.4979 -0.4471
 8079TIP3   OH245727   2.466   1.066   6.621  0.4299  0.1416 -0.1172
 8079TIP3    H145728   2.547   1.113   6.603 -0.5440  2.3524  0.7980
 8079TIP3    H245729   2.402   1.104   6.560 -0.1867 -0.6922 -0.0102
 8080TIP3   OH245730   0.167   4.053  11.342 -0.0378  0.2681  0.5430
 8080TIP3    H145731   0.178   3.959  11.355 -0.3267  0.5099  2.9440
 8080TIP3    H245732   0.200   4.093  11.422 -3.9508  1.9108  1.6153
 8081TIP3   OH245733   0.685   0.296   2.662  0.1928 -0.3174 -0.0106
 8081TIP3    H145734   0.682   0.368   2.725 -2.0991  0.4770 -0.9150
 8081TIP3    H245735   0.625   0.323   2.593  0.9595 -2.1497 -1.4625
 8082TIP3   OH245736   1.181   5.055   5.910  0.2493 -0.2129 -0.5383
 8082TIP3    H145737   1.157   4.984   5.969 -0.6654  1.8867  1.7847
 8082TIP3    H245738   1.101   5.106   5.901  1.7116  2.5368  0.8842
 8083TIP3   OH245739   1.599   5.009  16.514 -0.2067  0.1032 -0.2127
 8083TIP3    H145740   1.587   4.935  16.573  0.0768 -1.3002 -1.8244
 8083TIP3    H245741   1.685   4.994  16.474 -0.6737  0.6127 -1.4617
 8084TIP3   OH245742   6.180   1.956  14.949  0.3678 -0.0220  0.1781
 8084TIP3    H145743   6.139   2.038  14.977 -0.7620 -0.1500 -1.0088
 8084TIP3    H245744   6.212   1.917  15.030 -1.1527  0.4893  1.0820
 8085TIP3   OH245745   2.986   0.321   0.919 -0.0587  0.2745 -0.3921
 8085TIP3    H145746   2.931   0.391   0.953  1.1955 -0.4162  3.5706
 8085TIP3    H245747   2.928   0.270   0.863 -2.0648  2.1932 -0.2155
 8086TIP3   OH245748   5.053   5.743   1.564 -0.5729 -0.0841 -0.0115
 8086TIP3    H145749   5.030   5.656   1.595 -1.1007  0.4781  1.2468
 8086TIP3    H245750   4.972   5.777   1.526  0.2774 -1.1328 -3.1230
 8087TIP3   OH245751   4.486   0.682  15.156  0.4607  0.4299  0.0691
 8087TIP3    H145752   4.518   0.749  15.216  2.0110 -0.1507 -0.0699
 8087TIP3    H245753   4.405   0.651  15.195  0.8266  0.8951  1.2335
 8088TIP3   OH245754   1.008   5.601  17.111 -0.1531 -0.1653  0.2159
 8088TIP3    H145755   1.042   5.544  17.180  1.0984  0.8670  0.4985
 8088TIP3    H245756   0.913   5.599  17.122 -0.1266 -1.9033  0.4189
 8089TIP3   OH245757   5.445   6.062  11.452  0.3426 -0.2447 -0.2584
 8089TIP3    H145758   5.384   6.040  11.523  1.5093  0.6933  1.0965
 8089TIP3    H245759   5.397   6.125  11.398 -0.0619  0.1558  0.5464
 8090TIP3   OH245760   6.080   1.582  11.775  0.0051 -0.3152  0.6110
 8090TIP3    H145761   6.089   1.487  11.790 -0.3946 -0.5836 -0.7392
 8090TIP3    H245762   6.029   1.613  11.849  0.7392 -1.0277  1.4505
 8091TIP3   OH245763   1.329   4.730  17.303 -0.0623  0.3648 -0.3538
 8091TIP3    H145764   1.403   4.783  17.332  1.0941 -0.4787 -1.6017
 8091TIP3    H245765   1.313   4.670  17.376  0.8953  0.1776 -0.2769
 8092TIP3   OH245766   3.485   3.605  14.902 -0.0290  0.6764 -0.0549
 8092TIP3    H145767   3.448   3.633  14.986  1.4927  1.9057  0.2564
 8092TIP3    H245768   3.409   3.596  14.845 -0.9430  1.7149  0.9261
 8093TIP3   OH245769   1.893   3.831  12.282  0.5747  0.6441  0.1700
 8093TIP3    H145770   1.967   3.771  12.275  0.5380  0.5960  0.1921
 8093TIP3    H245771   1.916   3.889  12.355  1.3050  1.6280 -0.8073
 8094TIP3   OH245772   3.229   5.038   0.039 -0.3276  0.1771  0.3937
 8094TIP3    H145773   3.279   5.000   0.110  1.5504  2.2763  0.3162
 8094TIP3    H245774   3.254   4.987  -0.038 -0.9081 -0.8754  0.8715
 8095TIP3   OH245775   6.341   2.800  16.240 -0.5246  0.1899  0.4273
 8095TIP3    H145776   6.433   2.789  16.261 -0.2477 -1.1922 -1.2323
 8095TIP3    H245777   6.339   2.870  16.175 -0.3870 -0.9134 -0.8196
 8096TIP3   OH245778   1.248   4.202  12.677 -0.0563 -0.2166  0.2841
 8096TIP3    H145779   1.305   4.210  12.753  0.8520  3.2864 -0.5413
 8096TIP3    H245780   1.296   4.145  12.617  1.1211  0.1258  0.8597
 8097TIP3   OH245781   4.319   2.994  13.309  0.0364  0.0275 -0.0903
 8097TIP3    H145782   4.381   3.067  13.304  0.7055 -0.5205  0.1250
 8097TIP3    H245783   4.357   2.926  13.254 -0.1449 -0.4817  0.4039
 8098TIP3   OH245784   4.608   0.793   2.565 -0.3243  0.2773  0.2590
 8098TIP3    H145785   4.530   0.828   2.523  0.4735  1.7906 -0.0617
 8098TIP3    H245786   4.589   0.700   2.580 -2.1478  0.6121  0.1818
 8099TIP3   OH245787   2.759   1.644  13.106  0.1198 -0.2104  0.0736
 8099TIP3    H145788   2.836   1.625  13.161  0.3584  1.4178  0.3543
 8099TIP3    H245789   2.692   1.583  13.137  1.0473 -1.1148  0.3722
 8100TIP3   OH245790   4.868   0.872   5.860  0.2397 -0.5496  0.4850
 8100TIP3    H145791   4.856   0.898   5.951  2.8953  0.3001  0.6836
 8100TIP3    H245792   4.889   0.779   5.864  0.6883 -0.4378  0.7941
 8101TIP3   OH245793   0.670   5.244   0.389 -0.1038 -0.2405  0.1498
 8101TIP3    H145794   0.766   5.244   0.384 -0.0452 -0.0262  1.0750
 8101TIP3    H245795   0.642   5.205   0.307  0.7253  1.2219 -0.8798
 8102TIP3   OH245796   4.529   5.056  15.844 -0.5556 -0.1645 -0.1524
 8102TIP3    H145797   4.480   4.980  15.813  2.2284 -1.9925 -0.4160
 8102TIP3    H245798   4.542   5.041  15.937 -1.3179  0.8365  0.1380
 8103TIP3   OH245799   1.583   1.002   4.904 -0.2171 -0.1893 -0.1714
 8103TIP3    H145800   1.664   1.051   4.892 -0.3995 -0.4760 -3.4415
 8103TIP3    H245801   1.519   1.068   4.933  0.9015  0.1942  1.5998
 8104TIP3   OH245802   1.075   4.416  12.668  0.9595 -0.1096  0.2286
 8104TIP3    H145803   1.133   4.487  12.640  1.2430 -1.0356 -1.6322
 8104TIP3    H245804   1.126   4.336  12.655 -0.1156 -0.8254  0.2341
 8105TIP3   OH245805   4.212   1.898  12.288  0.1619  0.4664  0.0091
 8105TIP3    H145806   4.289   1.845  12.310 -0.7398 -0.9560 -0.1334
 8105TIP3    H245807   4.218   1.912  12.194  0.7001  1.1387  0.1326
 8106TIP3   OH245808   3.963   0.339  12.094  0.3675 -0.4441  0.7966
 8106TIP3    H145809   4.027   0.403  12.063 -0.8044  0.3060 -0.1954
 8106TIP3    H245810   3.879   0.385  12.087 -0.4672 -1.9783  0.3954
 8107TIP3   OH245811   0.557   4.831   2.730 -0.2415  0.1901  0.3851
 8107TIP3    H145812   0.649   4.806   2.744  0.2413  1.6944  0.0115
 8107TIP3    H245813   0.550   4.847   2.636 -1.1031 -0.6672  0.2862
 8108TIP3   OH245814   0.955   0.539  15.308 -0.2258  0.5628 -0.5389
 8108TIP3    H145815   1.026   0.487  15.271 -0.1087  1.3711 -1.4714
 8108TIP3    H245816   0.966   0.530  15.403 -0.0098 -0.8243 -0.6761
 8109TIP3   OH245817   4.864   5.876   5.762  0.0083  0.3858  0.5389
 8109TIP3    H145818   4.826   5.953   5.805  0.8404  1.2731 -0.2595
 8109TIP3    H245819   4.955   5.902   5.743  0.1855 -0.6544 -0.0932
 8110TIP3   OH245820   3.305   4.548  13.706  0.3094  0.2839 -0.1309
 8110TIP3    H145821   3.226   4.500  13.681 -0.0352  0.8781 -0.2091
 8110TIP3    H245822   3.325   4.518  13.795 -0.7925  1.0993  0.4267
 8111TIP3   OH245823   0.062   5.559  13.332  0.1573 -0.4246  0.6633
 8111TIP3    H145824   0.039   5.533  13.242  1.1736 -1.0902  0.5798
 8111TIP3    H245825  -0.002   5.627  13.354 -0.5856 -0.7860 -0.2848
 8112TIP3   OH245826   4.777   1.040   3.571  0.8094 -0.0504  0.1685
 8112TIP3    H145827   4.786   0.993   3.654 -1.0275  1.3592  1.2364
 8112TIP3    H245828   4.745   0.974   3.510  1.4431 -0.9375  0.7745
 8113TIP3   OH245829   5.932   4.382   0.716  0.2086  0.3984 -0.1815
 8113TIP3    H145830   5.938   4.290   0.743 -2.3953  1.0410  3.3776
 8113TIP3    H245831   5.897   4.378   0.627  1.6958 -2.0067 -0.7619
 8114TIP3   OH245832   6.622   6.174  12.601 -0.5136  0.2074  0.3051
 8114TIP3    H145833   6.709   6.200  12.630  0.1821 -0.1351 -1.3258
 8114TIP3    H245834   6.590   6.114  12.668  0.5272  0.3170  0.9094
 8115TIP3   OH245835   4.095   4.479  13.513 -0.1041  0.5091 -0.3299
 8115TIP3    H145836   4.134   4.498  13.599 -0.7274  1.3665 -0.2219
 8115TIP3    H245837   4.015   4.532  13.511 -1.6140 -1.6115 -0.2890
 8116TIP3   OH245838   3.116   5.510  11.897 -0.4357 -0.1168 -0.0939
 8116TIP3    H145839   3.147   5.427  11.862  1.7632  0.3347  0.5643
 8116TIP3    H245840   3.135   5.574  11.828 -0.5193  0.0794  0.0633
 8117TIP3   OH245841   3.436   6.663  13.570  0.1649  0.0394 -0.1871
 8117TIP3    H145842   3.416   6.731  13.635  0.0058  0.3579 -0.5689
 8117TIP3    H245843   3.442   6.710  13.487 -0.0132 -0.4239 -0.4660
 8118TIP3   OH245844   4.124   0.335   0.191  0.0483  0.4556 -0.4683
 8118TIP3    H145845   4.063   0.363   0.259 -0.3997 -0.6781 -0.3817
 8118TIP3    H245846   4.202   0.389   0.205 -0.4623  1.0372  0.2168
 8119TIP3   OH245847   1.390   5.344   3.452 -0.2118 -0.3842  0.3241
 8119TIP3    H145848   1.363   5.370   3.540 -0.2087  1.3680 -0.1562
 8119TIP3    H245849   1.436   5.420   3.417  0.5191 -1.3433 -0.8994
 8120TIP3   OH245850   3.821   0.166   0.249 -0.3076  0.0342  0.5215
 8120TIP3    H145851   3.847   0.076   0.232 -1.9571 -0.5620  0.9932
 8120TIP3    H245852   3.873   0.192   0.325  0.2563 -0.4715  0.3183
 8121TIP3   OH245853   3.982   1.412  13.458 -0.3637  0.3811  0.2209
 8121TIP3    H145854   4.068   1.421  13.501  0.0677 -0.1061 -0.5165
 8121TIP3    H245855   3.937   1.344  13.507  0.0135  0.0337  0.0893
 8122TIP3   OH245856   4.751   3.059   5.081  0.1634 -0.6395 -0.4127
 8122TIP3    H145857   4.787   3.023   5.000  0.5546 -0.3086 -0.3877
 8122TIP3    H245858   4.684   2.995   5.108 -2.3548  0.8497 -2.7406
 8123TIP3   OH245859   2.020   0.191   5.691 -0.3177  0.6257 -0.5873
 8123TIP3    H145860   2.114   0.176   5.685 -0.6400 -3.0098  0.6684
 8123TIP3    H245861   2.005   0.216   5.783 -0.8789 -4.3038  0.9387
 8124TIP3   OH245862   4.331   1.625   5.155 -0.4305  0.0979  0.3687
 8124TIP3    H145863   4.415   1.637   5.199  1.2385  0.0358 -2.5613
 8124TIP3    H245864   4.320   1.703   5.101 -1.0761 -0.9239 -1.0606
 8125TIP3   OH245865   4.163   4.005   2.204  0.0228  0.7329  0.5369
 8125TIP3    H145866   4.155   3.959   2.120 -1.0281 -1.4379  1.7569
 8125TIP3    H245867   4.245   4.054   2.196  2.3179 -2.8720 -0.2267
 8126TIP3   OH245868   5.168   6.347  12.804  0.2365 -0.6984 -0.2180
 8126TIP3    H145869   5.175   6.432  12.847  1.3446  0.0740 -1.8211
 8126TIP3    H245870   5.189   6.365  12.712  1.8438 -2.8975 -0.3659
 8127TIP3   OH245871   5.757   1.938  12.192  0.1359 -0.2440  0.2023
 8127TIP3    H145872   5.797   1.989  12.121  2.0718  0.0892  1.4361
 8127TIP3    H245873   5.755   1.849  12.158  0.9883 -0.0873 -0.3142
 8128TIP3   OH245874   3.900   5.380  17.117 -0.3821 -0.2977 -0.3471
 8128TIP3    H145875   3.814   5.415  17.097 -0.8967 -1.3518 -0.0846
 8128TIP3    H245876   3.938   5.360  17.031  0.7190  2.5957 -0.6264
 8129TIP3   OH245877   6.506   0.083   1.595  0.1665 -0.5930 -0.2605
 8129TIP3    H145878   6.466   0.054   1.513  0.4489  0.2390 -0.7045
 8129TIP3    H245879   6.432   0.109   1.650  0.0443  0.3938 -0.8669
 8130TIP3   OH245880   4.105   2.670  15.802  0.0807  0.0650  0.5008
 8130TIP3    H145881   4.131   2.587  15.761  0.0352 -0.2845  1.1662
 8130TIP3    H245882   4.025   2.649  15.851  0.4560  0.3251  1.2492
 8131TIP3   OH245883   0.718   2.767  16.448 -0.2475 -0.4722 -0.2873
 8131TIP3    H145884   0.660   2.833  16.410  0.0780  0.9588  1.5735
 8131TIP3    H245885   0.673   2.739  16.528 -0.1919 -2.2715 -0.8338
 8132TIP3   OH245886   1.743   1.595  11.773 -0.1050 -0.2909 -0.0618
 8132TIP3    H145887   1.799   1.626  11.844  1.6547 -2.0280 -0.6103
 8132TIP3    H245888   1.675   1.544  11.817 -0.3930  0.5355  0.4951
 8133TIP3   OH245889   0.989   0.537  16.029 -0.0297 -0.5854 -0.0343
 8133TIP3    H145890   0.988   0.468  16.096 -3.6186  0.4754  1.2639
 8133TIP3    H245891   0.974   0.490  15.947  1.3842 -1.6466  0.2788
 8134TIP3   OH245892   4.836   4.468  14.158  0.5164  0.1079  0.2122
 8134TIP3    H145893   4.871   4.557  14.160 -0.2514  0.4282 -0.2792
 8134TIP3    H245894   4.751   4.474  14.201  1.3676 -0.8356  2.1575
 8135TIP3   OH245895   0.247   1.487  17.060 -0.2982  0.0054 -0.4902
 8135TIP3    H145896   0.213   1.555  17.119 -2.6333 -0.5237 -1.1224
 8135TIP3    H245897   0.267   1.534  16.979 -2.7908 -0.0744 -1.2515
 8136TIP3   OH245898   0.281   3.026  14.168 -0.2679  0.4647  0.1243
 8136TIP3    H145899   0.280   2.955  14.233  1.7138 -0.2540 -0.5412
 8136TIP3    H245900   0.281   3.106  14.220 -0.0272 -0.0647  0.9722
 8137TIP3   OH245901   3.531   4.838   3.773  0.5101 -0.5183  0.1805
 8137TIP3    H145902   3.490   4.862   3.690 -0.7582 -1.8529  0.3793
 8137TIP3    H245903   3.485   4.890   3.838  2.5841  1.7559 -0.0245
 8138TIP3   OH245904   4.778   1.350  16.507  0.7097 -0.1570  0.8238
 8138TIP3    H145905   4.702   1.380  16.457  1.4313 -0.6413 -0.6416
 8138TIP3    H245906   4.743   1.323  16.591 -0.7505 -0.4537  0.1534
 8139TIP3   OH245907   0.844   1.781   6.460 -0.2525  0.2921 -0.7576
 8139TIP3    H145908   0.901   1.719   6.414 -0.5211  0.2725 -1.0679
 8139TIP3    H245909   0.904   1.841   6.504  0.0429 -0.7767  0.3745
 8140TIP3   OH245910   0.697   5.137  15.123 -0.5561 -0.1761  0.0239
 8140TIP3    H145911   0.786   5.101  15.114 -0.0326  0.7609  1.1545
 8140TIP3    H245912   0.679   5.176  15.038  0.0052 -0.6440 -0.3163
 8141TIP3   OH245913   2.595   3.112  11.876  0.0472  0.1656 -0.0335
 8141TIP3    H145914   2.676   3.156  11.900  0.0047  0.4746 -0.4442
 8141TIP3    H245915   2.622   3.035  11.825  0.2349 -1.4600  2.3420
 8142TIP3   OH245916   0.324   5.607   6.237  0.1712 -0.2247 -0.1368
 8142TIP3    H145917   0.402   5.617   6.292 -0.1605 -0.3925  0.3793
 8142TIP3    H245918   0.253   5.594   6.300 -0.2427 -0.2547 -0.6082
 8143TIP3   OH245919   6.740   6.460  11.338 -0.2125 -0.7690  0.0743
 8143TIP3    H145920   6.649   6.485  11.357  0.4136  1.7889  0.1395
 8143TIP3    H245921   6.735   6.422  11.250 -1.4084 -1.1199  0.2682
 8144TIP3   OH245922   1.713   2.430   2.682 -0.0442  0.0578 -0.1080
 8144TIP3    H145923   1.687   2.353   2.733 -1.4665 -0.3159 -1.3331
 8144TIP3    H245924   1.698   2.503   2.741  1.5005 -0.5741  1.1432
 8145TIP3   OH245925   6.268   3.735   5.554 -0.8652 -0.1760 -0.2922
 8145TIP3    H145926   6.243   3.738   5.462  0.6516 -2.7444 -0.8930
 8145TIP3    H245927   6.359   3.705   5.553  0.0921  2.2459  1.9917
 8146TIP3   OH245928   2.716   4.253  12.843  0.0623  0.0696 -0.5991
 8146TIP3    H145929   2.779   4.297  12.900 -1.4485 -1.3512  2.3945
 8146TIP3    H245930   2.643   4.314  12.836 -0.9391 -0.8183  1.4243
 8147TIP3   OH245931   6.519   6.251   2.421 -0.3730  0.2375  0.0166
 8147TIP3    H145932   6.551   6.303   2.347 -2.1376 -1.0676 -1.8075
 8147TIP3    H245933   6.439   6.295   2.448 -1.5653 -1.0969 -1.1643
 8148TIP3   OH245934   2.913   4.078   1.762 -0.2975  0.5469 -0.0912
 8148TIP3    H145935   2.838   4.109   1.812  0.6481 -0.3194  1.9772
 8148TIP3    H245936   2.881   4.071   1.672 -1.8236  2.9780  0.1896
 8149TIP3   OH245937   0.584   0.132  16.973  0.0283  0.0761 -0.3951
 8149TIP3    H145938   0.594   0.092  16.887 -0.4093 -2.2043  0.5351
 8149TIP3    H245939   0.502   0.096  17.007  0.3465  0.6787  1.1054
 8150TIP3   OH245940   5.488   0.354  15.229 -0.3090  0.2480  0.3645
 8150TIP3    H145941   5.549   0.286  15.202 -0.2619  0.0891  0.8548
 8150TIP3    H245942   5.500   0.360  15.324 -1.0668  0.2036  0.4657
 8151TIP3   OH245943   1.134   2.159   0.985 -0.4362  0.0972 -0.3924
 8151TIP3    H145944   1.053   2.211   0.986 -0.3095  0.3644 -1.9176
 8151TIP3    H245945   1.162   2.158   1.076 -1.1024  1.6889 -0.1278
 8152TIP3   OH245946   5.939   0.086   2.106 -0.7661  0.1352  0.2196
 8152TIP3    H145947   5.970   0.134   2.183  0.1090 -0.2078  0.0966
 8152TIP3    H245948   5.890   0.012   2.142  0.8182 -0.8310  0.5315
 8153TIP3   OH245949   0.117   2.729  11.926  0.2570 -0.0788 -0.0751
 8153TIP3    H145950   0.157   2.712  11.841  0.4022 -0.9288  0.1512
 8153TIP3    H245951   0.156   2.811  11.956 -0.0568  0.4116 -0.9724
 8154TIP3   OH245952   0.373   6.051   4.923 -0.0268  0.2924 -0.1127
 8154TIP3    H145953   0.431   6.022   4.993  0.4092  1.1254 -0.1249
 8154TIP3    H245954   0.404   6.003   4.846  0.1126  0.1075  0.0569
 8155TIP3   OH245955   0.049   4.378  11.381 -0.0293  0.4354 -0.2168
 8155TIP3    H145956  -0.028   4.322  11.379  0.7476 -0.6395 -0.4335
 8155TIP3    H245957   0.085   4.373  11.293 -1.0223  2.8608 -0.8615
 8156TIP3   OH245958   5.426   4.790  14.110  0.1005 -0.7001 -0.2336
 8156TIP3    H145959   5.429   4.756  14.021 -1.0149  2.2276 -1.5350
 8156TIP3    H245960   5.499   4.852  14.114 -0.8756  0.4655  0.2584
 8157TIP3   OH245961   6.726   6.761  15.007  0.5806  0.2061  0.3060
 8157TIP3    H145962   6.727   6.829  15.074 -0.0994 -0.7098  1.2880
 8157TIP3    H245963   6.672   6.797  14.936  1.8442  1.4404 -0.0667
 8158TIP3   OH245964   0.698   1.240   5.306 -0.4013  0.1930 -0.3224
 8158TIP3    H145965   0.672   1.254   5.215 -0.3281 -1.8734 -0.7097
 8158TIP3    H245966   0.708   1.145   5.314 -1.4053  0.2177  2.1243
 8159TIP3   OH245967   0.494   2.781   6.627  0.6765  0.0748 -0.1779
 8159TIP3    H145968   0.501   2.745   6.539 -1.0791 -0.8025  0.0001
 8159TIP3    H245969   0.403   2.810   6.634  0.9492  0.6938  1.1435
 8160TIP3   OH245970   1.919   2.400   1.850  0.3192 -0.4682  0.0432
 8160TIP3    H145971   1.830   2.384   1.884 -0.3138  0.0285 -1.3002
 8160TIP3    H245972   1.974   2.337   1.897 -0.6552 -0.4564  1.2595
 8161TIP3   OH245973   6.147   0.574  17.213 -0.0890 -0.0015  0.7877
 8161TIP3    H145974   6.123   0.590  17.122  0.9915  0.9597  0.6472
 8161TIP3    H245975   6.206   0.498  17.208  2.4282  1.8524  0.2513
 8162TIP3   OH245976   4.044   2.506  15.336 -0.3997 -0.1272 -0.0322
 8162TIP3    H145977   4.106   2.570  15.371 -0.4022  1.1242 -2.1717
 8162TIP3    H245978   4.098   2.440  15.294 -0.4613 -0.5060  0.4713
 8163TIP3   OH245979   1.119   4.286  14.797  0.3168 -0.6078 -0.5700
 8163TIP3    H145980   1.117   4.318  14.707 -0.1866 -1.0113 -0.7062
 8163TIP3    H245981   1.154   4.198  14.790 -2.3010 -1.7345 -0.7385
 8164TIP3   OH245982   5.603   5.741  14.121 -0.3568 -0.1429 -0.5060
 8164TIP3    H145983   5.620   5.660  14.073 -0.2395  0.5188 -1.6163
 8164TIP3    H245984   5.669   5.802  14.088 -0.5584  0.4607  0.1949
 8165TIP3   OH245985   5.355   3.435  12.287 -0.8175 -0.5168  1.0094
 8165TIP3    H145986   5.391   3.420  12.374 -1.0230 -1.1482  0.9883
 8165TIP3    H245987   5.331   3.528  12.287  0.6386 -0.1155  1.0861
 8166TIP3   OH245988   1.796   1.098   3.665  0.5451 -0.2842 -0.2567
 8166TIP3    H145989   1.773   1.094   3.757 -1.1474 -2.6809 -0.6794
 8166TIP3    H245990   1.738   1.165   3.628  0.4046 -0.1547  0.1945
 8167TIP3   OH245991   2.202   3.082   2.916 -0.2607  0.9657  0.4303
 8167TIP3    H145992   2.195   3.000   2.867 -2.3416  1.1015  0.4274
 8167TIP3    H245993   2.282   3.071   2.968  1.3698  0.3363 -2.0298
 8168TIP3   OH245994   3.627   1.446  12.180 -0.4627  0.3250 -0.0022
 8168TIP3    H145995   3.539   1.415  12.201 -0.1991  1.0995  2.6994
 8168TIP3    H245996   3.685   1.389  12.231  0.2456  2.7318  2.0820
 8169TIP3   OH245997   0.552   0.434   3.416 -0.4524 -0.5906 -0.2440
 8169TIP3    H145998   0.518   0.361   3.468  0.3739 -1.9362 -1.5119
 8169TIP3    H245999   0.594   0.393   3.341 -0.8578  1.2469 -1.5616
 8170TIP3   OH246000   3.053   3.958   2.932 -0.2223 -0.0213  0.4862
 8170TIP3    H146001   3.052   3.940   3.026 -0.0720 -0.0629  0.4805
 8170TIP3    H246002   3.096   4.043   2.925  0.2511 -0.2637  0.4158
 8171TIP3   OH246003   4.162   1.563   2.046 -0.6445  0.2073  0.4152
 8171TIP3    H146004   4.192   1.614   2.121 -1.6019  0.8791  0.3519
 8171TIP3    H246005   4.157   1.626   1.975 -1.8860  0.0492  0.3453
 8172TIP3   OH246006   3.743   0.250   6.298 -0.2406  0.0114 -0.0119
 8172TIP3    H146007   3.666   0.225   6.350 -0.7404  1.1518 -0.1656
 8172TIP3    H246008   3.807   0.280   6.363 -0.2948  0.0065  0.0437
 8173TIP3   OH246009   2.520   2.110  14.779  0.3006  0.0475  0.0040
 8173TIP3    H146010   2.580   2.060  14.724  0.3393 -0.1703  0.2412
 8173TIP3    H246011   2.459   2.150  14.718  0.0714 -0.5517 -0.1746
 8174TIP3   OH246012   5.744   0.346   4.934 -0.8083 -0.2429 -0.1258
 8174TIP3    H146013   5.829   0.333   4.893 -0.5033  2.3222 -0.4767
 8174TIP3    H246014   5.681   0.340   4.862 -0.7694 -0.5186 -0.1378
 8175TIP3   OH246015   4.454   6.724  14.952 -0.0333  0.4683  0.5092
 8175TIP3    H146016   4.428   6.662  14.884 -1.5743  1.8343 -0.2308
 8175TIP3    H246017   4.548   6.712  14.962 -0.0984 -1.1055 -0.4791
 8176TIP3   OH246018   2.148   2.234  16.013  0.4726  0.0488 -0.8702
 8176TIP3    H146019   2.131   2.178  15.937 -1.4479 -2.2485  1.0629
 8176TIP3    H246020   2.213   2.185  16.064 -0.6178 -0.0644  0.4656
 8177TIP3   OH246021   6.617   6.143   1.306 -0.4545 -0.0743 -0.0667
 8177TIP3    H146022   6.585   6.169   1.393 -0.7067 -0.2468 -0.1061
 8177TIP3    H246023   6.552   6.080   1.275  0.7976 -1.7502  0.5652
 8178TIP3   OH246024   1.543   6.231   5.514 -0.6393 -0.0861 -0.2697
 8178TIP3    H146025   1.494   6.191   5.586 -0.2201  0.0176  0.0763
 8178TIP3    H246026   1.533   6.169   5.441  2.0250 -2.1843  0.9251
 8179TIP3   OH246027   0.096   2.356  12.838 -0.1308 -0.1065  0.5411
 8179TIP3    H146028   0.077   2.354  12.932 -1.1334  1.9021  0.4470
 8179TIP3    H246029   0.112   2.449  12.819  1.0604 -0.6025 -1.1074
 8180TIP3   OH246030   4.682   6.675   5.729 -0.1781  0.6715 -0.5687
 8180TIP3    H146031   4.591   6.703   5.739 -0.3529  1.0737 -2.7624
 8180TIP3    H246032   4.732   6.757   5.728  0.2780  0.4432  0.8657
 8181TIP3   OH246033   2.254   1.379   0.614  0.2644 -0.3070  0.3893
 8181TIP3    H146034   2.243   1.473   0.598  0.7747 -0.6511 -2.7118
 8181TIP3    H246035   2.345   1.369   0.639  0.5217 -0.0399 -0.3938
 8182TIP3   OH246036   2.152   4.088  14.587  0.2730  0.8409 -0.0589
 8182TIP3    H146037   2.137   4.176  14.552  0.9176  0.2574 -1.9476
 8182TIP3    H246038   2.206   4.102  14.664  0.3399  2.1115 -0.3042
 8183TIP3   OH246039   4.951   3.250  13.237 -0.2562  0.2033 -0.3859
 8183TIP3    H146040   4.961   3.344  13.257  0.4155  0.2477 -0.8882
 8183TIP3    H246041   5.041   3.216  13.237 -0.6290 -1.0972  2.7347
 8184TIP3   OH246042   4.607   3.440  14.175  0.4370  0.0513 -0.0123
 8184TIP3    H146043   4.668   3.514  14.171  0.2907  0.3013  1.6868
 8184TIP3    H246044   4.664   3.363  14.181  0.6108  0.2500  1.0877
 8185TIP3   OH246045   2.479   3.887  12.374  0.1613 -0.2160  0.0488
 8185TIP3    H146046   2.446   3.811  12.422 -1.7375 -0.2950 -1.2711
 8185TIP3    H246047   2.411   3.953  12.385 -0.6336 -0.4081 -2.8677
 8186TIP3   OH246048   6.275   2.718   3.966 -0.2105 -0.6042 -0.6355
 8186TIP3    H146049   6.228   2.730   3.883 -1.3203  0.5306  0.1158
 8186TIP3    H246050   6.234   2.781   4.026  1.2801 -0.6450  0.4853
 8187TIP3   OH246051   0.240   6.283  16.095  0.2601 -0.2536  0.3635
 8187TIP3    H146052   0.215   6.375  16.105  0.4180 -0.1539 -0.1424
 8187TIP3    H246053   0.269   6.276  16.005  0.1994 -0.8151  0.3860
 8188TIP3   OH246054   0.844   3.343   2.053  0.0935 -0.3719 -0.3252
 8188TIP3    H146055   0.761   3.295   2.052 -0.4900  0.5917  0.2198
 8188TIP3    H246056   0.854   3.372   2.143  0.6356  0.1836 -0.5553
 8189TIP3   OH246057   3.311   2.630  14.836 -0.3621 -0.0996  0.0975
 8189TIP3    H146058   3.249   2.667  14.898 -0.5795 -0.6433  0.2097
 8189TIP3    H246059   3.332   2.543  14.871 -1.3318 -0.8754 -1.1280
 8190TIP3   OH246060   1.420   6.740   3.409  0.5986 -1.2737  0.0053
 8190TIP3    H146061   1.491   6.788   3.366 -0.9401  0.5598 -0.6132
 8190TIP3    H246062   1.358   6.808   3.436 -0.3302 -2.7088  1.6974
 8191TIP3   OH246063   1.788   4.709   4.432 -0.2205 -0.2312  0.3045
 8191TIP3    H146064   1.867   4.758   4.409  0.4143 -0.4806  1.8304
 8191TIP3    H246065   1.818   4.619   4.442 -0.6326 -0.2891  1.1309
 8192TIP3   OH246066   4.862   1.005   5.619 -0.5867  0.4331 -0.1321
 8192TIP3    H146067   4.858   0.951   5.697  0.3643  1.1483  0.4367
 8192TIP3    H246068   4.903   0.949   5.553 -1.3070 -0.1410 -0.1072
 8193TIP3   OH246069   4.252   2.510  16.088  0.2932  0.6240  0.5226
 8193TIP3    H146070   4.172   2.476  16.129 -1.7390  2.0681 -1.9050
 8193TIP3    H246071   4.267   2.452  16.014  0.9395  0.9358  0.4013
 8194TIP3   OH246072   2.276   6.750  17.117 -0.7635 -0.0457  0.4917
 8194TIP3    H146073   2.276   6.751  17.213 -0.4931 -0.6843  0.5033
 8194TIP3    H246074   2.184   6.741  17.093 -1.0145  1.7166  0.6515
 8195TIP3   OH246075   4.708   6.757  12.853 -0.0898  0.2317  0.0664
 8195TIP3    H146076   4.679   6.760  12.762 -1.9346 -0.4799  0.5944
 8195TIP3    H246077   4.733   6.847  12.874  0.1676  0.4321 -1.0746
 8196TIP3   OH246078   6.075   4.049  13.308  0.0288 -0.4367 -0.2361
 8196TIP3    H146079   5.989   4.046  13.350 -0.4373  1.7699 -0.9021
 8196TIP3    H246080   6.132   3.999  13.367 -1.2810 -0.2359  1.2886
 8197TIP3   OH246081   3.214   1.153   1.352 -0.2726  0.0113 -0.0101
 8197TIP3    H146082   3.169   1.092   1.410 -2.9153  0.8455 -0.9972
 8197TIP3    H246083   3.287   1.102   1.316 -0.8249 -1.7054  1.1459
 8198TIP3   OH246084   6.059   5.863  13.714  0.3665  0.0245  0.4035
 8198TIP3    H146085   6.009   5.788  13.681  0.2308  0.1748  0.2691
 8198TIP3    H246086   6.096   5.832  13.797  3.0121 -1.3062 -1.1500
 8199TIP3   OH246087   1.485   5.354   0.871  0.1452  0.0368 -0.3293
 8199TIP3    H146088   1.474   5.364   0.776  0.1904  0.8396 -0.2534
 8199TIP3    H246089   1.395   5.353   0.905  0.1086 -0.8347 -0.4300
 8200TIP3   OH246090   4.854   4.957  15.606  0.0855 -0.4222  0.3309
 8200TIP3    H146091   4.845   4.982  15.698 -0.7652  1.6678 -0.2612
 8200TIP3    H246092   4.766   4.934  15.578  0.0531  0.4296 -0.3208
 8201TIP3   OH246093   3.221   6.764   6.361 -0.6397  0.0595  0.0868
 8201TIP3    H146094   3.167   6.740   6.437 -1.1022 -1.4546 -0.6822
 8201TIP3    H246095   3.304   6.719   6.377 -0.5084  0.2741  0.0070
 8202TIP3   OH246096   0.009   5.565  12.134 -0.0115  0.1812  0.0565
 8202TIP3    H146097   0.009   5.481  12.089  1.5676  0.8095 -1.2246
 8202TIP3    H246098   0.080   5.615  12.092  0.0338  1.6327  1.7423
 8203TIP3   OH246099   6.105   3.667   1.174  0.3356  0.3497 -0.2957
 8203TIP3    H146100   6.054   3.603   1.123  1.3672  1.3323 -2.6821
 8203TIP3    H246101   6.075   3.654   1.264 -0.8752 -2.1584 -0.9603
 8204TIP3   OH246102   1.519   5.337   1.939 -0.4589  0.5107  0.8648
 8204TIP3    H146103   1.495   5.409   1.998  2.9125  2.2542  0.3471
 8204TIP3    H246104   1.612   5.321   1.957 -0.0525 -0.8825 -1.9499
 8205TIP3   OH246105   1.053   5.589  15.069  0.0829 -0.1496  0.1678
 8205TIP3    H146106   1.064   5.494  15.066 -0.6461 -0.2346 -2.0127
 8205TIP3    H246107   1.129   5.621  15.117  0.6489 -1.7935  0.4292
 8206TIP3   OH246108   5.157   3.775  15.249 -0.1822 -0.2430 -0.0634
 8206TIP3    H146109   5.164   3.759  15.344  1.5430 -0.4927 -0.2120
 8206TIP3    H246110   5.245   3.798  15.222 -1.1815  2.7489 -1.1314
 8207TIP3   OH246111   0.070   5.943  13.272  0.2744  0.2747 -0.2825
 8207TIP3    H146112   0.116   5.965  13.191  0.7417  0.8756  0.1392
 8207TIP3    H246113  -0.017   5.916  13.243  0.1805  1.2111 -0.9373
 8208TIP3   OH246114   0.092   4.464   0.575  0.1892  0.4315  0.2531
 8208TIP3    H146115   0.110   4.370   0.565 -0.3005  0.5405 -2.3873
 8208TIP3    H246116   0.045   4.470   0.659  0.7528 -1.5837  0.7727
 8209TIP3   OH246117   1.023   1.431   4.898  0.7635  0.0191 -0.0621
 8209TIP3    H146118   1.019   1.397   4.808 -2.3409  0.9335 -0.3940
 8209TIP3    H246119   1.012   1.525   4.888  0.7531  0.1747  1.2621
 8210TIP3   OH246120   3.477   4.853   0.772 -0.5123 -0.4209 -0.3195
 8210TIP3    H146121   3.419   4.817   0.838 -0.0670 -0.3324  0.1236
 8210TIP3    H246122   3.559   4.805   0.783 -0.2551 -0.0153 -0.4319
 8211TIP3   OH246123   4.529   1.068  17.217  0.4726 -0.6456  0.0352
 8211TIP3    H146124   4.465   1.056  17.288 -1.0761 -0.6058 -1.3069
 8211TIP3    H246125   4.531   0.983  17.172 -1.2638  0.2984 -1.9974
 8212TIP3   OH246126   4.607   2.463   0.895  0.0822  0.0343  0.2221
 8212TIP3    H146127   4.556   2.500   0.823 -0.2207 -0.5601  0.1297
 8212TIP3    H246128   4.675   2.528   0.911 -1.8162  1.7806  1.6327
 8213TIP3   OH246129   3.728   0.223  13.750  0.0181  0.4057  0.0754
 8213TIP3    H146130   3.636   0.205  13.768  0.1987  0.0337  0.6573
 8213TIP3    H246131   3.766   0.138  13.727  0.5588  0.2635  1.4062
 8214TIP3   OH246132   1.102   1.784  16.665 -1.0907  0.5199 -0.0493
 8214TIP3    H146133   1.034   1.726  16.699 -1.2940  1.3133  0.9537
 8214TIP3    H246134   1.057   1.842  16.604 -0.9529 -0.1194 -0.7796
 8215TIP3   OH246135   6.291   1.583  13.825  0.1663 -0.4498  0.3752
 8215TIP3    H146136   6.258   1.559  13.738  1.6683 -0.5024 -0.2092
 8215TIP3    H246137   6.258   1.514  13.882 -2.0100  0.3133  0.1600
 8216TIP3   OH246138   2.793   2.856   4.857 -0.8024 -0.0440  0.8479
 8216TIP3    H146139   2.776   2.787   4.794  2.4510  0.3356 -0.6244
 8216TIP3    H246140   2.871   2.826   4.905 -0.2594  1.8616  1.2429
 8217TIP3   OH246141   2.871   6.356  16.587 -0.3267 -0.0628  0.3116
 8217TIP3    H146142   2.939   6.323  16.645 -0.9722 -2.2913 -0.1294
 8217TIP3    H246143   2.792   6.359  16.642 -0.6519 -0.9263 -0.1001
 8218TIP3   OH246144   0.979   5.551   3.309 -0.1367 -0.0595  0.0412
 8218TIP3    H146145   0.951   5.643   3.304 -0.6799 -0.2873 -1.8840
 8218TIP3    H246146   0.932   5.516   3.384 -0.5270  1.0377  0.3340
 8219TIP3   OH246147   0.685   2.222  10.778 -0.2552 -0.0206 -0.3813
 8219TIP3    H146148   0.651   2.301  10.735 -0.2087  1.1414  1.5814
 8219TIP3    H246149   0.607   2.176  10.808 -0.2680 -0.5869 -1.2382
 8220TIP3   OH246150   1.922   3.309  11.134  0.2432  0.2935  0.3853
 8220TIP3    H146151   1.960   3.332  11.049 -1.6362  0.4538 -0.4451
 8220TIP3    H246152   1.935   3.214  11.141  0.1255  0.2263 -0.2377
 8221TIP3   OH246153   0.762   4.473  14.017  0.1403 -0.1333  0.1972
 8221TIP3    H146154   0.691   4.459  13.954 -1.3882  0.2370  1.7587
 8221TIP3    H246155   0.786   4.565  14.006  2.7448 -0.9982 -2.5965
 8222TIP3   OH246156   3.821   4.986  13.763  0.3537 -0.2866 -0.5754
 8222TIP3    H146157   3.816   4.921  13.693 -3.3044  0.7337 -1.4761
 8222TIP3    H246158   3.764   4.953  13.832  0.0740  0.9857 -0.1704
 8223TIP3   OH246159   4.998   1.649  16.183 -0.1827  0.0627  0.7694
 8223TIP3    H146160   4.944   1.718  16.146 -0.2881 -0.0602  0.6913
 8223TIP3    H246161   4.939   1.601  16.241 -0.4467 -0.6962 -0.0911
 8224TIP3   OH246162   1.993   0.808  16.291 -0.2111 -0.2073 -0.1270
 8224TIP3    H146163   1.949   0.734  16.249 -1.4198  0.2003  0.3808
 8224TIP3    H246164   2.017   0.775  16.378  1.0892 -0.6239 -0.6157
 8225TIP3   OH246165   2.431   5.207   3.234 -0.3183 -0.0635  0.1675
 8225TIP3    H146166   2.362   5.239   3.292  0.4483  0.8086  0.6325
 8225TIP3    H246167   2.391   5.133   3.188 -0.2809 -2.4127  3.5143
 8226TIP3   OH246168   4.116   2.757  16.248 -0.0892 -1.0601 -0.1598
 8226TIP3    H146169   4.078   2.670  16.232  0.4681 -1.0442 -1.7776
 8226TIP3    H246170   4.203   2.738  16.283  0.3385 -1.1809 -1.2643
 8227TIP3   OH246171   1.638   5.199  10.756  0.3576 -0.7893 -0.5121
 8227TIP3    H146172   1.686   5.281  10.765 -1.4738  0.1725  1.0338
 8227TIP3    H246173   1.563   5.220  10.701  0.3177 -1.6598 -0.8168
 8228TIP3   OH246174   1.774   4.094  14.267  0.2109 -0.1198  0.2936
 8228TIP3    H146175   1.822   4.012  14.252  1.9614  0.8794  0.1202
 8228TIP3    H246176   1.689   4.079  14.226  0.7586 -1.5804 -0.4147
 8229TIP3   OH246177   3.303   4.936   3.245  0.0906  0.0456  0.4212
 8229TIP3    H146178   3.319   4.869   3.311 -0.3605 -0.5511 -0.0513
 8229TIP3    H246179   3.231   4.900   3.192 -0.4538  1.0989  0.4206
 8230TIP3   OH246180   0.202   3.180  15.362  0.8931  0.9167  0.0206
 8230TIP3    H146181   0.150   3.254  15.332 -1.7896 -1.2558 -1.0487
 8230TIP3    H246182   0.155   3.146  15.437  1.5139 -0.3209 -0.1201
 8231TIP3   OH246183   4.601   2.250  11.378 -0.3759 -0.5385  0.3139
 8231TIP3    H146184   4.520   2.276  11.421  0.0829  0.2879  0.7101
 8231TIP3    H246185   4.610   2.311  11.306  1.7957  1.9660  2.4908
 8232TIP3   OH246186   5.500   1.803   2.918  0.6407 -0.5974 -0.2812
 8232TIP3    H146187   5.460   1.728   2.961  0.8600 -1.5632 -1.7095
 8232TIP3    H246188   5.570   1.830   2.977  0.7577 -1.7076  0.1065
 8233TIP3   OH246189   5.658   2.060  11.201 -0.4353  0.4503 -0.8469
 8233TIP3    H146190   5.674   1.972  11.165  0.5648  0.2060  0.1426
 8233TIP3    H246191   5.743   2.103  11.196 -0.8754  1.2999 -1.1155
 8234TIP3   OH246192   6.493   3.513  11.708 -0.2797 -0.1048 -0.4605
 8234TIP3    H146193   6.479   3.431  11.755 -1.7462  0.3672 -0.0252
 8234TIP3    H246194   6.426   3.513  11.640 -0.8261  1.0899  0.0514
 8235TIP3   OH246195   3.680   3.058  16.204 -0.1977  1.0677  0.0200
 8235TIP3    H146196   3.734   3.135  16.187 -0.4066  1.3585  0.6476
 8235TIP3    H246197   3.686   3.007  16.123  3.0192 -0.1525  0.8428
 8236TIP3   OH246198   5.146   3.066  17.421  0.5355 -0.0992  0.0730
 8236TIP3    H146199   5.229   3.113  17.424  1.0813 -0.9740 -0.5679
 8236TIP3    H246200   5.089   3.122  17.368  0.9202  0.2113 -0.0202
 8237TIP3   OH246201   2.248   0.615   5.286 -0.6911 -0.1269 -0.1200
 8237TIP3    H146202   2.183   0.545   5.283 -0.1159 -0.7432  1.1219
 8237TIP3    H246203   2.333   0.570   5.280 -0.3420  0.6253 -1.2481
 8238TIP3   OH246204   5.394   6.678   0.246 -0.3471  0.0590 -0.0264
 8238TIP3    H146205   5.420   6.709   0.159  0.6563  2.4908  1.0308
 8238TIP3    H246206   5.409   6.584   0.243 -1.1186 -0.0641 -2.7213
 8239TIP3   OH246207   1.154   6.671   4.322  0.0353 -0.9273 -0.2371
 8239TIP3    H146208   1.154   6.685   4.417 -3.6712 -0.6144 -0.1640
 8239TIP3    H246209   1.145   6.576   4.312 -1.7608 -0.8049 -0.1481
 8240TIP3   OH246210   5.311   6.564  13.267 -0.8903  0.3804  0.2317
 8240TIP3    H146211   5.371   6.617  13.320  0.7127  0.3513 -1.4500
 8240TIP3    H246212   5.289   6.490  13.324 -0.2914  1.0155  1.3288
 8241TIP3   OH246213   0.979   5.561  14.600  0.2131 -0.2892  0.0441
 8241TIP3    H146214   0.939   5.542  14.685 -3.2034 -1.5213 -1.6861
 8241TIP3    H246215   1.035   5.485  14.583 -0.7908 -1.0951  0.2690
 8242TIP3   OH246216   1.643   4.497   2.783 -0.2481  0.0907 -0.0223
 8242TIP3    H146217   1.607   4.557   2.718  2.7019  0.8618 -1.1245
 8242TIP3    H246218   1.729   4.473   2.748 -0.8777 -4.1324  0.8085
 8243TIP3   OH246219   2.434   4.115  15.163 -0.4429 -0.1537  0.3673
 8243TIP3    H146220   2.435   4.132  15.069  0.6346 -1.2244  0.1475
 8243TIP3    H246221   2.469   4.195  15.203 -0.7748  0.2512 -0.1485
 8244TIP3   OH246222   4.092   1.914   4.661 -0.0896 -0.0019 -0.1508
 8244TIP3    H146223   4.061   1.840   4.609  2.4029 -0.4476 -1.0987
 8244TIP3    H246224   4.037   1.987   4.633 -2.2908 -1.3061  0.4598
 8245TIP3   OH246225   3.378   4.941   2.203  0.1597 -0.1787 -0.2748
 8245TIP3    H146226   3.303   4.928   2.145 -0.7407  2.2569  0.2027
 8245TIP3    H246227   3.450   4.894   2.161 -1.1430 -0.8648 -1.8415
 8246TIP3   OH246228   6.423   6.349   5.253 -0.1017  0.1948 -0.6727
 8246TIP3    H146229   6.386   6.420   5.305  2.0893  0.9638 -0.0594
 8246TIP3    H246230   6.429   6.275   5.313 -2.7076 -0.7154 -1.4028
 8247TIP3   OH246231   4.776   3.043   5.683 -0.1676 -0.1808 -0.3844
 8247TIP3    H146232   4.867   3.034   5.712 -0.6428 -2.2553  0.6342
 8247TIP3    H246233   4.763   2.972   5.620 -1.7557 -1.5269  1.3719
 8248TIP3   OH246234   1.057   6.704  13.860  0.1488  0.0686  0.1519
 8248TIP3    H146235   1.104   6.729  13.940 -0.9624 -0.9914  1.1947
 8248TIP3    H246236   1.075   6.610  13.851 -0.7840 -0.0946 -0.0979
 8249TIP3   OH246237   4.478   4.794  10.762  0.4361  0.3657  0.3797
 8249TIP3    H146238   4.418   4.721  10.746  1.3151 -0.4915  0.9590
 8249TIP3    H246239   4.563   4.763  10.731  1.4049  0.0842  3.0993
 8250TIP3   OH246240   0.366   6.771   4.771 -0.4699 -0.4160  0.1126
 8250TIP3    H146241   0.462   6.777   4.771 -0.4971  0.0400 -0.3429
 8250TIP3    H246242   0.337   6.850   4.817 -0.7071  1.0548 -2.4102
 8251TIP3   OH246243   1.863   2.914  16.731 -0.1835 -0.7418 -0.5401
 8251TIP3    H146244   1.957   2.899  16.738  0.2197  1.4984 -0.4540
 8251TIP3    H246245   1.826   2.872  16.809  0.9852 -0.0803  0.4010
 8252TIP3   OH246246   2.485   6.571  16.474 -0.0455 -0.4044 -0.0815
 8252TIP3    H146247   2.418   6.638  16.458  0.3694 -0.4398 -2.1823
 8252TIP3    H246248   2.467   6.503  16.409  0.9138 -1.2797  0.5398
 8253TIP3   OH246249   0.482   4.796   2.415  0.2281  0.2567 -0.2130
 8253TIP3    H146250   0.452   4.825   2.329 -0.1138 -2.8402 -1.2433
 8253TIP3    H246251   0.426   4.722   2.437 -0.3557  1.5074  3.2098
 8254TIP3   OH246252   4.486   1.783  15.885  0.1548 -0.0077  0.2242
 8254TIP3    H146253   4.475   1.878  15.879  0.8718  0.0249 -0.9534
 8254TIP3    H246254   4.534   1.759  15.805  0.2376 -1.3239  0.6374
 8255TIP3   OH246255   0.431   2.512  16.103 -0.3785 -0.4857  0.1294
 8255TIP3    H146256   0.390   2.430  16.074  0.3925 -1.2303  1.0597
 8255TIP3    H246257   0.438   2.565  16.024 -0.7009 -1.4083 -0.5313
 8256TIP3   OH246258   4.149   0.295  14.319  0.0265 -0.0967 -0.1451
 8256TIP3    H146259   4.182   0.384  14.307 -0.0633 -0.3458 -2.7960
 8256TIP3    H246260   4.196   0.242  14.254 -0.8382 -1.7356  0.4892
 8257TIP3   OH246261   1.136   6.737  14.132  0.6326 -0.0877 -0.1938
 8257TIP3    H146262   1.178   6.771  14.211  1.1751  0.7623 -0.8260
 8257TIP3    H246263   1.048   6.713  14.160  0.7531  0.3782  0.6277
 8258TIP3   OH246264   1.754   3.488   5.612 -0.4167 -0.4995 -0.2747
 8258TIP3    H146265   1.823   3.522   5.555  0.5992 -1.5176  0.3029
 8258TIP3    H246266   1.686   3.457   5.552 -1.2888  2.2180 -0.8266
 8259TIP3   OH246267   6.571   1.528   1.965  0.1859  0.8803  0.3535
 8259TIP3    H146268   6.561   1.525   1.870  0.9402  0.1806  0.2848
 8259TIP3    H246269   6.494   1.483   1.999  1.1068 -1.0948 -0.0244
 8260TIP3   OH246270   5.237   6.078   4.969  0.4411  0.2586  0.2584
 8260TIP3    H146271   5.225   6.149   4.905 -0.2119 -0.1125 -0.0370
 8260TIP3    H246272   5.307   6.024   4.931  0.4187  0.3309  0.1109
 8261TIP3   OH246273   2.230   3.624  16.141 -0.2719  0.0057  0.3116
 8261TIP3    H146274   2.300   3.567  16.175 -1.9766 -1.2523  1.9271
 8261TIP3    H246275   2.149   3.583  16.173 -1.7274  1.7086 -1.0431
 8262TIP3   OH246276   1.497   2.112  15.116 -0.4828 -0.2878 -0.0618
 8262TIP3    H146277   1.427   2.168  15.083  0.9813  1.3455 -0.5567
 8262TIP3    H246278   1.514   2.050  15.045  0.3750  1.0583 -1.0724
 8263TIP3   OH246279   2.480   1.973   2.365  0.2865  0.0383 -0.1646
 8263TIP3    H146280   2.389   2.005   2.361  1.1848  2.7830 -0.9346
 8263TIP3    H246281   2.521   2.025   2.433  1.1142 -1.8861  0.8882
 8264TIP3   OH246282   4.106   1.367  14.670  0.0565  0.2411 -0.2807
 8264TIP3    H146283   4.198   1.389  14.680 -0.1053  0.8373 -0.0439
 8264TIP3    H246284   4.094   1.288  14.722  0.4646  0.0731 -0.4401
 8265TIP3   OH246285   5.685   0.144  13.335 -0.7886 -0.2972 -0.0805
 8265TIP3    H146286   5.698   0.088  13.258 -0.8985 -1.7193  0.8959
 8265TIP3    H246287   5.723   0.095  13.407 -1.2024  0.7501  0.8801
 8266TIP3   OH246288   0.142   6.530  12.247  0.1850  0.3807  0.1507
 8266TIP3    H146289   0.198   6.551  12.322 -0.9774  2.5224  0.5145
 8266TIP3    H246290   0.061   6.580  12.263 -0.5698 -0.0688 -1.9359
 8267TIP3   OH246291   1.751   0.226   0.599  0.5567 -0.4778  0.5696
 8267TIP3    H146292   1.775   0.210   0.508  0.9594  0.7467  0.4331
 8267TIP3    H246293   1.810   0.170   0.650  0.4430 -1.0408  0.0886
 8268TIP3   OH246294   6.769   3.278   5.301 -0.4851 -0.4709  0.1153
 8268TIP3    H146295   6.742   3.308   5.214  0.2234 -0.3259 -0.0615
 8268TIP3    H246296   6.865   3.270   5.295 -0.5044 -1.2273  0.6423
 8269TIP3   OH246297   0.542   6.278   0.505 -0.1568  0.2572  0.8195
 8269TIP3    H146298   0.573   6.345   0.566  0.2976  0.1406  0.7166
 8269TIP3    H246299   0.513   6.327   0.428 -1.9774  0.5220  1.6213
 8270TIP3   OH246300   4.534   3.186  11.926  0.1787  0.3193 -0.0970
 8270TIP3    H146301   4.489   3.245  11.865  2.4445  1.3254 -0.8761
 8270TIP3    H246302   4.526   3.099  11.886 -0.8327  0.5057 -0.3287
 8271TIP3   OH246303   1.856   3.720   3.385 -0.3086 -0.7408  0.0357
 8271TIP3    H146304   1.914   3.785   3.426  0.9982 -0.9822 -1.3552
 8271TIP3    H246305   1.845   3.752   3.295 -3.2068 -0.1528  0.4886
 8272TIP3   OH246306   2.670   4.940   1.625  0.4464 -0.3339  0.0479
 8272TIP3    H146307   2.730   5.011   1.650 -1.5440  0.9386  1.5051
 8272TIP3    H246308   2.674   4.879   1.698 -1.1074  0.5396  0.9239
 8273TIP3   OH246309   1.527   5.913  13.716  0.2499 -0.2734  0.2936
 8273TIP3    H146310   1.595   5.883  13.657 -0.5476 -1.1842 -0.1994
 8273TIP3    H246311   1.515   6.006  13.695  1.4217 -0.0689  0.4923
 8274TIP3   OH246312   1.372   4.655   0.797  0.3228 -0.6821  0.4091
 8274TIP3    H146313   1.439   4.717   0.825  0.3701 -0.1742 -0.8028
 8274TIP3    H246314   1.420   4.588   0.749 -0.1120  0.1519 -1.2454
 8275TIP3   OH246315   3.458   0.384   1.919  0.2502  0.2667  0.5307
 8275TIP3    H146316   3.518   0.371   1.846  0.6069  2.4550  0.3506
 8275TIP3    H246317   3.428   0.296   1.942  0.6155 -0.5384 -1.8070
 8276TIP3   OH246318   6.624   4.459  12.377 -0.0439  0.0325 -0.4371
 8276TIP3    H146319   6.655   4.480  12.465  1.9953 -1.3628 -0.7746
 8276TIP3    H246320   6.557   4.392  12.391  0.6108 -0.5278  0.0193
 8277TIP3   OH246321   2.630   3.836   3.884 -0.9320  0.0963 -0.1868
 8277TIP3    H146322   2.689   3.811   3.813 -0.9846  0.2834 -0.2983
 8277TIP3    H246323   2.683   3.826   3.964 -0.8218  0.0402 -0.2666
 8278TIP3   OH246324   0.913   5.148  13.521  0.1578  0.1769 -0.1453
 8278TIP3    H146325   0.921   5.224  13.578 -1.2527 -0.9679  1.6942
 8278TIP3    H246326   0.954   5.077  13.571  0.1318 -0.5863 -1.1801
 8279TIP3   OH246327   3.517   1.453   5.834 -0.2283  0.4928 -0.6718
 8279TIP3    H146328   3.459   1.525   5.861 -0.2223  0.4822 -0.6299
 8279TIP3    H246329   3.458   1.379   5.822  0.1153 -0.5470  2.9117
 8280TIP3   OH246330   6.621   3.976   4.021  0.2498  0.2035 -0.4389
 8280TIP3    H146331   6.701   3.960   3.970  0.5011 -2.2299  0.5682
 8280TIP3    H246332   6.565   3.901   4.001 -0.5184  0.3052  1.1862
 8281TIP3   OH246333   4.018   1.672   2.972 -0.6945  0.5352 -0.1041
 8281TIP3    H146334   4.072   1.708   2.901 -0.8411  1.3618  0.1837
 8281TIP3    H246335   3.997   1.583   2.944  2.3916 -0.5483  0.6359
 8282TIP3   OH246336   2.873   5.699   6.095 -0.2203  0.3910  0.0292
 8282TIP3    H146337   2.947   5.760   6.097 -0.1258  0.3066 -0.6735
 8282TIP3    H246338   2.914   5.612   6.098 -0.2766  0.3410 -0.5759
 8283TIP3   OH246339   6.645   1.790   2.045 -0.2908 -0.1217 -0.2837
 8283TIP3    H146340   6.606   1.705   2.025 -1.1915 -0.2382  1.7673
 8283TIP3    H246341   6.574   1.841   2.083  1.0047  0.3676  1.6422
 8284TIP3   OH246342   4.325   4.057  11.542  0.0445  0.3288 -0.2624
 8284TIP3    H146343   4.360   4.122  11.480  1.6466 -0.4352 -0.2141
 8284TIP3    H246344   4.381   4.066  11.619  0.5397 -1.3394 -0.3981
 8285TIP3   OH246345   4.972   0.170   5.605  0.8322  0.4155 -0.0138
 8285TIP3    H146346   4.993   0.118   5.528 -0.7764 -0.3388  0.0123
 8285TIP3    H246347   4.968   0.260   5.573 -2.1540 -0.1004 -1.4139
 8286TIP3   OH246348   6.014   5.473   0.322 -0.1621 -0.0946 -0.1102
 8286TIP3    H146349   6.005   5.431   0.408 -2.3916  0.4322 -0.0225
 8286TIP3    H246350   6.066   5.551   0.340  3.2043 -2.1303 -0.1062
 8287TIP3   OH246351   3.043   0.926   0.131  0.2866 -0.2044  0.1407
 8287TIP3    H146352   3.027   0.946   0.223 -0.4339 -1.5301  0.3205
 8287TIP3    H246353   3.125   0.972   0.111  0.7588 -0.3648  1.5930
 8288TIP3   OH246354   5.815   6.717  15.232  0.0705 -0.4296 -0.4755
 8288TIP3    H146355   5.903   6.725  15.193 -0.0588 -1.0427 -0.9139
 8288TIP3    H246356   5.831   6.721  15.326  0.8607 -2.7173 -0.4402
 8289TIP3   OH246357   6.108   3.357  12.301 -0.1411  0.1655 -0.6904
 8289TIP3    H146358   6.050   3.366  12.377  1.3736  1.3740  0.3887
 8289TIP3    H246359   6.192   3.330  12.338  0.3984 -0.0833 -2.0469
 8290TIP3   OH246360   1.925   2.720  12.489 -0.2458  0.1490  0.0172
 8290TIP3    H146361   1.882   2.776  12.424  1.4806 -1.5133 -2.7723
 8290TIP3    H246362   1.869   2.643  12.495 -0.5765  0.4413  0.8186
 8291TIP3   OH246363   2.140   3.070   2.078 -0.7050 -0.6265 -0.0378
 8291TIP3    H146364   2.199   3.125   2.027  0.5995 -0.9510  1.0650
 8291TIP3    H246365   2.074   3.130   2.112 -0.2927 -0.0362 -0.2728
 8292TIP3   OH246366   4.555   4.596  12.212  0.0949 -0.1114  0.0180
 8292TIP3    H146367   4.632   4.542  12.234  0.4577  0.2639 -0.3241
 8292TIP3    H246368   4.512   4.548  12.141 -0.3213 -0.6225  0.5981
 8293TIP3   OH246369   2.793   4.546   0.387  0.1848  0.3959  0.1112
 8293TIP3    H146370   2.810   4.619   0.447 -2.0018 -0.0828  1.4430
 8293TIP3    H246371   2.718   4.574   0.335  0.3025 -0.2982 -0.4513
 8294TIP3   OH246372   5.029   3.750   0.914  0.1958  0.3346  0.7628
 8294TIP3    H146373   5.093   3.710   0.973  1.7621  1.9931  0.3011
 8294TIP3    H246374   5.061   3.730   0.826 -0.0013  1.0227  0.5221
 8295TIP3   OH246375   6.692   5.102   6.046 -0.2593 -0.3592  0.3552
 8295TIP3    H146376   6.648   5.035   6.098  1.3785 -1.9370 -0.2062
 8295TIP3    H246377   6.784   5.096   6.070 -0.1999  2.8273  1.4765
 8296TIP3   OH246378   0.359   4.453  13.609  0.6370 -0.2198  0.7108
 8296TIP3    H146379   0.386   4.436  13.519  0.8673 -0.6669  0.8580
 8296TIP3    H246380   0.327   4.369  13.641  1.9866 -0.4644  1.5218
 8297TIP3   OH246381   3.006   3.911   5.780 -0.1970  0.1323 -0.1855
 8297TIP3    H146382   2.944   3.946   5.844  0.8491  1.4866  0.1525
 8297TIP3    H246383   2.970   3.937   5.695 -0.1689  0.8163  0.0032
 8298TIP3   OH246384   2.901   6.407   2.285 -0.0738  0.4496  0.3509
 8298TIP3    H146385   2.938   6.456   2.358  0.6221  0.3110  0.1051
 8298TIP3    H246386   2.968   6.341   2.264 -0.4528  0.2028 -0.1221
 8299TIP3   OH246387   3.853   0.812   6.069 -0.0077 -0.1052  0.0458
 8299TIP3    H146388   3.926   0.752   6.055 -0.9987 -1.1958 -0.6612
 8299TIP3    H246389   3.838   0.810   6.163  0.4867 -0.3442  0.1215
 8300TIP3   OH246390   4.407   2.459  12.000 -0.5887 -0.1334  0.2179
 8300TIP3    H146391   4.360   2.376  12.007 -0.8015 -0.0455 -0.1247
 8300TIP3    H246392   4.403   2.481  11.907  2.1648 -1.3179 -0.2683
 8301TIP3   OH246393   5.362   4.907  16.631  0.2553 -0.2434 -0.5722
 8301TIP3    H146394   5.287   4.870  16.584 -0.1000 -0.8741  0.4631
 8301TIP3    H246395   5.324   4.976  16.686  0.4036 -0.6951  0.1036
 8302TIP3   OH246396   3.214   6.599   3.649  0.0787 -0.2636  0.0106
 8302TIP3    H146397   3.132   6.611   3.602  1.1777  1.4401 -1.6379
 8302TIP3    H246398   3.282   6.603   3.581  1.5597 -1.4083  1.3309
 8303TIP3   OH246399   4.616   1.416   0.011  0.6615 -0.7401 -0.3962
 8303TIP3    H146400   4.696   1.449   0.052 -0.0259  0.0498  0.3225
 8303TIP3    H246401   4.546   1.472   0.044  0.0859  0.1262 -2.8478
 8304TIP3   OH246402   5.762   4.198   0.947 -0.4861 -0.3012  0.2476
 8304TIP3    H146403   5.842   4.161   0.908 -0.6648  0.6240 -1.0868
 8304TIP3    H246404   5.780   4.291   0.956 -0.9090 -0.3122  1.2802
 8305TIP3   OH246405   0.391   5.889  12.706  0.2734 -0.3548 -0.7637
 8305TIP3    H146406   0.421   5.887  12.797 -1.3698 -2.6156 -0.1787
 8305TIP3    H246407   0.299   5.863  12.711  0.3376 -1.2811 -3.1356
 8306TIP3   OH246408   6.556   2.782   5.231  0.4532  0.1821 -0.6524
 8306TIP3    H146409   6.625   2.728   5.268  0.2384  0.2572 -0.1446
 8306TIP3    H246410   6.476   2.732   5.244  0.2172  0.7176  0.0336
 8307TIP3   OH246411   5.091   2.558  15.055 -0.0779 -0.7683 -0.2089
 8307TIP3    H146412   5.054   2.504  15.124 -1.0080  0.6536  0.4386
 8307TIP3    H246413   5.159   2.609  15.099 -1.5455  1.0952  0.0126
 8308TIP3   OH246414   0.276   2.826  14.777  0.1381  0.5631  0.0407
 8308TIP3    H146415   0.192   2.813  14.823 -1.3435 -0.4664 -2.7319
 8308TIP3    H246416   0.264   2.909  14.730  0.8491  0.6022 -0.0736
 8309TIP3   OH246417   5.722   6.447   0.981  0.2922  0.7123  0.1992
 8309TIP3    H146418   5.757   6.375   1.032  0.9366 -0.4995 -1.8486
 8309TIP3    H246419   5.734   6.524   1.037  2.2779 -0.3159  1.2747
 8310TIP3   OH246420   0.274   5.285   4.429  0.3033  0.5064 -0.6791
 8310TIP3    H146421   0.248   5.206   4.381  0.6966  0.5423 -0.9462
 8310TIP3    H246422   0.234   5.357   4.381 -1.5793  0.3797  0.5513
 8311TIP3   OH246423   4.394   3.296  12.460  0.4210  0.3528  0.0810
 8311TIP3    H146424   4.414   3.385  12.431 -0.8684  0.5659 -0.2597
 8311TIP3    H246425   4.476   3.262  12.493  1.3417  1.0708 -1.3622
 8312TIP3   OH246426   2.491   2.965   0.186  0.2708 -0.0902 -0.1013
 8312TIP3    H146427   2.410   2.951   0.137 -0.4666  2.6345  0.2029
 8312TIP3    H246428   2.541   3.028   0.134  1.1419  0.0436  0.8500
 8313TIP3   OH246429   0.053   2.638   0.711  0.0425  0.0919 -0.0051
 8313TIP3    H146430   0.018   2.551   0.694  2.5592 -0.9744 -0.1743
 8313TIP3    H246431   0.076   2.672   0.625  0.1414  0.4279  0.1549
 8314TIP3   OH246432   3.200   4.206  15.156 -0.1755 -0.2037 -0.3141
 8314TIP3    H146433   3.130   4.214  15.091 -1.0851 -1.3806  0.4830
 8314TIP3    H246434   3.232   4.116  15.147  0.0750 -0.2010  0.4735
 8315TIP3   OH246435   6.032   5.337  15.989 -0.3258  0.4028  0.0350
 8315TIP3    H146436   5.986   5.295  16.062  0.0339 -0.1241 -0.0400
 8315TIP3    H246437   6.076   5.412  16.029  1.4445 -0.9570  0.7528
 8316TIP3   OH246438   2.092   2.773  13.008  0.9769  0.1293 -0.0426
 8316TIP3    H146439   2.089   2.701  13.071  0.5844  0.2450  0.0735
 8316TIP3    H246440   2.185   2.789  12.995  1.1307  1.3866  1.9961
 8317TIP3   OH246441   2.035   0.451  17.486  0.0344 -0.4656  0.4395
 8317TIP3    H146442   2.055   0.372  17.435 -0.3261  0.5510 -1.3509
 8317TIP3    H246443   2.001   0.513  17.421  0.8234  1.3572  1.7022
 8318TIP3   OH246444   4.914   6.591   6.241 -0.5263  0.2873  0.7355
 8318TIP3    H146445   4.906   6.546   6.157 -2.1517  0.4459  0.7781
 8318TIP3    H246446   4.924   6.521   6.305  1.9826  0.1915  0.3488
 8319TIP3   OH246447   0.333   2.738  15.127 -0.7455  0.2470 -0.2085
 8319TIP3    H146448   0.244   2.769  15.113 -1.3772 -0.5613  1.6429
 8319TIP3    H246449   0.357   2.772  15.213  0.5932  0.1337 -0.5126
 8320TIP3   OH246450   5.269   2.878  16.304 -0.3094 -0.0634  0.6586
 8320TIP3    H146451   5.266   2.807  16.241 -0.0447  0.2645  0.2761
 8320TIP3    H246452   5.328   2.943  16.265  1.0068 -0.4689  1.8655
 8321TIP3   OH246453   3.170   1.487   4.979  0.1316  0.0372  0.1300
 8321TIP3    H146454   3.156   1.435   4.900 -0.4569  0.5880 -0.1373
 8321TIP3    H246455   3.240   1.442   5.026  0.6092 -0.1971 -0.7962
 8322TIP3   OH246456   1.321   2.597   1.661  0.5831  0.5549 -0.1356
 8322TIP3    H146457   1.344   2.689   1.650  0.4873  0.5242 -0.6202
 8322TIP3    H246458   1.306   2.587   1.755 -0.8904  1.3861 -0.2563
 8323TIP3   OH246459   2.568   1.075   5.396 -0.1845 -0.4260 -0.2296
 8323TIP3    H146460   2.659   1.053   5.376 -0.3849  0.2712 -2.0864
 8323TIP3    H246461   2.572   1.166   5.426 -0.0690 -1.0062  1.6275
 8324TIP3   OH246462   5.521   1.970  16.439  0.2532  0.0429  0.1111
 8324TIP3    H146463   5.594   1.915  16.469  1.3355  1.0600 -0.6041
 8324TIP3    H246464   5.445   1.911  16.441  1.3866 -1.5115 -0.7071
 8325TIP3   OH246465   3.600   0.154  14.237 -0.7028  0.1706  0.5088
 8325TIP3    H146466   3.521   0.133  14.287 -2.2060  0.8953 -1.4690
 8325TIP3    H246467   3.615   0.078  14.181 -1.1799  0.8287 -0.5369
 8326TIP3   OH246468   1.699   0.909  15.391 -0.0589  0.1862  0.3288
 8326TIP3    H146469   1.702   0.883  15.483  0.5018 -0.7133  0.0679
 8326TIP3    H246470   1.782   0.953  15.376  1.0707 -2.0712 -0.4116
 8327TIP3   OH246471   3.825   3.645  13.420 -0.1661 -0.5314  0.2901
 8327TIP3    H146472   3.794   3.659  13.510 -1.8644  1.2428 -0.5111
 8327TIP3    H246473   3.892   3.711  13.407 -1.7399  0.9851 -0.5229
 8328TIP3   OH246474   5.978   2.429  12.980 -0.3194 -0.5464  0.0450
 8328TIP3    H146475   6.068   2.454  13.000  0.1847 -1.8567 -0.4632
 8328TIP3    H246476   5.931   2.438  13.063  0.0647  0.9289  0.1376
 8329TIP3   OH246477   4.828   4.051  16.835  0.3978  0.0116 -0.7481
 8329TIP3    H146478   4.844   4.101  16.915  1.6596  0.4792 -1.2620
 8329TIP3    H246479   4.772   4.108  16.782 -1.8006 -0.9480  0.3879
 8330TIP3   OH246480   0.534   0.964   6.396 -0.1808  0.5629  0.7945
 8330TIP3    H146481   0.463   0.924   6.446 -0.8761  1.1011  0.2629
 8330TIP3    H246482   0.600   0.895   6.388  0.5978  0.8626  3.6416
 8331TIP3   OH246483   6.075   3.071  13.153 -0.6425 -0.1430 -0.2967
 8331TIP3    H146484   6.157   3.078  13.201 -1.1490  0.3421  0.5240
 8331TIP3    H246485   6.039   3.160  13.154 -2.7087 -0.8888  2.1609
 8332TIP3   OH246486   2.564   5.815  17.438 -0.3357  0.2585  0.5948
 8332TIP3    H146487   2.545   5.904  17.467 -0.1985  0.5664 -0.2363
 8332TIP3    H246488   2.636   5.825  17.376 -2.5828  0.0313 -2.2872
 8333TIP3   OH246489   1.092   5.658   0.919 -0.6047 -0.9587  0.1878
 8333TIP3    H146490   1.060   5.678   0.832 -1.3132 -0.3759  0.5767
 8333TIP3    H246491   1.074   5.736   0.971 -0.1988 -1.2941  0.8632
 8334TIP3   OH246492   3.870   1.004  14.654  0.2432 -0.0084 -0.3817
 8334TIP3    H146493   3.785   0.997  14.610  0.7331  1.0059 -1.5600
 8334TIP3    H246494   3.850   1.043  14.739 -0.6268 -1.1982 -0.0149
 8335TIP3   OH246495   5.542   3.556   6.058  0.1865 -0.7427  0.0100
 8335TIP3    H146496   5.530   3.523   6.147 -0.2836 -1.1781 -0.2066
 8335TIP3    H246497   5.628   3.522   6.032  0.1998 -0.8572  0.1945
 8336TIP3   OH246498   4.421   1.107   4.253 -0.6680 -0.0847 -0.6803
 8336TIP3    H146499   4.409   1.202   4.252  1.1545  0.1863 -0.6336
 8336TIP3    H246500   4.461   1.089   4.338  1.3501 -0.5100 -1.6520
 8337TIP3   OH246501   2.645   2.697   0.628  0.0371 -0.1831 -0.3969
 8337TIP3    H146502   2.606   2.777   0.662  0.2511 -0.6460  1.0118
 8337TIP3    H246503   2.577   2.660   0.571  0.1683  1.2708 -1.5527
 8338TIP3   OH246504   4.674   2.985   0.043 -0.6403  0.3640  0.8195
 8338TIP3    H146505   4.646   2.894   0.031 -2.0607  0.4908  2.6525
 8338TIP3    H246506   4.606   3.037   0.000 -0.5444  0.5901  0.9387
 8339TIP3   OH246507   3.818   1.818   0.019 -0.2772 -0.1594 -0.4944
 8339TIP3    H146508   3.835   1.729   0.049  1.4668 -0.7164 -2.9071
 8339TIP3    H246509   3.748   1.809  -0.046 -0.5311  0.3481 -0.3029
 8340TIP3   OH246510   5.607   4.438  15.988 -0.4535 -0.4407  0.3655
 8340TIP3    H146511   5.622   4.531  16.009 -0.1912 -0.4045  0.0366
 8340TIP3    H246512   5.612   4.393  16.072 -0.1078 -0.2140  0.4699
 8341TIP3   OH246513   5.217   4.139   6.428  0.8554 -0.3693  0.1060
 8341TIP3    H146514   5.305   4.178   6.434  1.1146 -1.1333  1.9563
 8341TIP3    H246515   5.158   4.211   6.451  0.6507  0.9349 -3.6665
 8342TIP3   OH246516   6.618   4.682  15.229  0.6203 -0.1644 -0.2646
 8342TIP3    H146517   6.656   4.756  15.182  1.3099  1.2520  2.3479
 8342TIP3    H246518   6.534   4.666  15.186  0.4940  2.0943 -0.9565
 8343TIP3   OH246519   2.438   2.767   4.593 -0.4822  0.1538  0.0231
 8343TIP3    H146520   2.404   2.714   4.521  0.2728  0.7761 -0.8271
 8343TIP3    H246521   2.491   2.707   4.645 -1.7393 -0.5097  0.5978
 8344TIP3   OH246522   6.376   5.109   2.018 -0.4629 -0.5245  0.4528
 8344TIP3    H146523   6.325   5.114   2.098 -0.2953 -2.5468  0.7302
 8344TIP3    H246524   6.467   5.117   2.047 -0.4594  0.2213  0.2699
 8345TIP3   OH246525   3.709   1.070  14.341 -0.2985 -0.1954 -0.1344
 8345TIP3    H146526   3.719   0.986  14.297  0.6940 -0.8794  1.3157
 8345TIP3    H246527   3.656   1.051  14.418  1.2370  0.1253  1.0741
 8346TIP3   OH246528   4.121   1.632   0.705  0.3498 -0.0928  0.1415
 8346TIP3    H146529   4.040   1.595   0.741 -0.7469  1.4301 -0.6859
 8346TIP3    H246530   4.126   1.597   0.616 -1.1463  2.2784 -0.9572
 8347TIP3   OH246531   1.559   3.555   0.595  0.5844  0.2776 -0.1015
 8347TIP3    H146532   1.480   3.514   0.563 -0.5165  2.5606 -0.5427
 8347TIP3    H246533   1.539   3.579   0.685  1.1073  0.0416  0.0785
 8348TIP3   OH246534   3.952   1.298   1.149  0.2500 -0.2934 -0.0047
 8348TIP3    H146535   4.018   1.237   1.117  1.3724  0.2554  1.1761
 8348TIP3    H246536   3.952   1.369   1.084 -0.0147 -0.8227 -0.6029
 8349TIP3   OH246537   6.281   5.624   4.356  0.9044 -0.3111 -0.5600
 8349TIP3    H146538   6.278   5.699   4.296 -0.3586  2.6975  2.8931
 8349TIP3    H246539   6.199   5.576   4.339 -0.4332  1.6605  0.0243
 8350TIP3   OH246540   4.133   2.370  14.656 -0.2817  0.2286  0.5178
 8350TIP3    H146541   4.204   2.434  14.649 -0.2458  0.0340 -1.3075
 8350TIP3    H246542   4.056   2.423  14.676  0.1151  0.6030  1.0740
 8351TIP3   OH246543   5.360   6.336   3.627 -0.1377 -0.1684 -0.6279
 8351TIP3    H146544   5.278   6.288   3.620 -0.3016 -0.1439  0.8722
 8351TIP3    H246545   5.425   6.270   3.651 -0.0208  0.0661 -0.2935
 8352TIP3   OH246546   6.557   0.306   0.849 -0.2739 -0.6198  0.2263
 8352TIP3    H146547   6.570   0.211   0.854 -0.8195 -0.7791 -0.9520
 8352TIP3    H246548   6.462   0.316   0.835 -0.4500  0.1754  1.7752
 8353TIP3   OH246549   2.840   5.002  16.996  0.3098 -0.1622  0.4338
 8353TIP3    H146550   2.862   5.052  17.074  0.0438 -0.3621  0.6369
 8353TIP3    H246551   2.889   4.920  17.005  0.8884  0.1265  0.0136
 8354TIP3   OH246552   6.604   1.418   2.638  0.5450 -0.4688 -0.5766
 8354TIP3    H146553   6.657   1.339   2.653  0.1540 -0.4568  1.0229
 8354TIP3    H246554   6.661   1.476   2.588  1.7352 -0.7997  0.3636
 8355TIP3   OH246555   2.498   5.384  12.091  0.1664  0.2658  0.2021
 8355TIP3    H146556   2.536   5.433  12.019  1.1118 -0.8492 -0.0691
 8355TIP3    H246557   2.411   5.358  12.059  0.7930 -0.7118 -0.7795
 8356TIP3   OH246558   0.011   3.966   1.672 -0.3060  0.3341  0.1556
 8356TIP3    H146559  -0.062   3.921   1.715 -0.2365  0.2843  0.2216
 8356TIP3    H246560   0.088   3.943   1.724 -0.1652 -0.0162 -0.2039
 8357TIP3   OH246561   4.830   1.792  15.052  0.2465  0.2289  0.2193
 8357TIP3    H146562   4.855   1.800  14.960  1.2560 -0.0700  0.4601
 8357TIP3    H246563   4.883   1.720  15.086  0.6803  1.0238  1.2930
 8358TIP3   OH246564   0.386   6.244   2.955 -0.3030  0.4408  0.6767
 8358TIP3    H146565   0.300   6.234   2.914  0.9496 -0.1165 -2.0944
 8358TIP3    H246566   0.416   6.331   2.926 -0.1464  0.8870  2.1183
 8359TIP3   OH246567   4.025   2.629   5.897 -0.2006  0.2129 -0.3563
 8359TIP3    H146568   4.072   2.711   5.914 -0.0919  0.1269 -0.2419
 8359TIP3    H246569   4.051   2.604   5.808  1.4117 -0.7954  0.3580
 8360TIP3   OH246570   1.602   3.695  15.621 -0.3326  0.1118  0.1566
 8360TIP3    H146571   1.535   3.762  15.614 -0.4604 -0.1041 -0.8268
 8360TIP3    H246572   1.685   3.743  15.624 -0.5303  0.4176  2.1843
 8361TIP3   OH246573   3.492   3.594   3.479  0.4765  0.3589  0.1497
 8361TIP3    H146574   3.503   3.668   3.419 -3.6671  2.1260  1.1716
 8361TIP3    H246575   3.481   3.635   3.565  0.7938 -1.7085  1.2423
 8362TIP3   OH246576   1.140   4.244  12.360  0.3245 -0.2821 -0.3527
 8362TIP3    H146577   1.061   4.296  12.349  1.8072  1.9279 -1.3657
 8362TIP3    H246578   1.208   4.308  12.383  1.6586 -2.2093  1.3792
 8363TIP3   OH246579   4.378   0.455   0.187  0.1203 -0.0108 -0.3071
 8363TIP3    H146580   4.429   0.393   0.134  0.2497  0.4702 -0.7488
 8363TIP3    H246581   4.431   0.469   0.265  0.2625 -0.1734 -0.3735
 8364TIP3   OH246582   4.228   1.542  13.068  0.1267 -0.6275 -0.3142
 8364TIP3    H146583   4.269   1.456  13.064 -0.8734 -1.0891 -1.1397
 8364TIP3    H246584   4.134   1.522  13.077 -0.2447  0.3550 -1.7750
 8365TIP3   OH246585   6.776   3.924  12.990  0.7058  0.5190 -0.0648
 8365TIP3    H146586   6.819   3.959  12.912  1.0363 -1.3810 -0.7860
 8365TIP3    H246587   6.813   3.836  13.000 -2.2898 -0.8620 -0.1618
 8366TIP3   OH246588   5.351   0.083  13.018  0.0560  0.4744 -0.5085
 8366TIP3    H146589   5.411   0.016  12.986  1.2140  1.0805  0.3495
 8366TIP3    H246590   5.289   0.035  13.073  1.5549  0.2326  1.0296
 8367TIP3   OH246591   5.402   5.765   4.325 -0.0822  0.6770 -0.0743
 8367TIP3    H146592   5.447   5.713   4.392  0.7348 -0.1421 -1.2195
 8367TIP3    H246593   5.327   5.803   4.371 -1.2596 -2.2337  0.6325
 8368TIP3   OH246594   0.542   4.208  15.872  0.0454  0.4860  0.1550
 8368TIP3    H146595   0.500   4.293  15.865 -1.1419  0.0920  1.8642
 8368TIP3    H246596   0.532   4.169  15.785 -1.1909  1.2785 -0.0760
 8369TIP3   OH246597   5.033   4.904  11.742 -0.3587  0.5260  0.2589
 8369TIP3    H146598   4.940   4.885  11.739 -0.8359  2.3804  1.3275
 8369TIP3    H246599   5.038   5.000  11.742  1.6460  0.5290 -1.9138
 8370TIP3   OH246600   0.882   6.018   0.388  0.4385  0.0637  0.4286
 8370TIP3    H146601   0.852   5.928   0.378 -0.1510  0.3447 -0.4519
 8370TIP3    H246602   0.945   6.031   0.317  0.3574  0.4152  0.4165
 8371TIP3   OH246603   3.285   4.179  13.020  1.0828  0.0523  0.1134
 8371TIP3    H146604   3.248   4.126  12.949  1.6299 -0.3945  0.1521
 8371TIP3    H246605   3.337   4.117  13.071  1.5882  0.5896  0.2659
 8372TIP3   OH246606   3.700   1.159   4.682  0.7140  0.0752  0.6712
 8372TIP3    H146607   3.675   1.071   4.712  3.3193 -1.9459 -2.3965
 8372TIP3    H246608   3.781   1.178   4.728  0.5428  0.5644  0.7755
 8373TIP3   OH246609   3.293   0.881   5.039  0.7455  0.0563  0.2252
 8373TIP3    H146610   3.258   0.964   5.070 -0.3533 -0.2159 -0.2589
 8373TIP3    H246611   3.286   0.823   5.115 -1.7205 -0.5410 -0.3579
 8374TIP3   OH246612   0.078   4.097  10.853 -0.2671 -0.1397  0.0641
 8374TIP3    H146613   0.145   4.084  10.786 -1.2001 -0.6962 -0.7847
 8374TIP3    H246614   0.126   4.132  10.928  1.1222 -1.3406 -0.2127
 8375TIP3   OH246615   1.929   0.582  16.140  0.4984 -0.2522 -0.3446
 8375TIP3    H146616   1.964   0.498  16.171  0.3327 -0.1453  0.1495
 8375TIP3    H246617   1.845   0.559  16.100 -0.2932 -0.1647  1.1594
 8376TIP3   OH246618   1.659   0.617  17.091 -0.1041 -0.0825  0.3432
 8376TIP3    H146619   1.702   0.545  17.043 -0.2183  0.2986 -0.3403
 8376TIP3    H246620   1.661   0.589  17.182 -2.1282 -2.0097 -0.1200
 8377TIP3   OH246621   5.121   0.025  13.353 -0.0398 -0.1858 -0.4819
 8377TIP3    H146622   5.096   0.109  13.391  1.7465 -0.6595  1.9247
 8377TIP3    H246623   5.217   0.027  13.350  0.0325 -2.0118 -0.6559
 8378TIP3   OH246624   3.444   0.532   2.910 -0.0442 -0.3078  0.0302
 8378TIP3    H146625   3.529   0.495   2.884  0.5053  0.4903  0.6499
 8378TIP3    H246626   3.444   0.619   2.872  0.9843  1.0983  2.9602
 8379TIP3   OH246627   4.398   0.140   1.560  0.3961  0.2642  0.0357
 8379TIP3    H146628   4.376   0.051   1.535 -1.4087  0.0879  2.0094
 8379TIP3    H246629   4.326   0.168   1.616 -0.0755  3.6390 -1.9570
 8380TIP3   OH246630   3.313   1.878   5.175 -0.3289 -0.3744  0.1996
 8380TIP3    H146631   3.395   1.837   5.204  0.4890 -0.4940 -2.0563
 8380TIP3    H246632   3.245   1.816   5.200  0.3355 -0.6379  1.4298
 8381TIP3   OH246633   2.775   5.559  15.340 -0.7275 -0.3098  0.0778
 8381TIP3    H146634   2.838   5.558  15.268 -0.2132 -0.4863  0.5222
 8381TIP3    H246635   2.696   5.521  15.302 -0.4693 -0.3938 -0.3993
 8382TIP3   OH246636   0.830   3.638  15.405 -0.1514 -0.0677  0.2471
 8382TIP3    H146637   0.911   3.615  15.451 -0.6394 -0.0331  1.1339
 8382TIP3    H246638   0.770   3.667  15.474 -0.4208  1.3901 -0.5642
 8383TIP3   OH246639   0.397   4.203  14.715 -0.7754  0.2920  0.5339
 8383TIP3    H146640   0.333   4.273  14.701  1.4874  1.9533 -2.8156
 8383TIP3    H246641   0.346   4.122  14.705 -2.8063  1.4630  0.8339
 8384TIP3   OH246642   4.230   5.351   4.174  0.2041  0.0308  0.1056
 8384TIP3    H146643   4.259   5.343   4.083  1.3659 -1.1245  0.5389
 8384TIP3    H246644   4.157   5.290   4.181  0.6929 -0.5580  0.1601
 8385TIP3   OH246645   2.493   5.516  13.217  0.1968  0.3257  0.4898
 8385TIP3    H146646   2.480   5.423  13.197 -1.3740  0.5503  0.3046
 8385TIP3    H246647   2.476   5.523  13.311 -0.9542  0.5995  0.2786
 8386TIP3   OH246648   0.558   4.775   0.767  0.8873  0.8900  0.0333
 8386TIP3    H146649   0.502   4.699   0.781  1.6151  0.5458  1.2163
 8386TIP3    H246650   0.606   4.756   0.687 -0.4154  1.0362 -0.7995
 8387TIP3   OH246651   0.450   1.833   1.706 -0.4587 -0.5515  0.5627
 8387TIP3    H146652   0.386   1.775   1.664 -0.5063  0.8824 -1.4859
 8387TIP3    H246653   0.397   1.901   1.748 -0.3396 -0.8102  1.1430
 8388TIP3   OH246654   1.035   2.647   1.845  0.1960  0.1685 -0.2754
 8388TIP3    H146655   1.069   2.737   1.843  0.8690 -0.0878 -0.4236
 8388TIP3    H246656   0.941   2.658   1.864  0.2428  0.9092 -0.4276
 8389TIP3   OH246657   2.152   5.223   5.438 -0.1510  0.4335  0.2291
 8389TIP3    H146658   2.226   5.281   5.419  1.4598 -0.9442  1.8826
 8389TIP3    H246659   2.122   5.194   5.352 -0.9219  3.4706 -0.6476
 8390TIP3   OH246660   1.390   2.490  11.323 -0.3887  0.5997 -0.0768
 8390TIP3    H146661   1.382   2.432  11.399 -1.3759  0.8029 -0.0060
 8390TIP3    H246662   1.397   2.431  11.249  1.1180  0.3951  0.1992
 8391TIP3   OH246663   5.145   2.468   2.501  0.6000  0.4491 -0.0430
 8391TIP3    H146664   5.171   2.377   2.508 -1.0963 -0.0490  0.2910
 8391TIP3    H246665   5.159   2.504   2.589  0.1740  0.1750  0.1433
 8392TIP3   OH246666   2.887   2.503   5.976 -0.5739  0.3161  0.1221
 8392TIP3    H146667   2.942   2.425   5.979 -0.1395  0.6073  3.8117
 8392TIP3    H246668   2.803   2.472   5.941  0.1524 -1.4003 -0.1724
 8393TIP3   OH246669   0.011   3.970   2.233 -0.0241 -0.8678  0.2815
 8393TIP3    H146670   0.012   3.999   2.324  0.9686  1.9049 -0.4879
 8393TIP3    H246671   0.100   3.986   2.202 -1.1195  1.5588 -2.0151
 8394TIP3   OH246672   2.971   1.049  11.423  0.1270  0.0914 -0.4276
 8394TIP3    H146673   2.919   0.985  11.470  0.5734  0.4804  0.6379
 8394TIP3    H246674   2.945   1.040  11.332 -1.9857  0.4291  0.0832
 8395TIP3   OH246675   6.144   5.169  12.481 -0.2911  0.2533 -0.8745
 8395TIP3    H146676   6.067   5.196  12.531  1.2015  0.2414  1.6424
 8395TIP3    H246677   6.157   5.237  12.415 -1.4220  1.1814 -0.1616
 8396TIP3   OH246678   4.113   1.643   4.277 -0.0992  0.3268 -0.2675
 8396TIP3    H146679   4.104   1.548   4.290 -0.6766  0.2411 -1.2291
 8396TIP3    H246680   4.086   1.681   4.360 -0.6303 -0.3243 -0.1307
 8397TIP3   OH246681   0.070   6.279   0.603  0.3596  0.3920 -0.3343
 8397TIP3    H146682   0.162   6.274   0.574  0.8989  1.1219  1.1484
 8397TIP3    H246683   0.075   6.296   0.697 -1.3252 -2.1560  0.3153
 8398TIP3   OH246684   3.233   2.406   1.799 -0.0763  1.3401  0.1370
 8398TIP3    H146685   3.173   2.439   1.731 -2.3295 -3.3910 -0.5777
 8398TIP3    H246686   3.279   2.334   1.757  1.9938  1.2222  2.4016
 8399TIP3   OH246687   1.114   3.888  14.962 -0.5527 -0.4916 -0.3966
 8399TIP3    H146688   1.038   3.943  14.941 -0.1051  0.1482 -0.3693
 8399TIP3    H246689   1.169   3.943  15.017  0.2623 -0.7025 -0.9893
 8400TIP3   OH246690   0.068   1.160  13.242  0.2314 -0.1020 -0.1151
 8400TIP3    H146691   0.038   1.171  13.152 -0.7022  0.8333  0.2959
 8400TIP3    H246692  -0.012   1.158  13.294  0.8168  0.9283  0.8504
 8401TIP3   OH246693   2.183   0.533   4.905  0.1342  0.5139 -0.6338
 8401TIP3    H146694   2.149   0.444   4.912  1.4232  0.1004  1.4683
 8401TIP3    H246695   2.279   0.523   4.907  0.3096  1.9149 -0.5028
 8402TIP3   OH246696   3.679   4.530  14.959  0.1620 -0.3004  0.3257
 8402TIP3    H146697   3.740   4.486  14.900  0.8137  1.4428 -0.3725
 8402TIP3    H246698   3.735   4.575  15.022 -0.5202 -1.8918  2.1568
 8403TIP3   OH246699   5.512   1.968  14.883 -0.5202 -0.0916  0.8831
 8403TIP3    H146700   5.499   2.001  14.972 -1.8390  0.0736  0.6482
 8403TIP3    H246701   5.524   2.046  14.829 -2.5500  0.0178  0.5010
 8404TIP3   OH246702   4.936   5.808  11.073  0.4754 -0.1856  0.4272
 8404TIP3    H146703   4.971   5.847  10.993  1.9107 -0.0817  1.0707
 8404TIP3    H246704   4.870   5.746  11.043  0.8799 -0.0360 -0.8306
 8405TIP3   OH246705   0.857   4.323   4.505  0.3984 -0.4666 -0.1891
 8405TIP3    H146706   0.865   4.231   4.480  3.2105 -0.7523  1.3847
 8405TIP3    H246707   0.787   4.324   4.571 -0.1327 -1.3400 -0.7281
 8406TIP3   OH246708   1.738   4.706   5.895  0.3019  0.0911  0.8271
 8406TIP3    H146709   1.795   4.650   5.842 -0.5807  0.8097 -0.9483
 8406TIP3    H246710   1.649   4.679   5.871 -0.1259  0.7042  1.6683
 8407TIP3   OH246711   5.027   5.528  17.086  0.4128 -1.4940 -0.3039
 8407TIP3    H146712   4.949   5.471  17.084  1.3545 -2.8655  0.3877
 8407TIP3    H246713   5.100   5.469  17.068  1.5632 -0.7577  1.5925
 8408TIP3   OH246714   4.230   5.815  16.809 -0.3963  0.7720  0.0450
 8408TIP3    H146715   4.315   5.817  16.765 -1.4987  0.3819 -2.2260
 8408TIP3    H246716   4.228   5.730  16.852 -0.6560 -0.3768 -2.1279
 8409TIP3   OH246717   1.813   6.173  13.388 -0.1104  0.3159 -0.3800
 8409TIP3    H146718   1.724   6.196  13.414 -0.2663 -0.5919 -0.0503
 8409TIP3    H246719   1.855   6.142  13.468  0.0525 -0.5865 -0.7903
 8410TIP3   OH246720   1.998   5.042  10.900 -0.3296  0.2629 -0.1937
 8410TIP3    H146721   1.941   4.967  10.886 -1.4778  1.0417  0.1287
 8410TIP3    H246722   1.941   5.109  10.936  0.8043  1.0831  0.1507
 8411TIP3   OH246723   6.033   4.197  15.897 -0.6421  0.0893  0.9225
 8411TIP3    H146724   5.990   4.142  15.832  1.9983  0.0284 -0.9313
 8411TIP3    H246725   6.065   4.135  15.963 -0.4747 -0.2537  0.5274
 8412TIP3   OH246726   4.159   6.709  15.473 -0.3722 -0.0410 -0.4923
 8412TIP3    H146727   4.171   6.614  15.477 -0.9229 -0.0823  0.6223
 8412TIP3    H246728   4.197   6.734  15.389  3.0930 -0.7655  0.6698
 8413TIP3   OH246729   4.137   4.216  14.283  0.3583  0.4252 -0.0747
 8413TIP3    H146730   4.104   4.203  14.194  0.4589  1.8549 -0.3513
 8413TIP3    H246731   4.071   4.175  14.339  0.5677 -0.9777 -0.8184
 8414TIP3   OH246732   2.390   4.841   3.927 -0.3407 -0.0413  0.1023
 8414TIP3    H146733   2.413   4.892   3.850 -1.0657  0.9676  0.5259
 8414TIP3    H246734   2.359   4.758   3.893  0.0898  0.0993 -0.6520
 8415TIP3   OH246735   4.631   6.565   0.411  0.3749  0.3098 -0.4868
 8415TIP3    H146736   4.543   6.604   0.407 -0.0429 -0.5439 -0.0182
 8415TIP3    H246737   4.679   6.623   0.470 -0.7004 -0.6732  1.4701
 8416TIP3   OH246738   5.773   1.715  10.510  0.5183 -0.6681  0.1329
 8416TIP3    H146739   5.760   1.621  10.520  1.3736 -0.6786  1.5417
 8416TIP3    H246740   5.856   1.732  10.556  0.5764  0.7115 -0.4457
 8417TIP3   OH246741   6.431   5.853  13.844 -0.1509 -0.0614  0.1226
 8417TIP3    H146742   6.390   5.906  13.913 -0.4327 -0.3401  0.1715
 8417TIP3    H246743   6.412   5.763  13.869  2.4521 -0.3369  1.3751
 8418TIP3   OH246744   5.015   0.160   2.957  0.0425  0.0566 -0.5618
 8418TIP3    H146745   5.084   0.094   2.960  0.9456  1.0136  0.9939
 8418TIP3    H246746   4.947   0.126   3.015 -2.3911 -2.4150 -4.4083
 8419TIP3   OH246747   1.208   2.065  12.032 -0.0628  0.3512 -0.5519
 8419TIP3    H146748   1.226   1.979  12.069  3.1176  1.0446 -0.1917
 8419TIP3    H246749   1.204   2.050  11.938  0.8723 -0.1634 -0.5235
 8420TIP3   OH246750   4.441   3.970  13.614  0.2521  0.2678  0.2137
 8420TIP3    H146751   4.460   3.895  13.558  2.3326  1.9988 -1.5893
 8420TIP3    H246752   4.377   4.022  13.566  1.6222  1.4768 -0.3920
 8421TIP3   OH246753   4.862   1.699   2.901 -0.0639 -0.0877  0.6009
 8421TIP3    H146754   4.855   1.603   2.899 -0.3912 -0.0833 -2.0246
 8421TIP3    H246755   4.887   1.723   2.812 -2.3194  2.4358  0.5244
 8422TIP3   OH246756   1.603   2.231  15.401 -0.2348  0.7018  0.1637
 8422TIP3    H146757   1.562   2.199  15.320 -0.2183  2.3821 -0.5453
 8422TIP3    H246758   1.697   2.218  15.386 -0.2586  0.6372  0.0679
 8423TIP3   OH246759   4.644   5.021  10.811 -0.6851 -0.6760  0.8634
 8423TIP3    H146760   4.709   4.981  10.869 -0.1979  0.5076  1.1489
 8423TIP3    H246761   4.601   4.946  10.768  1.2303 -1.4735  0.2502
 8424TIP3   OH246762   4.058   2.005  15.169 -0.1940 -0.0777 -0.5046
 8424TIP3    H146763   3.991   2.073  15.163  1.9341  2.1511 -0.7616
 8424TIP3    H246764   4.053   1.974  15.260 -0.5311  1.1719 -0.0805
 8425TIP3   OH246765   0.436   0.697  13.510  0.2183 -0.1252 -0.1826
 8425TIP3    H146766   0.356   0.744  13.487  0.8219  0.6024 -0.8269
 8425TIP3    H246767   0.412   0.604  13.503 -0.8495  0.0725  0.6572
 8426TIP3   OH246768   5.438   5.180  14.001 -0.1765  0.1720 -0.2616
 8426TIP3    H146769   5.423   5.268  14.037  1.1682  0.4712 -0.3712
 8426TIP3    H246770   5.519   5.188  13.951  0.8232 -1.4982  1.0003
 8427TIP3   OH246771   2.907   2.357  17.359 -0.2671  0.0767  0.7905
 8427TIP3    H146772   2.965   2.301  17.411  0.4791  0.3129  0.2324
 8427TIP3    H246773   2.829   2.303  17.343  1.0685 -1.4402 -1.0883
 8428TIP3   OH246774   6.469   5.715   2.898 -0.3913  0.3995 -0.0811
 8428TIP3    H146775   6.388   5.666   2.883 -2.4838  3.2740  0.9028
 8428TIP3    H246776   6.520   5.661   2.957 -0.9410 -2.0848 -1.7261
 8429TIP3   OH246777   3.228   3.830  16.916  0.1439 -0.1939 -0.2281
 8429TIP3    H146778   3.292   3.781  16.865 -2.4359 -1.7961 -2.2059
 8429TIP3    H246779   3.191   3.766  16.976 -1.9864 -0.3108 -1.5617
 8430TIP3   OH246780   6.736   1.424  13.395  0.5351  0.0728 -0.6812
 8430TIP3    H146781   6.686   1.343  13.392 -0.8796  0.9042 -0.4490
 8430TIP3    H246782   6.800   1.416  13.323 -0.4752 -0.6765 -1.5230
 8431TIP3   OH246783   4.022   1.120  11.949  0.9978 -0.0021  0.6145
 8431TIP3    H146784   4.090   1.152  11.889  1.1102 -0.4460  0.4973
 8431TIP3    H246785   3.982   1.046  11.902  0.1859  0.4836  0.5255
 8432TIP3   OH246786   4.158   0.846  11.717  0.3368 -0.1140  0.3778
 8432TIP3    H146787   4.227   0.889  11.666  0.3667  1.4922  1.6817
 8432TIP3    H246788   4.200   0.827  11.801 -0.0504 -1.6065  0.2507
 8433TIP3   OH246789   1.892   1.195  14.380  0.3529  0.4969  0.0872
 8433TIP3    H146790   1.811   1.245  14.389 -0.2134 -0.4660  0.4363
 8433TIP3    H246791   1.950   1.253  14.331 -1.0498  0.6224 -1.5033
 8434TIP3   OH246792   4.282   0.126  15.626  0.8177 -0.3864  0.1648
 8434TIP3    H146793   4.257   0.122  15.718 -2.8662  1.0342 -0.5777
 8434TIP3    H246794   4.232   0.056  15.585  3.7510 -2.1684 -0.6566
 8435TIP3   OH246795   3.462   2.503  12.270  0.2131 -0.1466  0.0245
 8435TIP3    H146796   3.480   2.432  12.209 -0.7703  0.9766 -1.6746
 8435TIP3    H246797   3.490   2.582  12.224 -2.2903  0.9319  0.1727
 8436TIP3   OH246798   6.159   0.188   5.912  0.4570 -0.5997  0.2410
 8436TIP3    H146799   6.076   0.141   5.917  0.8522 -1.1843  1.8649
 8436TIP3    H246800   6.150   0.258   5.978  0.7483  0.1889 -0.5387
 8437TIP3   OH246801   4.023   2.829   4.914 -0.2100 -0.5637  0.5324
 8437TIP3    H146802   4.020   2.874   4.830  1.1707 -0.1683  0.6723
 8437TIP3    H246803   4.090   2.762   4.904 -0.0611 -0.5465  1.2959
 8438TIP3   OH246804   1.703   4.664  15.498 -0.3376  0.0430 -0.2201
 8438TIP3    H146805   1.610   4.681  15.487 -0.3166 -1.1038 -2.8018
 8438TIP3    H246806   1.715   4.659  15.593 -2.6667  1.3009  0.2055
 8439TIP3   OH246807   5.859   5.415  11.830  0.2816  0.1894  0.0616
 8439TIP3    H146808   5.879   5.394  11.738 -0.0681 -0.7799  0.1901
 8439TIP3    H246809   5.773   5.456  11.826  0.9065  1.5280 -0.1802
 8440TIP3   OH246810   2.991   5.703   4.986 -0.1022 -0.5931 -0.0134
 8440TIP3    H146811   2.920   5.699   5.049  0.4669 -1.4354  0.5961
 8440TIP3    H246812   3.058   5.756   5.028  0.2472 -1.0886  0.0587
 8441TIP3   OH246813   3.914   0.981   0.139 -0.5174 -0.2913  0.0855
 8441TIP3    H146814   3.856   0.909   0.164 -3.1937  1.5722 -0.2981
 8441TIP3    H246815   3.935   1.025   0.221  0.2384 -0.8666  0.2066
 8442TIP3   OH246816   2.186   1.668   4.892  0.3225 -0.4393 -0.7146
 8442TIP3    H146817   2.249   1.702   4.827 -0.0883  0.5016 -0.6316
 8442TIP3    H246818   2.101   1.682   4.851  0.1138 -0.7581 -0.3826
 8443TIP3   OH246819   0.756   2.909  14.689 -0.6408 -0.5241  0.6318
 8443TIP3    H146820   0.702   2.985  14.668  0.1714 -0.3985 -1.1954
 8443TIP3    H246821   0.836   2.945  14.727  0.4518 -0.2406 -1.7120
 8444TIP3   OH246822   4.232   3.822  13.151  0.6646  0.5192 -0.2604
 8444TIP3    H146823   4.242   3.885  13.080  0.5383  2.0986  1.0649
 8444TIP3    H246824   4.162   3.858  13.206  2.7455  0.9633  2.2651
 8445TIP3   OH246825   0.400   2.545  11.956  0.1709  0.1575  0.0887
 8445TIP3    H146826   0.339   2.571  12.026  1.2214  0.3935  0.9427
 8445TIP3    H246827   0.372   2.597  11.880 -0.0694  1.0201  0.7436
 8446TIP3   OH246828   6.725   0.927   6.565 -0.3922  0.4728  0.1106
 8446TIP3    H146829   6.776   0.991   6.516 -0.8999 -0.1202 -1.2381
 8446TIP3    H246830   6.790   0.863   6.596  0.1052  1.5698  1.4139
 8447TIP3   OH246831   6.308   4.861  13.003  0.6253  0.5485 -0.3987
 8447TIP3    H146832   6.252   4.846  12.927  1.2841  2.5384 -1.3370
 8447TIP3    H246833   6.260   4.822  13.077 -1.1066  0.5852 -1.4548
 8448TIP3   OH246834   2.700   2.087   6.798 -0.4607  0.0476  0.2056
 8448TIP3    H146835   2.736   2.014   6.849 -0.8331 -0.4096 -0.1669
 8448TIP3    H246836   2.765   2.156   6.805  1.1934 -1.2218 -1.6279
 8449TIP3   OH246837   2.639   3.482   1.344 -0.1416  0.3994  0.1125
 8449TIP3    H146838   2.691   3.559   1.318  1.2900 -0.6705 -0.2943
 8449TIP3    H246839   2.663   3.466   1.435 -1.7062  1.3945  0.7425
 8450TIP3   OH246840   4.256   4.524  12.533 -0.2637 -0.6173 -0.6435
 8450TIP3    H146841   4.283   4.438  12.502  0.7835 -0.7160  0.4517
 8450TIP3    H246842   4.263   4.519  12.629  2.4492  1.4624 -0.6010
 8451TIP3   OH246843   0.292   3.203   5.913  0.0850 -0.2438  0.5499
 8451TIP3    H146844   0.270   3.293   5.938 -0.9310 -0.0736 -0.8460
 8451TIP3    H246845   0.299   3.205   5.818  1.6366 -1.3351  0.6010
 8452TIP3   OH246846   2.046   3.671  14.065 -0.1005  0.0511 -0.1276
 8452TIP3    H146847   2.049   3.597  14.124 -0.6658  1.1974  1.3992
 8452TIP3    H246848   2.046   3.632  13.977  1.2037 -1.6745  0.5782
 8453TIP3   OH246849   4.435   5.655  15.867 -0.1962  0.2900  0.1289
 8453TIP3    H146850   4.458   5.748  15.864 -1.0780  0.8669  4.2203
 8453TIP3    H246851   4.343   5.655  15.895 -1.0608 -1.9147 -2.3341
 8454TIP3   OH246852   4.953   4.088   4.593 -0.4190  0.0138  0.2772
 8454TIP3    H146853   4.919   4.039   4.669 -0.1346  1.3658  1.3026
 8454TIP3    H246854   4.877   4.100   4.537 -0.4214 -1.9514 -0.2341
 8455TIP3   OH246855   0.184   0.574  13.604 -0.2651  0.0074  0.1527
 8455TIP3    H146856   0.097   0.592  13.569  0.8350  1.7283 -1.8686
 8455TIP3    H246857   0.199   0.481  13.586  0.0014  0.6304 -3.7087
 8456TIP3   OH246858   6.665   6.056   6.139  0.2800 -0.3016 -0.4743
 8456TIP3    H146859   6.590   6.116   6.145  0.1459 -0.5364  0.3588
 8456TIP3    H246860   6.737   6.102   6.182  1.1584  0.6931 -2.8741
 8457TIP3   OH246861   2.712   2.196  12.908 -0.1616  0.1178  0.6419
 8457TIP3    H146862   2.729   2.261  12.840 -2.5144 -0.7902 -0.9398
 8457TIP3    H246863   2.750   2.115  12.873  0.6581  0.1064  1.5166
 8458TIP3   OH246864   1.097   3.059  16.835 -0.0279 -0.0504  0.0827
 8458TIP3    H146865   1.046   3.006  16.774 -0.3482 -0.8141  0.9873
 8458TIP3    H246866   1.045   3.139  16.847  0.7262  0.7523 -1.7181
 8459TIP3   OH246867   4.219   3.051  12.185  0.1913  1.1384  0.1900
 8459TIP3    H146868   4.300   3.005  12.162  0.1573  1.1184  0.1112
 8459TIP3    H246869   4.213   3.043  12.280 -1.0865 -1.1386 -0.0273
 8460TIP3   OH246870   4.964   2.924  13.581  0.5638  0.6535 -0.3889
 8460TIP3    H146871   4.973   2.866  13.506  0.8925  0.2457 -0.0433
 8460TIP3    H246872   4.881   2.969  13.567  0.3723  0.2007 -0.7412
 8461TIP3   OH246873   0.206   0.398  10.836 -0.8939  0.3022 -0.3211
 8461TIP3    H146874   0.258   0.318  10.844 -0.2112  0.0296 -4.7690
 8461TIP3    H246875   0.270   0.467  10.819 -1.5876  1.5985  1.9560
 8462TIP3   OH246876   1.797   2.665   1.814  0.3874  0.6912  0.2676
 8462TIP3    H146877   1.824   2.704   1.731  1.8891  1.3077  1.0121
 8462TIP3    H246878   1.857   2.592   1.827  0.6751  1.0731  1.1708
 8463TIP3   OH246879   4.280   2.096   2.365 -0.5550 -0.6967 -0.1616
 8463TIP3    H146880   4.302   2.072   2.275  0.6665 -1.1614  0.2375
 8463TIP3    H246881   4.338   2.042   2.419  0.0999  0.9317  0.8583
 8464TIP3   OH246882   2.629   2.760  14.396 -0.1131 -0.0207 -0.1548
 8464TIP3    H146883   2.602   2.674  14.429 -0.4061  0.4061  0.7261
 8464TIP3    H246884   2.559   2.819  14.421  1.1800  0.9348  1.4138
 8465TIP3   OH246885   4.459   6.601  15.506 -0.3413 -0.1692 -0.0554
 8465TIP3    H146886   4.513   6.571  15.433 -1.4934 -1.2529 -0.4865
 8465TIP3    H246887   4.394   6.658  15.467  1.0487  2.0096  0.6027
 8466TIP3   OH246888   2.306   1.927   3.526 -0.6221  0.0727  0.1132
 8466TIP3    H146889   2.239   1.884   3.472 -0.2342 -0.3953 -0.0104
 8466TIP3    H246890   2.262   2.001   3.566 -0.8372  0.6618 -1.1564
 8467TIP3   OH246891   4.136   6.357  12.825  0.2040  0.1152 -0.4915
 8467TIP3    H146892   4.126   6.351  12.920  1.0664  1.9029 -0.2375
 8467TIP3    H246893   4.229   6.341  12.810  0.9532  3.6186 -0.5304
 8468TIP3   OH246894   2.371   3.109  12.503  0.1878 -0.4999  0.4860
 8468TIP3    H146895   2.431   3.049  12.547 -0.5521 -1.3286  0.4030
 8468TIP3    H246896   2.394   3.103  12.410 -0.1157 -0.9277  0.4380
 8469TIP3   OH246897   6.633   2.541   1.861  0.2327  0.1464  0.1603
 8469TIP3    H146898   6.668   2.452   1.870 -0.9782 -0.4930 -1.1753
 8469TIP3    H246899   6.707   2.598   1.883  0.9875 -1.1682  1.1867
 8470TIP3   OH246900   2.460   2.805  15.280 -0.3155  0.3582 -0.1614
 8470TIP3    H146901   2.394   2.804  15.210  1.9492 -1.7263 -2.4652
 8470TIP3    H246902   2.540   2.835  15.237  0.9589 -0.1381  1.7525
 8471TIP3   OH246903   1.309   3.520  14.123 -0.1501  0.1258  0.0901
 8471TIP3    H146904   1.307   3.573  14.043 -0.3141 -0.0442 -0.0197
 8471TIP3    H246905   1.294   3.583  14.194  0.3965  0.3415  0.0232
 8472TIP3   OH246906   1.960   0.754  13.707 -0.2190 -0.2511  0.0889
 8472TIP3    H146907   2.028   0.688  13.690 -0.1522  0.2370 -1.6987
 8472TIP3    H246908   1.891   0.706  13.753  1.5946 -0.6013  2.6697
 8473TIP3   OH246909   3.499   3.931   1.185  0.4202  0.2952 -0.0363
 8473TIP3    H146910   3.563   4.003   1.184  1.1842 -0.3444  0.8411
 8473TIP3    H246911   3.486   3.912   1.278 -0.6784  0.0702 -0.2222
 8474TIP3   OH246912   2.774   4.933   3.859  0.2269 -0.1904  0.0484
 8474TIP3    H146913   2.711   4.886   3.914 -1.0118  0.0577 -1.1084
 8474TIP3    H246914   2.822   4.864   3.813  0.3815 -0.3664  0.4666
 8475TIP3   OH246915   5.085   6.233   4.572  0.0719  0.1519 -0.5602
 8475TIP3    H146916   5.028   6.308   4.588  0.3768  0.8115 -2.3058
 8475TIP3    H246917   5.141   6.228   4.650 -1.1122  0.6505  0.3425
 8476TIP3   OH246918   1.886   1.011   1.336  0.1636 -0.8314  0.2057
 8476TIP3    H146919   1.857   1.051   1.254 -1.3234  1.2763  1.6577
 8476TIP3    H246920   1.940   1.078   1.378  0.5117 -1.6909  1.1795
 8477TIP3   OH246921   4.612   5.226   2.393 -0.2198  0.3273  0.0353
 8477TIP3    H146922   4.587   5.154   2.335  0.0714  0.0614  0.2352
 8477TIP3    H246923   4.569   5.303   2.356  0.9052  0.3808 -1.2336
 8478TIP3   OH246924   3.763   2.680  17.116 -0.3807  0.0448 -0.3290
 8478TIP3    H146925   3.771   2.770  17.146 -0.0635 -0.0630 -0.0893
 8478TIP3    H246926   3.832   2.669  17.051 -0.0051 -0.2113  0.1042
 8479TIP3   OH246927   6.404   1.317   4.186  0.2869 -0.6367  0.0244
 8479TIP3    H146928   6.375   1.242   4.238  0.2251  0.6283  1.9186
 8479TIP3    H246929   6.378   1.393   4.238  1.8505  0.6624 -1.0052
 8480TIP3   OH246930   4.875   6.313   2.054 -0.5288 -0.2051  0.0041
 8480TIP3    H146931   4.900   6.383   2.114 -1.0866 -0.7274  0.8749
 8480TIP3    H246932   4.935   6.241   2.076 -0.9340 -0.5008  0.1550
 8481TIP3   OH246933   1.575   0.578   3.376  0.0818 -0.1592  0.0574
 8481TIP3    H146934   1.497   0.633   3.365 -1.0871 -1.8347 -0.4681
 8481TIP3    H246935   1.626   0.592   3.295  0.1148  0.5938  0.1996
 8482TIP3   OH246936   5.087   1.947  16.069 -0.5798 -0.0201 -0.5441
 8482TIP3    H146937   5.158   1.916  16.013  0.7735  1.1113  0.4846
 8482TIP3    H246938   5.010   1.897  16.040  0.0693  0.4682 -3.3293
 8483TIP3   OH246939   1.867   0.410   2.484  0.0617  0.2461  0.5189
 8483TIP3    H146940   1.959   0.434   2.488  0.1569 -0.2044  1.1133
 8483TIP3    H246941   1.820   0.494   2.479  0.5909  0.4586 -2.4379
 8484TIP3   OH246942   2.781   1.974   1.361 -0.1522 -0.3920  0.9392
 8484TIP3    H146943   2.783   1.990   1.267 -0.6936  0.6187  1.0770
 8484TIP3    H246944   2.687   1.972   1.383 -0.0268 -0.0595  1.5315
 8485TIP3   OH246945   1.445   3.405   2.077  0.6131  0.0799 -0.0574
 8485TIP3    H146946   1.358   3.389   2.114 -0.7604  2.6017 -1.8429
 8485TIP3    H246947   1.446   3.354   1.996  0.7326  0.1167 -0.0793
 8486TIP3   OH246948   3.166   3.866   2.089 -0.2733  0.0537  0.1405
 8486TIP3    H146949   3.074   3.872   2.063 -0.0945 -1.0387 -0.7996
 8486TIP3    H246950   3.195   3.781   2.057  1.0918  0.4038  0.3798
 8487TIP3   OH246951   5.424   4.734   3.417 -0.4744 -0.0267  1.1684
 8487TIP3    H146952   5.490   4.664   3.411 -0.0626  0.4502 -0.0971
 8487TIP3    H246953   5.474   4.812   3.441  0.0244  1.0392 -2.6847
 8488TIP3   OH246954   1.536   0.482   0.155  0.7033  0.0246  0.2575
 8488TIP3    H146955   1.612   0.430   0.128  1.1079  0.9278 -0.3898
 8488TIP3    H246956   1.541   0.561   0.101 -2.1551 -1.0150 -1.7483
 8489TIP3   OH246957   0.157   0.640  15.441  0.4153  0.0026 -0.4407
 8489TIP3    H146958   0.211   0.711  15.407  0.5680 -0.4550 -1.1826
 8489TIP3    H246959   0.132   0.590  15.364  1.2169 -1.3835  0.1553
 8490TIP3   OH246960   6.654   5.760   5.455  0.5430 -0.2586 -0.0075
 8490TIP3    H146961   6.591   5.717   5.397 -0.1585  0.6695  0.0371
 8490TIP3    H246962   6.619   5.747   5.543  0.4122  0.2363  0.0200
 8491TIP3   OH246963   3.548   2.257   3.398 -0.0534 -0.6867 -0.5628
 8491TIP3    H146964   3.454   2.258   3.415 -0.1867  0.4749 -1.2286
 8491TIP3    H246965   3.555   2.275   3.304  0.8881  2.2697 -0.0259
 8492TIP3   OH246966   5.479   5.906  13.465 -0.9941 -0.0149 -0.4586
 8492TIP3    H146967   5.419   5.855  13.520  0.7045 -1.3602  0.2314
 8492TIP3    H246968   5.560   5.910  13.515 -0.1763  0.9294 -1.7849
 8493TIP3   OH246969   0.554   1.955  13.515 -0.3277  0.0974 -0.2056
 8493TIP3    H146970   0.638   2.000  13.509 -0.6126  0.7786  0.7387
 8493TIP3    H246971   0.567   1.874  13.465  1.4769 -0.6742  1.3480
 8494TIP3   OH246972   4.997   6.518   2.299  0.2462  0.1491  0.0787
 8494TIP3    H146973   4.941   6.581   2.345 -1.7755 -0.4741 -1.3904
 8494TIP3    H246974   4.983   6.435   2.344  0.8138  0.1862  0.3363
 8495TIP3   OH246975   1.009   5.920   3.641  0.2032 -0.2014 -0.1268
 8495TIP3    H146976   0.946   5.989   3.620  0.1819  0.2511  1.3110
 8495TIP3    H246977   1.067   5.917   3.565  0.3155  1.5371 -0.1556
 8496TIP3   OH246978   3.532   1.785  14.452 -0.4572 -0.2610  0.2573
 8496TIP3    H146979   3.551   1.748  14.538 -0.2372 -1.5539 -0.3180
 8496TIP3    H246980   3.445   1.823  14.460 -0.8732 -1.2907  0.7814
 8497TIP3   OH246981   2.552   0.232   6.186 -0.3075  0.6386  0.2468
 8497TIP3    H146982   2.636   0.277   6.187 -0.3108  0.6772  1.9811
 8497TIP3    H246983   2.489   0.300   6.213 -1.4254  1.4309 -3.6731
 8498TIP3   OH246984   1.682   6.101  15.510  0.2057  0.0375  0.3040
 8498TIP3    H146985   1.770   6.089  15.474  0.1643  1.8359 -0.4652
 8498TIP3    H246986   1.643   6.170  15.457 -1.4499 -0.2662  1.0602
 8499TIP3   OH246987   5.951   5.286   0.545 -0.1776  0.2042  0.0703
 8499TIP3    H146988   5.913   5.246   0.623 -2.3349  1.0914 -0.4579
 8499TIP3    H246989   5.966   5.213   0.485 -0.7257 -0.2108  0.4327
 8500TIP3   OH246990   6.000   3.779   2.910 -0.8490 -0.2210 -0.3808
 8500TIP3    H146991   6.095   3.767   2.905 -1.0855 -1.7873 -1.9528
 8500TIP3    H246992   5.989   3.851   2.973  1.1880 -2.1287  2.4234
 8501TIP3   OH246993   5.154   2.373   5.796  0.2562 -0.1081 -0.2338
 8501TIP3    H146994   5.078   2.402   5.745  0.2619  3.7040  1.5857
 8501TIP3    H246995   5.121   2.363   5.885  1.5392 -0.0265  0.2799
 8502TIP3   OH246996   0.826   3.991   3.187 -0.3372 -0.0674  0.3165
 8502TIP3    H146997   0.741   4.010   3.147 -0.4969  0.7957  1.0184
 8502TIP3    H246998   0.837   3.896   3.176 -1.7428 -0.3264  0.8760
 8503TIP3   OH246999   6.367   1.887   1.086  0.6244 -0.0520  0.5859
 8503TIP3    H147000   6.433   1.912   1.150 -1.1249 -0.0706  2.4805
 8503TIP3    H247001   6.283   1.894   1.132 -0.6067 -1.6055 -1.2207
 8504TIP3   OH247002   0.463   5.873  16.828  0.3563  0.1201  0.2457
 8504TIP3    H147003   0.414   5.954  16.844 -1.6756 -1.4125  2.4628
 8504TIP3    H247004   0.452   5.857  16.734 -0.1789  1.7930 -0.0064
 8505TIP3   OH247005   2.344   0.667   2.550  0.3736  0.5103 -0.8185
 8505TIP3    H147006   2.308   0.735   2.493  1.0739  0.3596 -1.4441
 8505TIP3    H247007   2.401   0.714   2.611 -0.2503  0.6497 -0.3204
 8506TIP3   OH247008   2.305   5.993   0.595  0.3218 -0.1115  0.2869
 8506TIP3    H147009   2.400   5.989   0.593  0.8008  4.7978 -0.5914
 8506TIP3    H247010   2.283   6.005   0.687  0.6894 -0.1915  0.3835
 8507TIP3   OH247011   5.498   1.365  15.188  0.2907  0.1613  1.4874
 8507TIP3    H147012   5.460   1.289  15.143 -0.8094  1.9858 -0.8489
 8507TIP3    H247013   5.445   1.439  15.160  2.2157  2.0296  2.5108
 8508TIP3   OH247014   4.271   4.427   4.040 -0.1705 -0.4402 -0.6045
 8508TIP3    H147015   4.322   4.346   4.042  0.0499 -0.2923  0.2614
 8508TIP3    H247016   4.212   4.420   4.115  0.3320  0.4985 -0.0998
 8509TIP3   OH247017   4.514   5.337   6.492 -0.5910 -0.1198  0.0950
 8509TIP3    H147018   4.483   5.360   6.405  0.2410  0.8588  0.0376
 8509TIP3    H247019   4.608   5.324   6.481 -0.1906  1.5805  1.1153
 8510TIP3   OH247020   3.481   1.299  11.422  0.0380 -0.2728 -0.5600
 8510TIP3    H147021   3.537   1.374  11.402  0.2872  0.5044  2.6036
 8510TIP3    H247022   3.396   1.322  11.385  0.5408  0.8036 -1.0829
 8511TIP3   OH247023   4.675   2.227   4.930 -0.3173  0.4285 -0.3276
 8511TIP3    H147024   4.656   2.134   4.921 -0.5101  0.5182 -0.8965
 8511TIP3    H247025   4.768   2.230   4.956 -0.6728  0.0465  1.0850
 8512TIP3   OH247026   0.943   1.718  13.960  0.4340 -0.0508 -0.3578
 8512TIP3    H147027   1.001   1.728  14.036 -1.1382  0.7338  0.7856
 8512TIP3    H247028   0.946   1.802  13.915  0.0507  0.0431 -0.2068
 8513TIP3   OH247029   0.300   4.688   3.907  0.5374  0.6642 -0.2286
 8513TIP3    H147030   0.332   4.606   3.945  0.1211  0.2189 -0.8188
 8513TIP3    H247031   0.326   4.755   3.970 -0.6419 -0.1198  1.1611
 8514TIP3   OH247032   4.839   5.502  15.203  0.2981 -0.1407 -0.3953
 8514TIP3    H147033   4.901   5.551  15.148  1.5915 -1.5044 -0.2300
 8514TIP3    H247034   4.871   5.517  15.292  0.2161 -0.6243 -0.2856
 8515TIP3   OH247035   2.912   6.560  15.688 -0.0803  0.0763  0.2876
 8515TIP3    H147036   2.921   6.638  15.742 -1.4054  0.3932  0.0877
 8515TIP3    H247037   2.817   6.548  15.679  0.1131 -1.0112 -0.4588
 8516TIP3   OH247038   0.883   4.736  11.963 -0.0072 -0.1790  0.4360
 8516TIP3    H147039   0.816   4.698  11.905  1.2292 -1.0824 -0.4452
 8516TIP3    H247040   0.834   4.798  12.018 -1.6868 -1.3144  0.3083
 8517TIP3   OH247041   0.842   4.318  14.754 -0.0238 -0.6157  0.3445
 8517TIP3    H147042   0.864   4.355  14.668 -1.8327  0.0843  0.1312
 8517TIP3    H247043   0.927   4.300  14.795  0.8804 -1.1743 -1.6548
 8518TIP3   OH247044   3.121   5.218  11.821  0.0881 -0.5178  0.2363
 8518TIP3    H147045   3.095   5.126  11.825 -0.1845 -0.4011  1.4683
 8518TIP3    H247046   3.064   5.256  11.754  1.0361 -1.4906 -1.1650
 8519TIP3   OH247047   1.219   1.768   6.350 -0.7448 -0.2128  0.3915
 8519TIP3    H147048   1.267   1.732   6.275 -0.3627 -0.6131  0.8194
 8519TIP3    H247049   1.144   1.709   6.361  0.2406 -1.3276  1.5088
 8520TIP3   OH247050   3.554   6.432  13.005 -0.4351  0.1121 -0.0226
 8520TIP3    H147051   3.517   6.445  12.917  1.5815 -0.9898 -1.1040
 8520TIP3    H247052   3.625   6.370  12.992  1.4515  1.6869  2.0261
 8521TIP3   OH247053   5.534   0.678  15.748  0.0541 -1.0038  0.2823
 8521TIP3    H147054   5.602   0.615  15.773 -0.5957 -1.5965  0.5931
 8521TIP3    H247055   5.515   0.727  15.828  1.7442  0.7834 -0.3321
 8522TIP3   OH247056   1.591   5.799   4.957 -0.0424  0.1040  0.0396
 8522TIP3    H147057   1.640   5.807   5.039  1.9505  1.1941 -1.1463
 8522TIP3    H247058   1.526   5.732   4.974  0.6005 -0.0358  2.3570
 8523TIP3   OH247059   0.095   2.250  13.160  0.2445 -0.0924 -0.7229
 8523TIP3    H147060   0.082   2.272  13.252  0.7635 -0.4403 -0.5631
 8523TIP3    H247061   0.190   2.252  13.148  0.2051 -0.5708 -1.1228
 8524TIP3   OH247062   6.466   0.992  13.601  0.4855  0.2656  0.6678
 8524TIP3    H147063   6.493   0.937  13.674 -1.0914 -0.2594  0.8949
 8524TIP3    H247064   6.395   1.046  13.637 -0.0464  0.2701 -0.3460
 8525TIP3   OH247065   6.655   4.815   2.434 -0.5861  0.3650 -0.2527
 8525TIP3    H147066   6.563   4.833   2.453 -0.0097  2.5893  0.7369
 8525TIP3    H247067   6.704   4.863   2.501  1.3232  0.0255 -1.3187
 8526TIP3   OH247068   6.572   1.247  13.221  0.2681  0.1186  0.3988
 8526TIP3    H147069   6.502   1.187  13.248 -0.9802  1.8704  1.1766
 8526TIP3    H247070   6.555   1.261  13.127  0.1262 -0.1573  0.3792
 8527TIP3   OH247071   4.184   5.116   1.661 -0.0144  0.3885 -0.1668
 8527TIP3    H147072   4.224   5.057   1.598 -0.9157  0.8173 -1.1845
 8527TIP3    H247073   4.130   5.060   1.716 -1.5564  0.2957 -1.6763
 8528TIP3   OH247074   2.288   1.390   4.878 -0.8012 -0.8922  0.3639
 8528TIP3    H147075   2.230   1.455   4.918 -2.2920 -1.4405 -0.8206
 8528TIP3    H247076   2.375   1.428   4.887 -1.4277  0.4035  1.3662
 8529TIP3   OH247077   2.721   0.670   4.782  0.1448  0.4194 -0.1417
 8529TIP3    H147078   2.741   0.613   4.708  2.3885  4.2933 -2.9156
 8529TIP3    H247079   2.778   0.641   4.852  2.9831  0.5399 -2.2280
 8530TIP3   OH247080   0.401   1.114  11.386 -0.5122  0.1926  0.0706
 8530TIP3    H147081   0.381   1.110  11.480 -1.4946 -0.9971 -0.1571
 8530TIP3    H247082   0.358   1.037  11.349 -0.7826  1.0419 -1.4819
 8531TIP3   OH247083   0.492   1.104   1.559  0.1893 -0.3473  0.1640
 8531TIP3    H147084   0.583   1.103   1.587  0.2933 -0.0907 -0.1732
 8531TIP3    H247085   0.487   1.037   1.490 -0.0095 -0.7860  0.5933
 8532TIP3   OH247086   0.272   0.605   3.921  0.0936  0.0614 -0.2100
 8532TIP3    H147087   0.213   0.681   3.918 -1.0376 -0.7432  0.7062
 8532TIP3    H247088   0.269   0.569   3.832 -2.0603 -0.8444  0.1531
 8533TIP3   OH247089   2.145   6.650  14.986 -0.1759 -0.5108 -0.0589
 8533TIP3    H147090   2.103   6.726  14.947  0.4761  0.4283  1.0126
 8533TIP3    H247091   2.135   6.581  14.921 -1.4531  0.2714 -0.7333
 8534TIP3   OH247092   0.871   0.402  16.562 -0.6049 -0.0939 -0.3355
 8534TIP3    H147093   0.950   0.421  16.613 -0.5926 -0.1078 -0.3496
 8534TIP3    H247094   0.811   0.474  16.580 -0.8146 -0.3828  0.1405
 8535TIP3   OH247095   6.741   2.337   3.893  0.2898  0.2684 -0.2183
 8535TIP3    H147096   6.798   2.347   3.817  0.5342  1.0592  0.0645
 8535TIP3    H247097   6.675   2.405   3.883 -0.2193 -0.2143 -0.1952
 8536TIP3   OH247098   0.961   6.159  15.379 -0.4381  0.1641  0.6440
 8536TIP3    H147099   0.960   6.114  15.294 -1.1933  2.1121 -0.4594
 8536TIP3    H247100   0.958   6.089  15.444  0.7885 -1.4162 -0.9214
 8537TIP3   OH247101   5.125   3.641   3.389 -0.0829  0.2046  0.5200
 8537TIP3    H147102   5.139   3.552   3.420  1.1534 -0.8534 -2.6342
 8537TIP3    H247103   5.149   3.697   3.463 -0.1181 -2.0356  2.3192
 8538TIP3   OH247104   0.922   4.841   6.272 -0.0741 -0.0242  0.3877
 8538TIP3    H147105   0.882   4.758   6.297  0.9815 -0.0990  1.9587
 8538TIP3    H247106   0.848   4.895   6.243 -0.6257 -1.8719 -1.8922
 8539TIP3   OH247107   5.112   5.766   1.942  0.3018 -0.1201 -0.4720
 8539TIP3    H147108   5.154   5.757   2.027 -1.2256 -0.2302  0.2912
 8539TIP3    H247109   5.068   5.683   1.927 -2.0552  0.9553  0.1063
 8540TIP3   OH247110   0.430   2.872   0.535  0.7717 -0.1485  0.6492
 8540TIP3    H147111   0.381   2.853   0.616  4.1650 -0.5397  2.7899
 8540TIP3    H247112   0.435   2.968   0.532 -0.1541 -0.0944  0.3190
 8541TIP3   OH247113   2.348   5.580  14.473 -0.4325 -0.4065  0.0737
 8541TIP3    H147114   2.420   5.625  14.518 -1.2203 -0.4308  1.4069
 8541TIP3    H247115   2.308   5.526  14.540  0.3100 -2.9763 -1.4280
 8542TIP3   OH247116   4.236   4.454   0.619 -0.4658  0.1178  0.3644
 8542TIP3    H147117   4.186   4.468   0.699 -0.2999  1.6477  0.2322
 8542TIP3    H247118   4.266   4.363   0.624 -1.9950 -0.3724  1.1483
 8543TIP3   OH247119   3.791   3.190  11.130 -0.4340  0.3423  0.9602
 8543TIP3    H147120   3.754   3.223  11.048 -0.9040 -0.5784  0.7863
 8543TIP3    H247121   3.870   3.242  11.144  0.0582  0.0236 -0.4626
 8544TIP3   OH247122   1.674   2.262  14.545  0.4413  0.1577 -0.2685
 8544TIP3    H147123   1.730   2.268  14.622  0.0505 -1.5640  0.1799
 8544TIP3    H247124   1.586   2.248  14.580 -0.0733  1.3124 -1.0054
 8545TIP3   OH247125   0.121   3.750   2.701  0.7248  0.8091  0.6099
 8545TIP3    H147126   0.052   3.693   2.733 -1.1050  2.5953  0.0603
 8545TIP3    H247127   0.140   3.809   2.774 -0.0053  1.7815  0.0403
 8546TIP3   OH247128   2.441   5.200   3.898  0.3615  0.0553  0.3347
 8546TIP3    H147129   2.346   5.189   3.889 -0.0583  3.0168  0.0709
 8546TIP3    H247130   2.456   5.292   3.878  3.1860 -0.0659  1.4579
 8547TIP3   OH247131   5.545   3.439   0.647 -0.0412 -0.3637  0.0489
 8547TIP3    H147132   5.477   3.476   0.703 -0.1377  0.2560 -0.4681
 8547TIP3    H247133   5.618   3.500   0.655 -0.4267  0.3173 -1.3053
 8548TIP3   OH247134   4.437   5.692  14.986 -0.3331  0.2268  0.1228
 8548TIP3    H147135   4.505   5.650  15.038  0.0128 -0.1797 -0.6397
 8548TIP3    H247136   4.356   5.671  15.032 -0.4435 -3.0988 -1.2517
 8549TIP3   OH247137   4.308   4.732  15.387  0.2973 -0.1294  0.1438
 8549TIP3    H147138   4.271   4.820  15.384  1.6193  0.4538  0.1985
 8549TIP3    H247139   4.269   4.693  15.466  1.2303  1.1449  1.2879
 8550TIP3   OH247140   1.088   5.017   1.983 -0.0580  0.5939 -0.1664
 8550TIP3    H147141   1.115   5.061   2.063 -0.4711  0.9089 -0.1986
 8550TIP3    H247142   1.149   5.050   1.916  1.1799 -0.7002  0.2640
 8551TIP3   OH247143   2.249   3.709   0.863  0.5540 -0.1491 -0.4114
 8551TIP3    H147144   2.300   3.646   0.913  1.2050  0.4310 -0.3278
 8551TIP3    H247145   2.314   3.759   0.814  0.0318  0.2771 -0.6784
 8552TIP3   OH247146   6.259   4.563   5.538 -0.6418 -0.2915  0.1276
 8552TIP3    H147147   6.207   4.625   5.589 -2.2309 -2.4383  1.2914
 8552TIP3    H247148   6.334   4.614   5.506 -0.7763  1.7097  2.7154
 8553TIP3   OH247149   3.316   2.565   0.880 -0.3536  0.2389  0.3027
 8553TIP3    H147150   3.293   2.530   0.794 -2.4562  1.1855  0.3911
 8553TIP3    H247151   3.334   2.658   0.864 -1.6786  0.6430  0.9481
 8554TIP3   OH247152   4.843   3.278   3.078 -0.4131  0.6147  0.1548
 8554TIP3    H147153   4.785   3.318   3.013 -0.7447  2.5040  1.5148
 8554TIP3    H247154   4.909   3.231   3.026 -0.4035  2.3969 -1.5757
 8555TIP3   OH247155   5.550   5.390   0.988  0.0987 -0.7724 -0.4223
 8555TIP3    H147156   5.610   5.464   0.991 -1.0709  0.2431 -0.8586
 8555TIP3    H247157   5.527   5.374   1.080  0.4601 -0.6798 -0.3168
 8556TIP3   OH247158   3.468   2.333   3.864  0.6246  0.1659  0.4446
 8556TIP3    H147159   3.470   2.255   3.808 -1.5890 -0.3018  0.9275
 8556TIP3    H247160   3.461   2.406   3.803  0.6376 -0.1590  0.0453
 8557TIP3   OH247161   3.106   5.519   0.484  0.7468 -0.2574  0.1457
 8557TIP3    H147162   3.111   5.524   0.388  1.4043  0.3982  0.2052
 8557TIP3    H247163   3.029   5.570   0.508  0.7816 -0.1291 -0.0151
 8558TIP3   OH247164   2.808   4.378   1.677  0.4788 -0.3343  0.5062
 8558TIP3    H147165   2.772   4.339   1.756 -0.5114 -0.6948 -0.1033
 8558TIP3    H247166   2.734   4.422   1.636  1.3701  1.4074  0.6908
 8559TIP3   OH247167   1.980   1.400  12.735  0.1243 -0.3477 -0.6508
 8559TIP3    H147168   2.003   1.423  12.825  1.4133 -0.2394 -0.9855
 8559TIP3    H247169   1.884   1.401  12.734  0.0929  0.6210  0.4751
 8560TIP3   OH247170   1.773   0.311   2.205  0.0401 -0.1865 -0.4141
 8560TIP3    H147171   1.753   0.217   2.204 -2.0037  0.1819  1.0531
 8560TIP3    H247172   1.785   0.332   2.297  3.2679  0.5406 -0.8753
 8561TIP3   OH247173   2.515   3.333   1.128  0.5474  0.6323 -0.5856
 8561TIP3    H147174   2.504   3.369   1.040 -0.6255  2.2289  0.1525
 8561TIP3    H247175   2.576   3.393   1.171  1.1592 -0.1698 -0.3049
 8562TIP3   OH247176   3.082   6.534   3.101 -0.5792 -0.1043  0.7237
 8562TIP3    H147177   3.133   6.472   3.153  0.2707  0.1519  0.2088
 8562TIP3    H247178   3.127   6.618   3.113 -1.6321  0.4060  1.3013
 8563TIP3   OH247179   5.793   5.879   2.858  0.0980  0.2397  0.3433
 8563TIP3    H147180   5.762   5.792   2.834  2.1120 -0.5301  0.3145
 8563TIP3    H247181   5.868   5.895   2.800  1.2712  0.9220  1.9483
 8564TIP3   OH247182   5.138   5.083   1.202 -0.1460 -0.2254 -0.3815
 8564TIP3    H147183   5.116   5.175   1.216 -0.3947 -0.2673 -0.4839
 8564TIP3    H247184   5.124   5.069   1.108 -1.1162 -0.6285 -0.1851
 8565TIP3   OH247185   5.877   1.695  16.173  0.1292  0.2710  0.0328
 8565TIP3    H147186   5.847   1.648  16.250  0.4864  0.3257  0.2102
 8565TIP3    H247187   5.797   1.721  16.127 -0.0781  0.0305  0.2589
 8566TIP3   OH247188   3.064   0.058  15.584 -0.6681 -0.1319 -0.1479
 8566TIP3    H147189   3.148   0.094  15.612  0.2990 -0.6384 -2.2111
 8566TIP3    H247190   3.017   0.040  15.666  1.0610  0.5272  1.0442
 8567TIP3   OH247191   6.161   1.359   4.526 -0.1351 -0.2302  0.1248
 8567TIP3    H147192   6.134   1.275   4.563  0.1278  0.3484  1.7266
 8567TIP3    H247193   6.199   1.406   4.600  3.2389 -0.1310 -1.4895
 8568TIP3   OH247194   5.203   3.169  13.202 -0.0457 -0.5138 -0.4840
 8568TIP3    H147195   5.182   3.148  13.111  0.2129 -0.2596 -0.6040
 8568TIP3    H247196   5.276   3.111  13.223  1.1672  0.7553 -1.0543
 8569TIP3   OH247197   3.025   6.344  14.092  0.0994  0.5923  0.3649
 8569TIP3    H147198   3.070   6.388  14.020  3.5619 -1.5667  0.9640
 8569TIP3    H247199   2.949   6.302  14.050  1.4568  0.2054 -1.8740
 8570TIP3   OH247200   3.288   1.169  14.441 -0.6576 -0.5970 -0.1408
 8570TIP3    H147201   3.311   1.248  14.491 -1.9991  1.2326 -2.2316
 8570TIP3    H247202   3.245   1.113  14.505 -2.1502  1.5728  0.9044
 8571TIP3   OH247203   4.262   6.575   3.496 -0.5597 -0.4590 -0.2238
 8571TIP3    H147204   4.176   6.578   3.537 -1.2913  2.8416 -1.6855
 8571TIP3    H247205   4.247   6.605   3.406  2.0564 -0.2147 -0.6622
 8572TIP3   OH247206   4.751   2.335   0.114 -0.1281 -0.1287  0.5112
 8572TIP3    H147207   4.692   2.386   0.170 -0.2711 -0.0769  0.3147
 8572TIP3    H247208   4.741   2.373   0.027  0.5312  0.1697  0.5576
 8573TIP3   OH247209   5.565   1.958   4.310  0.1472 -0.1421  0.3962
 8573TIP3    H147210   5.514   1.877   4.305  0.6809 -0.4469 -0.0914
 8573TIP3    H247211   5.501   2.024   4.337 -0.4017 -0.6171  0.2755
 8574TIP3   OH247212   2.350   6.634   1.569  0.2434 -0.1600 -0.1140
 8574TIP3    H147213   2.313   6.556   1.527 -0.4037 -0.7536  1.4520
 8574TIP3    H247214   2.274   6.679   1.605  0.8288 -0.2003  1.2172
 8575TIP3   OH247215   5.989   5.349   6.199 -0.7586 -0.6033  0.6984
 8575TIP3    H147216   6.049   5.339   6.125 -0.6045  1.6457  0.4358
 8575TIP3    H247217   5.941   5.266   6.202 -1.7179 -0.3776 -2.8106
 8576TIP3   OH247218   1.301   3.345   6.487 -0.3851 -0.1131  0.2867
 8576TIP3    H147219   1.237   3.406   6.524  1.4706  2.0074  0.2126
 8576TIP3    H247220   1.326   3.288   6.560 -0.7572  0.4715  0.8824
 8577TIP3   OH247221   1.275   4.647   5.584 -0.2912  0.2622  0.1165
 8577TIP3    H147222   1.353   4.647   5.639 -0.9380  1.0014  1.0545
 8577TIP3    H247223   1.273   4.734   5.544 -1.0598  0.5386  0.7322
 8578TIP3   OH247224   3.592   1.636   3.725  0.1007 -0.2615  0.0458
 8578TIP3    H147225   3.636   1.556   3.695 -1.5038 -1.3013  0.2893
 8578TIP3    H247226   3.643   1.665   3.800  0.3411 -1.4706  0.3768
 8579TIP3   OH247227   3.592   5.099   5.196  0.1045 -0.0592 -0.3120
 8579TIP3    H147228   3.638   5.044   5.259  0.5942  0.3655 -0.2951
 8579TIP3    H247229   3.574   5.041   5.122 -1.0825 -0.7527  0.4765
 8580TIP3   OH247230   4.742   5.768  15.033  0.6593  0.1260 -0.3517
 8580TIP3    H147231   4.662   5.717  15.023  0.2161  0.7322  0.0496
 8580TIP3    H247232   4.713   5.859  15.038  1.3894  0.3741 -0.4128
 8581TIP3   OH247233   1.060   5.426   2.590  0.2417 -0.2759  0.2359
 8581TIP3    H147234   0.979   5.458   2.550  0.2618  0.6171  0.8655
 8581TIP3    H247235   1.120   5.414   2.517  0.6653  2.4671  0.0332
 8582TIP3   OH247236   1.760   5.264  12.376 -0.3774  0.1084  0.5076
 8582TIP3    H147237   1.717   5.209  12.310  0.4906 -0.5150  0.4355
 8582TIP3    H247238   1.804   5.201  12.433  2.0976  0.7311 -0.5747
 8583TIP3   OH247239   3.711   0.345  14.395 -0.5307  0.1257 -0.0123
 8583TIP3    H147240   3.633   0.401  14.400 -0.1914  0.5239  1.8532
 8583TIP3    H247241   3.684   0.269  14.344 -1.8606  0.6972 -0.1861
 8584TIP3   OH247242   3.903   0.077   6.686  0.5050 -0.2306 -0.5116
 8584TIP3    H147243   3.858  -0.004   6.663 -0.0927  0.4077 -1.6167
 8584TIP3    H247244   3.835   0.144   6.688  0.8490  0.1207  1.2371
 8585TIP3   OH247245   0.846   2.422   5.667  0.4642 -0.2591  0.3672
 8585TIP3    H147246   0.907   2.350   5.687  1.2072  0.4516  0.7392
 8585TIP3    H247247   0.899   2.501   5.679 -0.3286  0.3462 -0.0872
 8586TIP3   OH247248   1.002   6.513  12.941 -0.1285  0.2328  0.0690
 8586TIP3    H147249   1.029   6.601  12.967 -1.1158  1.0840 -1.5861
 8586TIP3    H247250   1.049   6.498  12.859 -1.5876  0.1308 -0.7786
 8587TIP3   OH247251   0.029   1.986  11.906  0.0006  0.3973 -0.0946
 8587TIP3    H147252  -0.008   1.967  11.819  1.7518  0.9113 -0.9927
 8587TIP3    H247253  -0.045   1.976  11.966 -1.6379  1.5797 -1.8170
 8588TIP3   OH247254   0.391   0.798   0.567  0.0321 -0.0791 -0.1958
 8588TIP3    H147255   0.322   0.831   0.625 -0.1306 -0.1081 -0.3703
 8588TIP3    H247256   0.344   0.764   0.491  0.1090 -1.5983  0.3821
 8589TIP3   OH247257   4.229   2.455   5.048 -0.2133 -0.2405 -0.7003
 8589TIP3    H147258   4.263   2.526   4.992  1.4726 -2.0668 -2.1719
 8589TIP3    H247259   4.173   2.404   4.990 -1.3441 -0.1768  0.3172
 8590TIP3   OH247260   5.639   1.118  13.061 -0.1850  0.8011 -0.3172
 8590TIP3    H147261   5.658   1.153  13.148 -0.0590  0.5837 -0.2567
 8590TIP3    H247262   5.723   1.083  13.031 -0.1317  1.2596 -0.7031
 8591TIP3   OH247263   2.471   3.524   0.288 -0.0455  0.5508 -0.0915
 8591TIP3    H147264   2.408   3.534   0.360 -0.3375  3.0340 -0.6362
 8591TIP3    H247265   2.556   3.535   0.330 -0.1288  0.4420  0.1107
 8592TIP3   OH247266   4.490   4.155  11.725  0.3387  0.5035  0.2144
 8592TIP3    H147267   4.500   4.238  11.678 -1.0212 -0.3345 -1.7362
 8592TIP3    H247268   4.573   4.109  11.710  0.0789  0.4137 -1.1419
 8593TIP3   OH247269   2.145   1.900  14.842 -0.5544  0.0383  0.3611
 8593TIP3    H147270   2.230   1.886  14.883 -0.6938 -1.8666  0.0691
 8593TIP3    H247271   2.142   1.995  14.826  1.3699  0.1917  0.6355
 8594TIP3   OH247272   0.994   0.729  11.478 -0.8823  0.0629  0.3597
 8594TIP3    H147273   1.008   0.789  11.552 -1.1124  1.5608 -0.7731
 8594TIP3    H247274   0.959   0.650  11.519 -0.2704  0.5606  1.9430
 8595TIP3   OH247275   2.990   1.607   0.316 -0.1497 -0.2140  0.4049
 8595TIP3    H147276   2.949   1.659   0.247  0.4543 -0.0531  0.1627
 8595TIP3    H247277   2.991   1.665   0.392 -1.9249 -0.8048  0.9214
 8596TIP3   OH247278   6.624   5.337   5.924 -0.6067  0.2317  0.6243
 8596TIP3    H147279   6.639   5.346   5.830 -1.1281 -2.7901  0.1477
 8596TIP3    H247280   6.687   5.270   5.952 -0.9554  0.5594  2.2875
 8597TIP3   OH247281   1.112   5.983  15.932 -0.3852  0.0915 -0.6240
 8597TIP3    H147282   1.070   5.978  16.018  2.0535  1.1339  0.7179
 8597TIP3    H247283   1.144   5.895  15.915 -1.3746 -0.2531 -0.7690
 8598TIP3   OH247284   2.559   0.128  15.353  0.0086 -0.5042 -0.3198
 8598TIP3    H147285   2.527   0.046  15.391 -0.5855  0.1712  0.6973
 8598TIP3    H247286   2.530   0.124  15.262  0.1026 -1.4812 -0.3194
 8599TIP3   OH247287   0.141   1.409  12.127  0.0979  0.4348 -0.5030
 8599TIP3    H147288   0.189   1.369  12.056 -1.4165  1.2981 -2.1039
 8599TIP3    H247289   0.071   1.459  12.084 -0.6861  1.2641  1.5687
 8600TIP3   OH247290   0.635   4.882   2.106 -0.3679  0.5273 -0.9209
 8600TIP3    H147291   0.713   4.861   2.055 -1.5964  0.0961 -2.7263
 8600TIP3    H247292   0.657   4.856   2.195  1.9666  1.5500 -1.1285
 8601TIP3   OH247293   5.421   6.676  16.102  0.1299 -0.4379 -0.0297
 8601TIP3    H147294   5.364   6.726  16.161  0.5646 -0.6950  0.6213
 8601TIP3    H247295   5.367   6.660  16.024 -0.5499 -0.3332  0.4121
 8602TIP3   OH247296   0.581   3.809  13.073 -0.3128 -0.1301  0.0158
 8602TIP3    H147297   0.501   3.777  13.031 -0.3400 -0.2628  0.1674
 8602TIP3    H247298   0.645   3.816  13.002 -0.1196 -1.1253  0.0797
 8603TIP3   OH247299   4.351   2.617   4.834  0.2326  0.5801  0.3554
 8603TIP3    H147300   4.343   2.528   4.800  0.9275 -0.1566  2.0273
 8603TIP3    H247301   4.311   2.672   4.766  1.9930 -0.7289 -1.9162
 8604TIP3   OH247302   3.517   4.623  16.106 -0.4197  0.1047 -0.2121
 8604TIP3    H147303   3.461   4.685  16.154 -0.2954 -0.9042  1.3215
 8604TIP3    H247304   3.544   4.559  16.172  3.4001  1.0701 -0.5830
 8605TIP3   OH247305   5.720   4.285   3.818  0.9139 -0.3756  0.5078
 8605TIP3    H147306   5.812   4.261   3.819  1.3162  1.0634  0.3265
 8605TIP3    H247307   5.703   4.314   3.728  0.6785  0.7724  0.9122
 8606TIP3   OH247308   1.671   3.351   1.122 -0.0410 -0.6319 -0.3679
 8606TIP3    H147309   1.601   3.403   1.163  1.0509 -0.6499  1.5924
 8606TIP3    H247310   1.671   3.381   1.031  0.7411  3.1628  0.6816
 8607TIP3   OH247311   0.711   0.670   5.487 -0.5249 -0.1514 -0.1811
 8607TIP3    H147312   0.803   0.695   5.472 -1.0344  2.4466  0.5881
 8607TIP3    H247313   0.670   0.676   5.401 -0.1803 -0.4217 -0.3670
 8608TIP3   OH247314   5.565   3.276  15.122 -0.3091 -0.2801 -0.4029
 8608TIP3    H147315   5.569   3.181  15.131 -0.6944 -0.1543  1.5522
 8608TIP3    H247316   5.653   3.301  15.092  0.0739 -1.1992 -0.0874
 8609TIP3   OH247317   4.543   2.864   2.890  0.9671  0.1436  0.1700
 8609TIP3    H147318   4.455   2.844   2.921  0.0494  0.7222 -1.8569
 8609TIP3    H247319   4.569   2.787   2.839  1.1570  0.4474 -0.1966
 8610TIP3   OH247320   1.185   6.677   3.240 -0.2959 -0.1998 -0.0431
 8610TIP3    H147321   1.280   6.668   3.235 -0.3154  0.1686 -1.5370
 8610TIP3    H247322   1.169   6.771   3.229 -0.7867 -0.0905  1.3983
 8611TIP3   OH247323   1.404   0.097   4.587 -0.0288 -0.1660 -0.6485
 8611TIP3    H147324   1.460   0.108   4.663 -0.3897 -1.2890 -0.1946
 8611TIP3    H247325   1.454   0.136   4.515  1.1482 -0.7433 -0.1777
 8612TIP3   OH247326   3.877   6.597   5.039  0.4458  0.3859 -0.1263
 8612TIP3    H147327   3.901   6.561   4.953 -0.7560 -1.4141  0.2379
 8612TIP3    H247328   3.959   6.633   5.073  1.4383 -0.7951 -1.1312
 8613TIP3   OH247329   4.805   2.046  14.548  0.1790  0.3127  0.0245
 8613TIP3    H147330   4.747   1.984  14.504 -2.1559  1.9641  0.6033
 8613TIP3    H247331   4.855   2.088  14.478 -1.7698  1.2220 -0.8731
 8614TIP3   OH247332   6.296   3.436   5.203  0.1015  0.0408 -0.0140
 8614TIP3    H147333   6.338   3.351   5.216 -0.5205 -0.3284 -0.3730
 8614TIP3    H247334   6.339   3.473   5.126  0.2306 -0.0420  0.0186
 8615TIP3   OH247335   0.226   0.533  14.311 -0.2036 -0.4865 -0.1020
 8615TIP3    H147336   0.158   0.489  14.363  0.0579  1.0183  1.5755
 8615TIP3    H247337   0.297   0.469  14.307 -0.5015 -0.8960  0.8037
 8616TIP3   OH247338   5.075   4.507  14.614 -0.0848  0.0925 -0.0220
 8616TIP3    H147339   5.080   4.467  14.701  0.2170  2.1344  0.9745
 8616TIP3    H247340   5.064   4.434  14.554  0.5483 -1.4521  1.6542
 8617TIP3   OH247341   2.343   3.416   0.615 -0.0015  0.0445  0.8928
 8617TIP3    H147342   2.278   3.350   0.639 -0.3938 -0.0501 -0.3993
 8617TIP3    H247343   2.408   3.368   0.564 -1.1174  0.9120 -1.4484
 8618TIP3   OH247344   3.784   6.218   0.438  0.3297  0.3996  0.7152
 8618TIP3    H147345   3.860   6.206   0.495  0.5175  1.3353  0.6790
 8618TIP3    H247346   3.729   6.281   0.484 -0.7511 -0.7307  1.0382
 8619TIP3   OH247347   0.971   3.995  16.786  0.1958  0.6050  0.1340
 8619TIP3    H147348   0.917   4.073  16.786 -0.6228  0.0541 -0.1241
 8619TIP3    H247349   1.022   4.000  16.705 -1.1410  0.0220 -0.7805
 8620TIP3   OH247350   5.619   3.905   3.088 -0.4094  0.1422  0.0028
 8620TIP3    H147351   5.628   3.973   3.021  0.7668  1.6075  1.5613
 8620TIP3    H247352   5.539   3.929   3.135  0.1616  0.6651  0.7382
 8621TIP3   OH247353   0.744   2.225  16.506 -0.2297  0.1671 -0.2128
 8621TIP3    H147354   0.764   2.254  16.417  1.9480  1.6111  0.6671
 8621TIP3    H247355   0.788   2.288  16.563  1.0821 -2.4089  1.8745
 8622TIP3   OH247356   6.074   3.713  15.373  0.3082  0.6522 -0.0652
 8622TIP3    H147357   5.979   3.714  15.364  0.3990  1.7648 -1.2610
 8622TIP3    H247358   6.091   3.651  15.444 -1.0867 -2.4074 -2.1723
 8623TIP3   OH247359   2.937   4.475   2.986 -0.2305 -0.1687  0.0213
 8623TIP3    H147360   2.886   4.398   2.961  0.0181 -0.3000 -0.0739
 8623TIP3    H247361   2.930   4.479   3.081 -0.1272 -0.3855  0.0367
 8624TIP3   OH247362   1.102   0.911   4.600 -0.3635  0.1298  0.5010
 8624TIP3    H147363   1.178   0.956   4.564 -0.8475  1.3291  0.9249
 8624TIP3    H247364   1.138   0.855   4.669  0.4040 -1.2199 -0.9299
 8625TIP3   OH247365   3.120   2.894  11.018  0.2019  0.3021 -0.1945
 8625TIP3    H147366   3.138   2.970  10.962  2.4518 -0.4058 -0.5082
 8625TIP3    H247367   3.119   2.819  10.959 -0.7930 -0.0981  0.2880
 8626TIP3   OH247368   1.699   4.799   1.596 -0.5975  0.6733  0.0102
 8626TIP3    H147369   1.759   4.731   1.627 -0.4811  1.1577  0.9070
 8626TIP3    H247370   1.656   4.761   1.520  0.7639  0.2706 -0.5915
 8627TIP3   OH247371   5.545   5.030  14.994 -0.0780 -0.0721  0.5397
 8627TIP3    H147372   5.457   5.001  15.020 -0.9664  0.9554 -1.1101
 8627TIP3    H247373   5.546   5.124  15.015  0.2899  0.1110 -0.2613
 8628TIP3   OH247374   3.371   1.646   1.073  0.3101  0.8901 -0.5608
 8628TIP3    H147375   3.320   1.689   1.142 -2.7392 -0.3836 -1.8353
 8628TIP3    H247376   3.368   1.553   1.096  2.5428  0.7917 -0.4796
 8629TIP3   OH247377   0.472   0.811   1.779  0.4442 -0.0783 -0.7072
 8629TIP3    H147378   0.448   0.719   1.773  0.8563 -0.1507 -1.3049
 8629TIP3    H247379   0.399   0.857   1.738 -0.4365 -0.0303  0.8713
 8630TIP3   OH247380   1.275   4.300   0.627 -0.0016 -0.0976  0.1662
 8630TIP3    H147381   1.282   4.330   0.537  0.2563  1.6294  0.7191
 8630TIP3    H247382   1.347   4.344   0.673 -1.0177  0.2513  1.4998
 8631TIP3   OH247383   5.488   6.055  12.524 -0.2770  0.6476  0.3626
 8631TIP3    H147384   5.556   6.009  12.573  0.4406  0.7670 -0.4968
 8631TIP3    H247385   5.407   6.012  12.551  0.2610 -0.3516  0.4571
 8632TIP3   OH247386   3.397   5.393   2.374  0.0303 -0.1129 -0.6596
 8632TIP3    H147387   3.445   5.322   2.417 -0.4501 -0.8448 -1.3036
 8632TIP3    H247388   3.347   5.349   2.305 -1.5804  0.6238  0.0099
 8633TIP3   OH247389   6.274   6.079  16.143 -0.1708  0.0322  0.1686
 8633TIP3    H147390   6.264   6.011  16.210 -0.1057  0.4524  0.6085
 8633TIP3    H247391   6.206   6.143  16.163 -0.2255  0.1036 -0.2382
 8634TIP3   OH247392   4.530   0.828  14.911  0.8324 -0.5218  0.6007
 8634TIP3    H147393   4.483   0.872  14.982 -1.7626 -1.5703 -0.3339
 8634TIP3    H247394   4.558   0.900  14.854 -1.0049  0.1496  0.4523
 8635TIP3   OH247395   1.509   1.941   4.530 -0.0652 -0.8628 -0.3684
 8635TIP3    H147396   1.439   1.948   4.594  0.3716 -0.9251  0.1248
 8635TIP3    H247397   1.546   2.029   4.524  1.4899 -1.3258  1.3239
 8636TIP3   OH247398   2.748   5.501   2.791 -0.1210  0.2840  0.8958
 8636TIP3    H147399   2.813   5.432   2.805 -0.6625 -0.0398  1.8978
 8636TIP3    H247400   2.748   5.515   2.696  1.5310  0.4158  0.8898
 8637TIP3   OH247401   6.443   0.016  15.747 -0.0204 -0.6046 -0.4846
 8637TIP3    H147402   6.531  -0.009  15.773  0.0258  0.7266  0.7444
 8637TIP3    H247403   6.417   0.084  15.809 -2.0134 -1.1205 -0.6754
 8638TIP3   OH247404   0.851   1.131  16.754  0.0303  0.3625  0.0128
 8638TIP3    H147405   0.882   1.068  16.689  1.3574 -0.4266  1.3703
 8638TIP3    H247406   0.795   1.081  16.813 -0.9735  1.0251 -0.3501
 8639TIP3   OH247407   1.969   6.079   0.792  0.4063  0.3505 -0.4444
 8639TIP3    H147408   1.953   6.123   0.709 -0.6400 -0.6495 -0.7886
 8639TIP3    H247409   1.883   6.046   0.819  1.1869 -1.6724 -0.3064
 8640TIP3   OH247410   4.352   4.812  16.573  0.2825 -0.1007  0.2628
 8640TIP3    H147411   4.321   4.839  16.660 -1.1609 -2.9887  0.7638
 8640TIP3    H247412   4.438   4.772  16.590 -0.3863 -1.4698  0.5649
 8641TIP3   OH247413   5.066   2.821   0.116  0.0326  0.6302  0.1762
 8641TIP3    H147414   5.109   2.807   0.032 -0.5479  1.0695 -0.2003
 8641TIP3    H247415   4.983   2.864   0.094  0.2371  1.4905  1.0291
 8642TIP3   OH247416   2.799   3.950  17.168 -0.0019  0.5226 -0.7020
 8642TIP3    H147417   2.838   4.037  17.177  2.0037 -0.3863 -0.1483
 8642TIP3    H247418   2.771   3.928  17.257 -1.2484  0.8899 -0.9784
 8643TIP3   OH247419   3.179   3.475   4.725  0.2342  0.1227 -0.4261
 8643TIP3    H147420   3.253   3.418   4.750  0.2804  0.0293 -0.7638
 8643TIP3    H247421   3.102   3.418   4.731  0.1938  0.2062 -0.1239
 8644TIP3   OH247422   4.776   2.168  16.321  0.2335  0.1838  0.2604
 8644TIP3    H147423   4.847   2.232  16.323  1.3646 -1.0429  1.5425
 8644TIP3    H247424   4.821   2.083  16.327 -1.2475 -0.7259 -0.8203
 8645TIP3   OH247425   4.547   4.054  15.450 -0.4368  0.4223  0.3510
 8645TIP3    H147426   4.502   4.032  15.532  1.7561  0.9222  1.7832
 8645TIP3    H247427   4.525   3.983  15.391 -2.4116  0.2361  1.2097
 8646TIP3   OH247428   5.793   3.850  16.321 -0.4139  0.2079  0.2602
 8646TIP3    H147429   5.714   3.896  16.293 -0.5209  0.0378  0.2802
 8646TIP3    H247430   5.824   3.900  16.397  1.5264  2.4423 -1.8246
 8647TIP3   OH247431   5.286   4.540   5.249  1.0447 -0.4124 -0.0153
 8647TIP3    H147432   5.284   4.634   5.266 -1.6049 -0.3627 -0.1257
 8647TIP3    H247433   5.275   4.533   5.154 -0.4326 -0.7848  0.1472
 8648TIP3   OH247434   2.709   1.422   5.929 -0.2188 -0.0201  0.3735
 8648TIP3    H147435   2.728   1.472   6.010 -0.7291 -0.9834  1.1027
 8648TIP3    H247436   2.649   1.353   5.957 -2.3392  1.0446 -1.2939
 8649TIP3   OH247437   1.619   6.134  17.327  0.2019  0.7825  0.4007
 8649TIP3    H147438   1.650   6.198  17.391  0.3935  2.2812 -1.1096
 8649TIP3    H247439   1.697   6.086  17.300  0.3993  1.2715  0.1008
 8650TIP3   OH247440   5.471   0.212   4.264  0.1326 -0.3120 -0.0049
 8650TIP3    H147441   5.388   0.223   4.216 -0.6895  0.1968  1.4732
 8650TIP3    H247442   5.477   0.117   4.279  1.2787 -0.7272 -2.5281
 8651TIP3   OH247443   2.219   3.430   3.901  0.1571  0.3981 -0.1415
 8651TIP3    H147444   2.147   3.367   3.897  1.7420 -1.4432 -2.4135
 8651TIP3    H247445   2.233   3.457   3.810  0.5823  2.8564  0.5807
 8652TIP3   OH247446   2.712   2.764  14.076 -0.1424 -0.0653  0.0004
 8652TIP3    H147447   2.680   2.680  14.108  1.8485 -0.6176  0.7246
 8652TIP3    H247448   2.646   2.793  14.014 -1.8243 -1.2388  1.1516
 8653TIP3   OH247449   4.869   2.938   5.446 -0.6292  0.1911  0.3101
 8653TIP3    H147450   4.931   2.908   5.379 -1.1994 -0.4777  0.0656
 8653TIP3    H247451   4.795   2.973   5.397 -0.8122  0.2032  0.5915
 8654TIP3   OH247452   2.382   6.716  15.420  0.3358  0.0594 -0.6536
 8654TIP3    H147453   2.311   6.730  15.358  0.4376  2.5128 -0.3053
 8654TIP3    H247454   2.339   6.713  15.505  0.4107 -1.2631 -0.6379
 8655TIP3   OH247455   0.028   2.344  12.275 -0.2109 -0.0585 -0.2223
 8655TIP3    H147456   0.025   2.253  12.246  1.6134  0.1935 -1.3594
 8655TIP3    H247457   0.013   2.395  12.195 -0.9101  0.6607  0.3455
 8656TIP3   OH247458   3.221   0.180  11.948  0.2000  0.0425 -0.4085
 8656TIP3    H147459   3.185   0.237  11.881 -0.5135 -0.1696 -0.2121
 8656TIP3    H247460   3.305   0.151  11.913  1.3278  2.4141  0.1118
 8657TIP3   OH247461   6.147   4.653  12.533 -0.3640  0.2995 -0.4833
 8657TIP3    H147462   6.127   4.745  12.518 -0.5732  0.1211 -1.3581
 8657TIP3    H247463   6.072   4.606  12.496 -0.6474 -0.1939  0.6870
 8658TIP3   OH247464   2.918   3.672  11.971 -0.0683 -0.4423  0.2695
 8658TIP3    H147465   2.931   3.762  12.001 -0.0665 -0.7712  1.2859
 8658TIP3    H247466   2.858   3.680  11.897  1.0746  0.5257 -0.5938
 8659TIP3   OH247467   2.367   0.087   2.389  0.0333  0.1185 -0.5949
 8659TIP3    H147468   2.313   0.162   2.366  1.9519  2.2072  1.2287
 8659TIP3    H247469   2.446   0.097   2.335  0.4956 -0.3383 -0.0121
 8660TIP3   OH247470   2.268   1.637  16.656 -0.6633  0.6819 -0.0047
 8660TIP3    H147471   2.329   1.647  16.729 -2.1264 -1.8038  1.6813
 8660TIP3    H247472   2.324   1.616  16.581  0.6414 -1.3619  1.4397
 8661TIP3   OH247473   4.643   3.502  12.345  0.2792 -0.9369  0.3660
 8661TIP3    H147474   4.721   3.478  12.295  0.1668 -0.8727  0.1605
 8661TIP3    H247475   4.587   3.546  12.282  0.6495  0.2198  0.8226
 8662TIP3   OH247476   3.561   2.499  14.655  0.7001 -0.1451  0.4219
 8662TIP3    H147477   3.537   2.581  14.699  0.1119 -0.4010  0.5868
 8662TIP3    H247478   3.543   2.514  14.563 -2.8070 -1.2165  0.7895
 8663TIP3   OH247479   0.229   3.636  11.613  0.3329 -0.0216 -0.0794
 8663TIP3    H147480   0.198   3.625  11.703  1.0974  1.6343  0.4225
 8663TIP3    H247481   0.323   3.615  11.618  0.5166  0.7242 -0.3409
 8664TIP3   OH247482   2.377   6.082  12.288 -0.3071  0.2653  0.0973
 8664TIP3    H147483   2.463   6.095  12.327 -0.3862 -0.2054  0.4440
 8664TIP3    H247484   2.317   6.073  12.363 -0.6450  0.5136 -0.1381
 8665TIP3   OH247485   6.152   5.521  15.300  0.5580 -0.3406 -0.3234
 8665TIP3    H147486   6.176   5.482  15.384  1.1348  0.0081 -0.3214
 8665TIP3    H247487   6.122   5.609  15.322 -2.0153 -1.1687 -0.1765
 8666TIP3   OH247488   5.121   1.476  14.517 -0.2227  0.3650 -0.8672
 8666TIP3    H147489   5.215   1.481  14.501  0.2999 -0.9829  1.3616
 8666TIP3    H247490   5.081   1.491  14.431  2.1199 -3.0009 -2.7700
 8667TIP3   OH247491   4.240   2.605   4.445 -0.0408  0.3606  0.6458
 8667TIP3    H147492   4.335   2.597   4.458 -0.0832  0.5830  1.1374
 8667TIP3    H247493   4.214   2.521   4.408  0.4637  0.5779 -0.2333
 8668TIP3   OH247494   0.634   0.501   1.841 -0.0164 -0.0155  0.0193
 8668TIP3    H147495   0.636   0.554   1.921 -0.7338  0.1719 -0.0840
 8668TIP3    H247496   0.580   0.425   1.864 -0.5691  0.2441 -0.4080
 8669TIP3   OH247497   2.139   6.518  14.722 -0.2868 -0.1761 -0.0518
 8669TIP3    H147498   2.149   6.511  14.627 -3.3303 -0.0641 -0.5035
 8669TIP3    H247499   2.132   6.428  14.752  4.2276 -0.4760  0.7398
 8670TIP3   OH247500   2.917   2.266   6.738  0.5104 -0.3084 -0.7574
 8670TIP3    H147501   2.943   2.221   6.657  4.7786 -1.8135  1.1243
 8670TIP3    H247502   2.977   2.341   6.744 -1.0252  0.8957  0.1310
 8671TIP3   OH247503   6.760   2.209  17.314  0.5536 -0.1423 -0.1365
 8671TIP3    H147504   6.787   2.203  17.222  1.5111 -0.3694  0.1458
 8671TIP3    H247505   6.783   2.123  17.351  1.0284  0.2605  0.5293
 8672TIP3   OH247506   3.967   6.276   3.017 -0.3389 -0.0891 -0.8867
 8672TIP3    H147507   4.059   6.280   3.044 -0.5034  1.4973 -0.4869
 8672TIP3    H247508   3.952   6.183   2.998  0.2219 -1.1394  3.0262
 8673TIP3   OH247509   3.359   1.630   4.649 -0.4596  0.2608 -0.0016
 8673TIP3    H147510   3.362   1.698   4.581 -1.8099 -0.1851 -0.5484
 8673TIP3    H247511   3.449   1.598   4.655 -0.3991 -0.0630 -1.9902
 8674TIP3   OH247512   0.374   0.820   4.485 -0.3995 -0.0407  0.1863
 8674TIP3    H147513   0.349   0.883   4.418 -0.0475 -1.5708 -1.4736
 8674TIP3    H247514   0.461   0.850   4.514  0.3216 -0.3879 -1.4761
 8675TIP3   OH247515   2.483   1.328   3.240  1.3209 -0.8857 -0.6484
 8675TIP3    H147516   2.458   1.256   3.182  2.7261 -1.3142 -0.7567
 8675TIP3    H247517   2.479   1.290   3.328 -1.7815  0.0352 -0.2896
 8676TIP3   OH247518   4.095   4.568  14.202 -0.4447 -0.2998  0.5721
 8676TIP3    H147519   4.121   4.655  14.172 -2.3772  0.2872  0.4338
 8676TIP3    H247520   4.137   4.558  14.287  0.7726  0.2494  0.0512
 8677TIP3   OH247521   4.434   5.525   4.403 -0.2061  0.0493 -0.0029
 8677TIP3    H147522   4.449   5.525   4.497 -0.7428 -1.1190  0.0951
 8677TIP3    H247523   4.428   5.618   4.380  0.9685  0.3715  0.9252
 8678TIP3   OH247524   6.360   2.846   0.438  0.4886 -0.2997 -0.3966
 8678TIP3    H147525   6.446   2.888   0.449 -0.0103  0.8976 -0.8616
 8678TIP3    H247526   6.374   2.783   0.367  0.9928 -0.1277 -0.4578
 8679TIP3   OH247527   5.891   3.009   1.198 -0.5537  0.6596 -0.3365
 8679TIP3    H147528   5.864   3.086   1.148 -1.1147  0.8760  0.2948
 8679TIP3    H247529   5.919   2.946   1.131  1.0233  1.8022 -0.8230
 8680TIP3   OH247530   1.257   5.663  16.129 -0.4171  0.0896  0.6590
 8680TIP3    H147531   1.269   5.742  16.181  0.8249  1.0494 -0.9677
 8680TIP3    H247532   1.260   5.592  16.192 -1.1661  1.2995  2.1259
 8681TIP3   OH247533   4.465   0.602  13.540  0.0604 -0.1703 -0.4136
 8681TIP3    H147534   4.514   0.683  13.530  1.1377 -0.8723 -0.9032
 8681TIP3    H247535   4.454   0.592  13.635  0.0501  0.4516 -0.3443
 8682TIP3   OH247536   0.003   0.425   4.672 -0.0942 -0.0279 -0.1565
 8682TIP3    H147537  -0.038   0.419   4.586  1.0770  1.2809 -0.8481
 8682TIP3    H247538   0.083   0.475   4.657 -0.0526  0.5711  1.7585
 8683TIP3   OH247539   5.185   6.140  15.079  0.3945 -0.0231  0.1353
 8683TIP3    H147540   5.144   6.159  14.995 -2.6060 -2.7378  0.7969
 8683TIP3    H247541   5.239   6.063  15.063  0.1201 -0.3165  0.6144
 8684TIP3   OH247542   4.813   2.384  13.842 -0.0015 -0.3728 -0.3889
 8684TIP3    H147543   4.821   2.326  13.766  0.7981  2.6544 -2.8067
 8684TIP3    H247544   4.719   2.384  13.863 -0.2884 -0.9960 -1.5995
 8685TIP3   OH247545   3.907   6.415  14.591 -0.7150 -0.3744  0.2030
 8685TIP3    H147546   3.837   6.368  14.545 -0.4187 -0.6810  0.0545
 8685TIP3    H247547   3.915   6.370  14.675 -1.9958  0.8674  1.0258
 8686TIP3   OH247548   1.774   3.064   2.107  0.1962  0.3522  0.3509
 8686TIP3    H147549   1.821   3.143   2.136 -1.0728  0.6954  1.5664
 8686TIP3    H247550   1.739   3.088   2.021  0.4140  0.8482  0.3929
 8687TIP3   OH247551   2.565   3.641   1.027 -0.4141 -0.1911 -0.0841
 8687TIP3    H147552   2.639   3.699   1.044  1.2046 -2.1981  0.1437
 8687TIP3    H247553   2.498   3.669   1.088  1.3617 -0.3263  2.0562
 8688TIP3   OH247554   6.616   3.776   4.913 -0.1111 -0.2142  0.2392
 8688TIP3    H147555   6.563   3.833   4.857  2.1787 -0.3856 -2.3292
 8688TIP3    H247556   6.680   3.835   4.953 -0.5175 -0.3868  1.1680
 8689TIP3   OH247557   2.811   6.156  14.065  0.1165  0.1571  0.1694
 8689TIP3    H147558   2.773   6.189  13.984  0.9418  1.5491  0.3153
 8689TIP3    H247559   2.735   6.136  14.121 -0.4278  0.7183 -0.3552
 8690TIP3   OH247560   1.930   1.374   3.690 -0.5498  0.1580  0.0538
 8690TIP3    H147561   1.869   1.304   3.710  1.0604 -2.1419 -2.3844
 8690TIP3    H247562   1.888   1.424   3.620 -0.7870  0.3324  0.3167
 8691TIP3   OH247563   0.583   1.770   5.660  0.0224  0.0250  0.2774
 8691TIP3    H147564   0.498   1.734   5.688  0.1365  0.3123  1.0022
 8691TIP3    H247565   0.647   1.705   5.688  0.0102 -0.4089 -0.6743
 8692TIP3   OH247566   5.549   3.714   4.198 -0.0387  0.4852  0.5194
 8692TIP3    H147567   5.468   3.762   4.187 -1.1330 -1.1181  1.2175
 8692TIP3    H247568   5.617   3.781   4.198 -1.4637  2.0040  1.2495
 8693TIP3   OH247569   2.118   5.413   4.762 -0.1301  0.5010  0.0708
 8693TIP3    H147570   2.173   5.421   4.684 -1.3481  0.0611 -0.8589
 8693TIP3    H247571   2.057   5.487   4.757 -1.0012 -0.2061 -0.0524
 8694TIP3   OH247572   1.420   3.903  15.606  0.0927 -0.3006 -0.0906
 8694TIP3    H147573   1.344   3.858  15.643  0.7633 -0.9841  0.4880
 8694TIP3    H247574   1.449   3.963  15.675  2.1666 -2.5469  1.1352
 8695TIP3   OH247575   1.189   3.367   0.005  0.1839 -0.8342 -0.3003
 8695TIP3    H147576   1.219   3.436   0.063 -0.0203 -1.0384  0.0490
 8695TIP3    H247577   1.261   3.304   0.003 -0.5219 -1.7370  1.2012
 8696TIP3   OH247578   3.342   1.607   4.238 -0.3890 -0.0924  0.3222
 8696TIP3    H147579   3.260   1.629   4.195  0.1185  3.3324  0.8224
 8696TIP3    H247580   3.320   1.602   4.331 -0.1113  0.4665  0.4208
 8697TIP3   OH247581   1.653   6.591   5.459 -0.0811  0.4133  0.0810
 8697TIP3    H147582   1.588   6.633   5.402 -0.0260 -1.1229 -1.1624
 8697TIP3    H247583   1.637   6.497   5.449  0.2440  0.0650  2.2564
 8698TIP3   OH247584   5.124   3.144  14.808  0.3420  0.1973 -0.1492
 8698TIP3    H147585   5.180   3.110  14.738 -0.4941 -2.3175  0.2974
 8698TIP3    H247586   5.169   3.118  14.889 -0.6770 -0.5091  0.2091
 8699TIP3   OH247587   0.312   6.364   6.076 -0.4523 -0.6458  0.0151
 8699TIP3    H147588   0.249   6.323   6.017 -1.2990  0.5760  0.0376
 8699TIP3    H247589   0.273   6.353   6.163  0.4524 -1.8197  0.2997
 8700TIP3   OH247590   4.429   6.109   3.806 -0.4284 -0.0231  0.1735
 8700TIP3    H147591   4.353   6.079   3.856 -0.7753  0.6472  0.0765
 8700TIP3    H247592   4.497   6.045   3.823  0.0541  1.0893  2.9727
 8701TIP3   OH247593   6.204   4.901  14.853 -0.2896  0.1582  0.0580
 8701TIP3    H147594   6.160   4.855  14.925 -0.1988  0.4307  0.2917
 8701TIP3    H247595   6.135   4.952  14.812 -0.6089 -0.9635 -0.8525
 8702TIP3   OH247596   5.620   4.952   1.801 -0.2444  0.7634 -0.4509
 8702TIP3    H147597   5.677   4.973   1.727 -2.1413  1.1881 -1.8719
 8702TIP3    H247598   5.651   4.866   1.830 -0.2379 -0.0379 -2.6023
 8703TIP3   OH247599   4.945   3.182   0.282 -0.0823  0.8304  0.2826
 8703TIP3    H147600   5.034   3.146   0.276 -0.0620  0.8284  0.6022
 8703TIP3    H247601   4.889   3.106   0.297 -0.2657  0.7017 -0.9483
 8704TIP3   OH247602   5.036   1.790  15.370  0.1292  0.3246  0.7010
 8704TIP3    H147603   5.017   1.730  15.442  2.4088 -0.6269  0.6173
 8704TIP3    H247604   4.982   1.760  15.298  0.5893 -1.1324  0.9320
 8705TIP3   OH247605   3.602   0.659  14.123  0.4595  0.0415  0.2407
 8705TIP3    H147606   3.601   0.653  14.218  0.4832 -2.0366  0.1710
 8705TIP3    H247607   3.644   0.577  14.095  0.3683  0.5648 -1.5566
 8706TIP3   OH247608   4.018   0.761   0.021  0.3341  0.2639  0.0118
 8706TIP3    H147609   4.035   0.848   0.056  1.9663 -0.2697  0.6133
 8706TIP3    H247610   4.103   0.717   0.022 -0.3922 -1.2248 -0.6028
 8707TIP3   OH247611   6.714   0.239   1.677 -0.3320 -0.0028  0.0409
 8707TIP3    H147612   6.786   0.177   1.665  0.7149  1.1327  0.2521
 8707TIP3    H247613   6.641   0.199   1.630  0.5155 -1.0421 -0.4625
 8708TIP3   OH247614   2.823   0.714   0.784 -0.2831  0.5247  0.3185
 8708TIP3    H147615   2.746   0.767   0.806 -0.1687  0.1310  1.7823
 8708TIP3    H247616   2.894   0.777   0.775 -0.3544  0.7182  1.0501
 8709TIP3   OH247617   3.452   1.136   0.423 -0.1874  0.4374 -0.0574
 8709TIP3    H147618   3.508   1.063   0.449 -0.0640  0.2092 -0.9486
 8709TIP3    H247619   3.433   1.182   0.505 -0.4159 -0.6944  0.5482
 8710TIP3   OH247620   2.647   4.131   1.855 -0.2545 -0.2795  0.1710
 8710TIP3    H147621   2.620   4.213   1.895  1.3743  0.3329  0.0917
 8710TIP3    H247622   2.566   4.094   1.820 -1.2969  0.4181  1.7324
 8711TIP3   OH247623   5.246   1.905   2.507  0.3628 -0.8697 -0.5884
 8711TIP3    H147624   5.287   1.928   2.424  1.1689  0.4245  0.1401
 8711TIP3    H247625   5.314   1.920   2.573 -1.0569  0.7473  0.6036
 8712TIP3   OH247626   0.826   4.069   5.885  0.2973  0.0565  0.1634
 8712TIP3    H147627   0.897   4.014   5.852 -1.2639 -1.4455 -0.7857
 8712TIP3    H247628   0.798   4.120   5.809  1.4628  1.9941  0.9390
 8713TIP3   OH247629   2.709   1.933   4.414  0.2472  0.3318 -0.0227
 8713TIP3    H147630   2.720   1.855   4.360 -0.3420  0.5671 -0.4893
 8713TIP3    H247631   2.614   1.946   4.418  0.3733  2.0829 -1.5033
 8714TIP3   OH247632   6.088   1.375  16.792  0.4010  0.4814 -0.6354
 8714TIP3    H147633   6.035   1.454  16.788  0.2120  0.5236  1.5105
 8714TIP3    H247634   6.036   1.314  16.843  0.3322 -1.2594 -2.6612
 8715TIP3   OH247635   6.003   3.651   4.108 -0.0023 -0.1964  0.3018
 8715TIP3    H147636   6.001   3.579   4.044 -1.5640  0.8432 -0.9114
 8715TIP3    H247637   5.947   3.719   4.069  0.7541  1.3515  1.7939
 8716TIP3   OH247638   4.403   0.623  16.615 -0.6506 -0.0225  0.0770
 8716TIP3    H147639   4.310   0.643  16.622 -0.8677 -0.9021 -0.2841
 8716TIP3    H247640   4.417   0.599  16.524 -0.3457 -1.2019  0.4111
 8717TIP3   OH247641   5.749   1.623  12.136 -0.3820 -0.4564  0.5476
 8717TIP3    H147642   5.785   1.670  12.061  0.2770  1.9372  2.2484
 8717TIP3    H247643   5.733   1.535  12.103  1.3194  0.0586 -1.9650
 8718TIP3   OH247644   4.192   1.963   1.497  0.3565  0.3799 -0.6183
 8718TIP3    H147645   4.231   1.960   1.410  1.9077  1.1420  0.0196
 8718TIP3    H247646   4.263   1.991   1.554 -1.2446  2.3204  0.5317
 8719TIP3   OH247647   4.738   4.623   5.036  0.5908 -0.4393  0.1503
 8719TIP3    H147648   4.653   4.585   5.059  1.2412 -0.9356  1.9577
 8719TIP3    H247649   4.717   4.699   4.982 -0.9804 -0.7964  0.2118
 8720TIP3   OH247650   0.124   0.252   0.825 -0.5618  0.1707 -0.2566
 8720TIP3    H147651   0.118   0.347   0.830 -1.2643  0.2401 -1.8454
 8720TIP3    H247652   0.049   0.226   0.771 -1.2866 -1.4342  1.4286
 8721TIP3   OH247653   3.148   4.994   2.858  0.0543 -0.2890  0.0743
 8721TIP3    H147654   3.232   4.954   2.881 -1.0802 -1.9095  1.6607
 8721TIP3    H247655   3.131   4.964   2.769  1.1447  0.0973 -0.2831
 8722TIP3   OH247656   1.859   2.367   1.587  0.6615  0.0219  0.3565
 8722TIP3    H147657   1.880   2.276   1.606 -0.6612 -0.5679 -0.8365
 8722TIP3    H247658   1.865   2.411   1.672  2.1647 -0.9671  0.8074
 8723TIP3   OH247659   2.304   2.757  10.845 -0.4623  0.1242  0.1967
 8723TIP3    H147660   2.342   2.828  10.793  2.6268 -0.4760  1.4438
 8723TIP3    H247661   2.263   2.801  10.920  1.4162  0.6574  0.9537
 8724TIP3   OH247662   2.699   3.741  14.776  1.2616  0.4674  0.3026
 8724TIP3    H147663   2.688   3.833  14.751  1.0440 -0.3216 -2.9173
 8724TIP3    H247664   2.782   3.715  14.736  1.6852 -0.6027  1.7899
 8725TIP3   OH247665   6.586   1.140   4.734 -0.6363  0.5522 -0.1716
 8725TIP3    H147666   6.625   1.127   4.647 -0.7849 -2.0512  0.0679
 8725TIP3    H247667   6.653   1.187   4.783  1.0209 -1.1707 -0.6537
 8726TIP3   OH247668   5.071   4.266  16.611 -0.4974 -0.4683 -0.2468
 8726TIP3    H147669   5.081   4.193  16.672 -1.1356  0.7223  1.3424
 8726TIP3    H247670   5.147   4.260  16.554  1.2660 -0.4522  1.9703
 8727TIP3   OH247671   1.473   3.155  12.967 -0.5201  0.0141  0.1492
 8727TIP3    H147672   1.387   3.138  12.930  0.3771 -0.5723 -1.7879
 8727TIP3    H247673   1.497   3.075  13.013 -0.4891 -0.2945 -0.3999
 8728TIP3   OH247674   1.039   5.274  16.985  0.6513 -0.2592 -0.0143
 8728TIP3    H147675   1.103   5.239  16.922  2.2839  1.0565  0.8411
 8728TIP3    H247676   1.020   5.362  16.952 -0.4085 -0.4730 -0.0004
 8729TIP3   OH247677   0.683   2.637   5.124  0.7638 -0.0682 -0.1782
 8729TIP3    H147678   0.713   2.726   5.142  0.0693  0.3839 -1.1360
 8729TIP3    H247679   0.619   2.618   5.193  1.2925 -0.0255  0.3252
 8730TIP3   OH247680   5.970   5.226   4.200  0.2882  0.1718 -0.3179
 8730TIP3    H147681   5.977   5.131   4.192 -1.2221  0.1322 -2.0161
 8730TIP3    H247682   5.953   5.256   4.110 -1.6111  1.7763  0.4857
 8731TIP3   OH247683   3.287   3.785   2.927 -0.5777 -0.4021  0.0420
 8731TIP3    H147684   3.216   3.847   2.910 -0.2233  0.1457  0.5220
 8731TIP3    H247685   3.305   3.746   2.842  1.6681  2.8198 -1.1560
 8732TIP3   OH247686   2.198   4.064   1.139 -0.5976 -0.5567  0.4620
 8732TIP3    H147687   2.214   3.970   1.144 -0.1843 -0.6493 -1.5031
 8732TIP3    H247688   2.104   4.074   1.150 -0.5983 -1.1606  1.0360
 8733TIP3   OH247689   4.720   1.558   1.653 -0.5480 -0.4525 -0.2187
 8733TIP3    H147690   4.792   1.499   1.674  1.1591  0.4141 -3.1170
 8733TIP3    H247691   4.738   1.637   1.704  0.9888 -0.0147 -1.3596
 8734TIP3   OH247692   4.755   4.169   5.184 -0.4135  0.1838  0.6154
 8734TIP3    H147693   4.837   4.150   5.230  0.4176  3.4770  0.7836
 8734TIP3    H247694   4.700   4.092   5.198  2.1880 -1.6385  1.5363
 8735TIP3   OH247695   1.963   3.054  13.957  0.1756  0.7400  0.1092
 8735TIP3    H147696   1.972   3.144  13.988 -0.0786  0.7872  0.0464
 8735TIP3    H247697   1.917   3.062  13.873 -2.7546  0.3228  1.5836
 8736TIP3   OH247698   5.784   0.265   0.123  0.1861 -0.0379  0.1413
 8736TIP3    H147699   5.771   0.186   0.070  0.6155 -0.0835  0.0973
 8736TIP3    H247700   5.777   0.337   0.060 -1.9001  0.0922  0.4452
 8737TIP3   OH247701   5.227   2.986   3.697 -0.8889 -0.5736  0.4231
 8737TIP3    H147702   5.285   2.981   3.773 -0.3698 -1.9740 -0.0370
 8737TIP3    H247703   5.285   2.973   3.622 -1.4491  0.4243 -0.2191
 8738TIP3   OH247704   1.131   1.903   4.688 -0.3734 -0.4007 -0.3929
 8738TIP3    H147705   1.176   1.875   4.768 -0.3979 -1.5737 -0.7672
 8738TIP3    H247706   1.194   1.958   4.642 -0.5029  0.6166  0.6083
 8739TIP3   OH247707   4.405   3.799   2.607  0.3024  0.0851  0.1212
 8739TIP3    H147708   4.488   3.752   2.618 -0.0892 -0.2626  2.0758
 8739TIP3    H247709   4.362   3.790   2.692 -1.7995  0.1765 -0.8756
 8740TIP3   OH247710   1.358   3.339  13.574 -0.0224 -0.1084 -0.4295
 8740TIP3    H147711   1.282   3.346  13.632 -0.9825 -0.2137 -1.6270
 8740TIP3    H247712   1.374   3.428  13.544  1.4128  0.1950  1.1056
 8741TIP3   OH247713   1.781   1.852   1.876  0.3814 -0.2725  0.3715
 8741TIP3    H147714   1.817   1.856   1.788  0.1441  0.2675  0.2948
 8741TIP3    H247715   1.846   1.897   1.930 -0.1760  0.7477  0.2253
 8742TIP3   OH247716   0.594   4.659  15.862  0.1388  0.5442  0.6254
 8742TIP3    H147717   0.657   4.719  15.822 -1.1502  1.5957  0.1100
 8742TIP3    H247718   0.544   4.714  15.922 -1.4423  0.1298 -0.2724
 8743TIP3   OH247719   1.743   6.221  13.778  0.1899  0.2183  0.0888
 8743TIP3    H147720   1.797   6.176  13.843  1.5787  1.1302 -0.3841
 8743TIP3    H247721   1.805   6.273  13.727 -1.0429  0.6405 -1.0475
 8744TIP3   OH247722   2.402   3.655  17.014  0.3916 -0.2088  0.4587
 8744TIP3    H147723   2.362   3.691  16.935 -0.0457 -0.6991  0.4517
 8744TIP3    H247724   2.496   3.657  16.996  0.5574  2.5196  1.1118
 8745TIP3   OH247725   4.674   0.998  14.588 -0.3575  0.3454 -1.1112
 8745TIP3    H147726   4.643   0.913  14.620 -1.0151  0.7910 -0.5383
 8745TIP3    H247727   4.628   1.010  14.505  0.4214 -0.2618 -1.6349
 8746TIP3   OH247728   3.623   1.708  12.744 -0.3776 -0.0224 -0.0416
 8746TIP3    H147729   3.545   1.681  12.695  0.5937 -0.8519 -1.1969
 8746TIP3    H247730   3.616   1.662  12.828 -2.3795  1.8940  0.9268
 8747TIP3   OH247731   1.516   2.064  12.669 -0.4839  0.2011 -0.4871
 8747TIP3    H147732   1.509   2.156  12.645 -0.3891  0.4159  0.2579
 8747TIP3    H247733   1.607   2.054  12.698 -1.1799  0.5670  2.0542
 8748TIP3   OH247734   0.424   0.255  16.267  1.0726 -0.2275 -0.1257
 8748TIP3    H147735   0.459   0.166  16.266  2.5269  0.3158 -0.0418
 8748TIP3    H247736   0.474   0.300  16.199  1.0228  0.7604  0.4815
 8749TIP3   OH247737   2.289   5.074  12.419 -0.4391  0.0316  0.3263
 8749TIP3    H147738   2.314   5.063  12.511 -0.7425  2.1975  0.7121
 8749TIP3    H247739   2.368   5.107  12.376 -0.5738 -0.0826 -0.0127
 8750TIP3   OH247740   2.375   1.278  11.257 -0.1112  0.6712 -0.0332
 8750TIP3    H147741   2.378   1.246  11.167  1.9913  1.2699 -0.2415
 8750TIP3    H247742   2.407   1.368  11.250 -0.1846  0.8089  1.2863
 8751TIP3   OH247743   5.503   3.907  16.578  0.0941  0.1565 -0.4352
 8751TIP3    H147744   5.477   3.819  16.605 -0.0351  0.4060  0.2729
 8751TIP3    H247745   5.546   3.944  16.655 -0.6058  1.0194 -0.4411
 8752TIP3   OH247746   0.684   0.537  14.342  0.4638  0.0368  0.1699
 8752TIP3    H147747   0.655   0.572  14.258  0.8527 -2.7858 -1.2737
 8752TIP3    H247748   0.771   0.501  14.325 -0.0767 -1.9861  1.2814
 8753TIP3   OH247749   1.171   5.362  16.599  0.0210 -0.0439 -0.2358
 8753TIP3    H147750   1.083   5.357  16.560 -0.9087 -0.1572  1.7685
 8753TIP3    H247751   1.177   5.285  16.654  0.8716  0.6425  0.6662
 8754TIP3   OH247752   0.674   0.197  15.565 -0.2567 -0.2585  0.0347
 8754TIP3    H147753   0.757   0.161  15.534 -0.5362 -1.1787  0.3395
 8754TIP3    H247754   0.698   0.259  15.633  0.1745 -0.6251  0.2157
 8755TIP3   OH247755   1.055   1.685   0.669 -0.1647 -0.1512  0.0087
 8755TIP3    H147756   1.110   1.635   0.730  0.3092 -0.8254 -0.9442
 8755TIP3    H247757   1.050   1.772   0.708 -1.3617 -0.9900  1.9433
 8756TIP3   OH247758   1.210   3.762   1.552 -0.0166 -0.3269  0.4747
 8756TIP3    H147759   1.254   3.843   1.527  1.5553 -1.0206  0.9072
 8756TIP3    H247760   1.140   3.790   1.611  0.6892  0.6912  0.8576
 8757TIP3   OH247761   3.799   0.337  14.647  0.4518  0.4592 -0.4859
 8757TIP3    H147762   3.848   0.420  14.644  0.9043  0.2046 -0.2319
 8757TIP3    H247763   3.761   0.329  14.559  0.9904  0.5915 -0.7385
 8758TIP3   OH247764   4.737   6.477   5.959 -0.4673  0.3122  0.1656
 8758TIP3    H147765   4.717   6.442   5.872 -3.8597  0.1135  0.9188
 8758TIP3    H247766   4.682   6.555   5.966  1.5754  1.7369  1.2838
 8759TIP3   OH247767   2.492   6.086   2.216 -0.0723  0.1741  0.2585
 8759TIP3    H147768   2.417   6.027   2.203 -0.7234  1.1119 -0.3317
 8759TIP3    H247769   2.568   6.029   2.207 -0.6679 -0.4441 -1.1043
 8760TIP3   OH247770   2.937   3.570   4.942  0.1516 -0.2407 -0.7654
 8760TIP3    H147771   2.995   3.645   4.957  1.0014 -0.5755 -2.1569
 8760TIP3    H247772   2.904   3.584   4.853 -0.7121 -0.8530 -0.5520
 8761TIP3   OH247773   5.310   4.089  16.138  0.7179 -0.3928 -0.0774
 8761TIP3    H147774   5.370   4.071  16.211  0.5424 -0.4114  0.0613
 8761TIP3    H247775   5.240   4.142  16.176  0.3063 -0.9152 -0.0914
 8762TIP3   OH247776   5.717   3.429   4.982 -0.5455 -0.2787 -0.1178
 8762TIP3    H147777   5.803   3.406   5.016  0.2994  1.5707 -0.8888
 8762TIP3    H247778   5.656   3.402   5.050  0.8030  0.1598  1.3163
 8763TIP3   OH247779   6.053   5.835  14.373  0.2622  0.5632  0.3556
 8763TIP3    H147780   5.981   5.782  14.408  1.0124  0.0454  1.1534
 8763TIP3    H247781   6.115   5.771  14.339  0.9417  0.9471  0.8532
 8764TIP3   OH247782   2.801   2.290  12.103  0.2322 -0.4643  0.3229
 8764TIP3    H147783   2.724   2.300  12.047  1.5828 -0.5668 -1.6465
 8764TIP3    H247784   2.814   2.195  12.109 -0.9124 -0.5369  2.3224
 8765TIP3   OH247785   5.348   4.187  14.505 -0.2822  0.3634 -0.1700
 8765TIP3    H147786   5.440   4.195  14.531  0.0005 -0.9993 -0.6193
 8765TIP3    H247787   5.317   4.109  14.550 -1.4162  1.1397  0.4418
 8766TIP3   OH247788   3.845   1.841  12.167  0.1190  0.2381 -0.3121
 8766TIP3    H147789   3.800   1.924  12.151  0.1713  0.1650 -0.8695
 8766TIP3    H247790   3.932   1.853  12.129  0.3421  0.1412  0.1577
 8767TIP3   OH247791   5.065   2.316   1.893 -0.4479  0.0175 -0.7124
 8767TIP3    H147792   5.032   2.272   1.814  2.0145  2.7623 -3.5438
 8767TIP3    H247793   5.028   2.404   1.888  2.9501  1.5915 -1.3146
 8768TIP3   OH247794   4.245   5.954   0.271  0.0309  0.0019 -0.0489
 8768TIP3    H147795   4.151   5.963   0.259 -0.1984 -1.0430  0.7712
 8768TIP3    H247796   4.265   5.865   0.240  0.9874  0.6835 -1.4870
 8769TIP3   OH247797   4.160   4.015   3.423  0.2408  0.1855 -0.0168
 8769TIP3    H147798   4.120   3.944   3.473 -0.7806  0.0690 -0.9577
 8769TIP3    H247799   4.119   4.094   3.458 -0.3272  0.1196 -0.5251
 8770TIP3   OH247800   3.234   6.411   3.279  0.5905  0.0160 -0.0484
 8770TIP3    H147801   3.300   6.352   3.241  0.9988  0.9849 -0.9011
 8770TIP3    H247802   3.284   6.477   3.326  0.0821 -1.1672  2.2791
 8771TIP3   OH247803   1.929   4.640  11.312  0.1128  0.3123 -0.4832
 8771TIP3    H147804   1.856   4.581  11.331 -0.4225  0.9638 -0.4836
 8771TIP3    H247805   1.902   4.685  11.232  1.5640 -1.1432 -1.8876
 8772TIP3   OH247806   2.712   2.769  16.243  0.0905 -0.1597  0.0258
 8772TIP3    H147807   2.765   2.734  16.171 -0.3239 -1.2428  0.2260
 8772TIP3    H247808   2.773   2.820  16.295  0.6754 -0.4051 -0.4108
 8773TIP3   OH247809   6.600   5.662   5.718 -0.4077  0.0089  0.6912
 8773TIP3    H147810   6.600   5.573   5.683 -1.4604 -0.3459  1.5308
 8773TIP3    H247811   6.522   5.666   5.773  0.9677  0.6383  2.7171
 8774TIP3   OH247812   3.654   4.619   1.688 -0.4236 -0.8667  0.0912
 8774TIP3    H147813   3.624   4.552   1.750 -0.7915 -2.1557 -1.3922
 8774TIP3    H247814   3.721   4.574   1.635  0.2947  0.3637 -0.0945
 8775TIP3   OH247815   5.293   3.535   4.349  0.2189  0.0378  0.2640
 8775TIP3    H147816   5.270   3.599   4.417 -0.8711 -0.2489  0.1813
 8775TIP3    H247817   5.241   3.458   4.370 -0.8532  0.2575 -1.4126
 8776TIP3   OH247818   6.377   5.308  14.800  0.0975 -0.4356 -0.4972
 8776TIP3    H147819   6.441   5.379  14.810 -0.8997  0.5018 -0.6367
 8776TIP3    H247820   6.430   5.231  14.779  1.2110  0.2365 -0.2219
 8777TIP3   OH247821   3.945   5.662  13.862  0.1258  0.1845 -0.8531
 8777TIP3    H147822   3.895   5.641  13.783 -3.5805 -0.4571  1.4151
 8777TIP3    H247823   3.994   5.582  13.882 -1.9161 -1.0865 -0.5688
 8778TIP3   OH247824   3.148   6.018   4.540 -0.0608  0.3685  0.1868
 8778TIP3    H147825   3.094   5.946   4.507 -0.4032 -0.9906  3.3282
 8778TIP3    H247826   3.091   6.065   4.600  0.8560  1.9456 -0.1256
 8779TIP3   OH247827   0.895   4.636  16.773  0.4271  0.5731  0.1287
 8779TIP3    H147828   0.908   4.558  16.827 -0.2323  0.4009  0.0416
 8779TIP3    H247829   0.930   4.708  16.826  1.8314  0.1231 -0.1391
 8780TIP3   OH247830   6.741   2.097   4.005 -0.0595  0.1619  0.2342
 8780TIP3    H147831   6.767   2.179   3.963 -0.4197  0.6148  0.8800
 8780TIP3    H247832   6.685   2.054   3.942 -1.7115  1.4665  0.7522
 8781TIP3   OH247833   3.774   5.112   2.343 -0.6346  0.2343  0.2928
 8781TIP3    H147834   3.774   5.018   2.327  0.3164  0.4466 -1.1360
 8781TIP3    H247835   3.866   5.136   2.352 -0.8008  1.1647 -0.3024
 8782TIP3   OH247836   3.326   2.841   8.627  0.3773  0.0646  0.0626
 8782TIP3    H147837   3.309   2.833   8.533  1.2204  0.1108 -0.0989
 8782TIP3    H247838   3.346   2.751   8.655  0.0166  0.0334  0.2209
 8783TIP3   OH247839   0.409   2.692  17.462 -0.4224  0.1480 -0.3310
 8783TIP3    H147840   0.456   2.762  17.417  0.6131 -0.1352  0.2795
 8783TIP3    H247841   0.427   2.707  17.555  1.1329 -1.7823 -0.2473
 8784TIP3   OH247842   0.448   2.449  15.157  0.3047  0.1739  0.0473
 8784TIP3    H147843   0.385   2.514  15.189  1.2593  1.0280  0.2202
 8784TIP3    H247844   0.533   2.479  15.190  0.9344 -0.4806 -0.9304
 8785TIP3   OH247845   3.858   5.768  15.981 -0.0570  0.5199 -0.2341
 8785TIP3    H147846   3.850   5.692  15.924 -0.6354  1.0993 -0.9486
 8785TIP3    H247847   3.873   5.731  16.068 -1.4901 -0.4583 -0.3644
 8786TIP3   OH247848   6.325   1.589   0.994  0.2454 -0.4945 -0.6063
 8786TIP3    H147849   6.337   1.554   0.906  1.5047 -1.1307 -0.2020
 8786TIP3    H247850   6.308   1.683   0.980  0.8223 -0.5133 -1.5037
 8787TIP3   OH247851   1.380   0.268   2.671  0.4312  0.4273 -0.3940
 8787TIP3    H147852   1.470   0.294   2.649  0.1668  1.5123 -0.2551
 8787TIP3    H247853   1.350   0.336   2.731  0.3992 -1.3216  1.6829
 8788TIP3   OH247854   0.716   2.915   0.583  0.3187 -0.3531 -0.4734
 8788TIP3    H147855   0.642   2.901   0.524  0.0860 -0.4707 -0.1559
 8788TIP3    H247856   0.739   3.007   0.571 -0.7400  0.0573  0.3952
 8789TIP3   OH247857   2.300   4.423  15.842 -0.3923 -0.1388  0.1464
 8789TIP3    H147858   2.221   4.474  15.862 -0.3557  0.5825 -1.4298
 8789TIP3    H247859   2.353   4.481  15.787 -0.2222 -1.7407 -1.4712
 8790TIP3   OH247860   5.776   1.804   4.824  0.0382 -0.1146  0.1426
 8790TIP3    H147861   5.728   1.885   4.842 -0.3633 -0.3633  0.2205
 8790TIP3    H247862   5.709   1.744   4.790  0.3834 -0.3249 -0.1742
 8791TIP3   OH247863   2.047   6.144   0.385 -0.1401 -0.3885 -0.3730
 8791TIP3    H147864   2.004   6.205   0.325 -2.0833 -1.2392  0.0761
 8791TIP3    H247865   1.993   6.144   0.463  1.2206 -0.8317  0.6046
 8792TIP3   OH247866   4.070   1.392  15.190  0.0223  0.0688 -0.7546
 8792TIP3    H147867   4.086   1.486  15.186 -0.7396  0.3659  1.3649
 8792TIP3    H247868   4.127   1.361  15.262 -1.1374 -0.7098 -0.1351
 8793TIP3   OH247869   2.523   5.321   6.663  0.8453  0.2802 -0.3144
 8793TIP3    H147870   2.560   5.392   6.611  0.3678  0.3832 -0.5182
 8793TIP3    H247871   2.548   5.241   6.617  0.4688  0.3696 -0.6790
 8794TIP3   OH247872   3.843   1.756   5.730 -0.0174  0.5575  0.2157
 8794TIP3    H147873   3.789   1.802   5.665 -1.8700 -1.1973  0.4132
 8794TIP3    H247874   3.802   1.776   5.814  1.1538  1.1691  0.6678
 8795TIP3   OH247875   4.359   5.573  13.864  0.2579 -0.0153  0.0255
 8795TIP3    H147876   4.407   5.611  13.938  1.2147 -1.1690  0.0345
 8795TIP3    H247877   4.297   5.513  13.905  0.3552 -0.1844 -0.0733
 8796TIP3   OH247878   1.851   0.503   2.020 -0.6520 -0.1851  0.2371
 8796TIP3    H147879   1.764   0.543   2.015 -0.3265  0.7250  1.5527
 8796TIP3    H247880   1.855   0.465   2.108 -0.4222 -1.9446 -0.4848
 8797TIP3   OH247881   4.545   0.827  16.733 -0.3579  0.6025 -0.2953
 8797TIP3    H147882   4.573   0.872  16.653 -1.3504  0.1915 -0.8963
 8797TIP3    H247883   4.491   0.755  16.702  0.6887 -0.6585  0.6732
 8798TIP3   OH247884   0.877   6.679   4.574 -0.4699 -0.0113 -0.6272
 8798TIP3    H147885   0.973   6.688   4.570 -0.5565  0.7104 -1.2637
 8798TIP3    H247886   0.855   6.617   4.504 -0.3982 -0.8677  0.0903
 8799TIP3   OH247887   3.145   1.624   5.277  0.6722 -0.4471  0.3861
 8799TIP3    H147888   3.193   1.555   5.230  0.8288 -1.4176  1.8761
 8799TIP3    H247889   3.069   1.579   5.314  0.5769  0.2697  1.0886
 8800TIP3   OH247890   2.868   5.457  14.940  0.1848  0.0733 -0.0784
 8800TIP3    H147891   2.863   5.472  14.845  2.8141  0.0132 -0.3074
 8800TIP3    H247892   2.859   5.362  14.949  2.2518 -0.2400 -0.5979
 8801TIP3   OH247893   1.309   6.207   2.411  0.1222  0.0258  0.3427
 8801TIP3    H147894   1.368   6.154   2.466  0.8864 -1.3966 -1.7188
 8801TIP3    H247895   1.256   6.142   2.364 -0.9875  1.2107 -0.0932
 8802TIP3   OH247896   5.955   3.480  10.812  0.5214  0.2967  0.2029
 8802TIP3    H147897   6.007   3.555  10.784  1.1010  0.1668  0.8970
 8802TIP3    H247898   6.017   3.407  10.816 -0.2775 -0.5377 -1.6851
 8803TIP3   OH247899   1.888   5.245  17.367 -0.1232 -0.2040  0.4816
 8803TIP3    H147900   1.837   5.204  17.297 -2.4892  1.9565  0.8030
 8803TIP3    H247901   1.959   5.290  17.322 -0.9896  0.2726 -0.4470
 8804TIP3   OH247902   1.331   5.397   3.715  0.1599  0.5550  0.2190
 8804TIP3    H147903   1.275   5.359   3.782 -0.2923  0.7407 -0.0453
 8804TIP3    H247904   1.342   5.489   3.742 -1.1603  0.9934 -0.6770
 8805TIP3   OH247905   3.416   1.708   5.421  0.0219  0.7794  0.4792
 8805TIP3    H147906   3.332   1.663   5.427  1.2252 -1.6910  0.2940
 8805TIP3    H247907   3.456   1.673   5.341  1.3019  1.7274  0.6739
 8806TIP3   OH247908   1.495   2.855  15.931 -0.3011  0.0771  0.0893
 8806TIP3    H147909   1.405   2.878  15.909 -0.5145  2.6806  2.8964
 8806TIP3    H247910   1.545   2.935  15.912  0.8997 -0.4413  0.9366
 8807TIP3   OH247911   6.643   3.466   2.264 -0.2429 -0.0677 -0.4727
 8807TIP3    H147912   6.679   3.553   2.285  1.0542 -0.6987  0.0360
 8807TIP3    H247913   6.589   3.444   2.340  1.2068 -0.6273  0.4286
 8808TIP3   OH247914   3.101   1.507  14.479 -0.2641  0.1182  0.2688
 8808TIP3    H147915   3.155   1.513  14.400 -0.9402 -0.5207 -0.2543
 8808TIP3    H247916   3.158   1.466  14.544  0.5607  1.3731  0.3796
 8809TIP3   OH247917   6.383   3.054  13.979 -0.0659 -0.4400 -0.0355
 8809TIP3    H147918   6.295   3.088  13.965  0.0315 -1.1513 -3.2556
 8809TIP3    H247919   6.369   2.966  14.014 -0.7098 -0.7551 -1.0349
 8810TIP3   OH247920   1.797   1.307   5.670 -0.2560  0.3664 -0.5599
 8810TIP3    H147921   1.770   1.216   5.673  0.2868  0.1952 -0.7952
 8810TIP3    H247922   1.765   1.340   5.586 -1.7888  0.8278  0.1692
 8811TIP3   OH247923   2.107   1.333  14.265 -0.3031  0.2153  0.7017
 8811TIP3    H147924   2.190   1.285  14.270  0.2048  1.0675  0.6780
 8811TIP3    H247925   2.129   1.413  14.217 -1.6256 -0.5329 -1.2661
 8812TIP3   OH247926   5.253   1.171   4.157  0.2353  0.1862 -0.8625
 8812TIP3    H147927   5.220   1.260   4.143 -1.2206 -0.3973 -1.3313
 8812TIP3    H247928   5.257   1.161   4.252 -0.6021  0.4104 -0.7948
 8813TIP3   OH247929   4.092   0.801   6.333 -0.7293  0.1673  0.9933
 8813TIP3    H147930   4.098   0.802   6.429 -1.0777 -1.7292  1.0774
 8813TIP3    H247931   3.999   0.810   6.314 -0.6330  0.8187  0.8136
 8814TIP3   OH247932   0.979   4.954  13.698 -0.7296  0.3091  0.4782
 8814TIP3    H147933   0.987   4.928  13.790 -0.7225  0.0506  0.4063
 8814TIP3    H247934   0.952   4.874  13.653 -0.2253  0.3076  0.1711
 8815TIP3   OH247935   6.777   6.314   3.794  0.1568 -0.5605 -0.4950
 8815TIP3    H147936   6.702   6.374   3.796  1.4672  1.1583 -0.5750
 8815TIP3    H247937   6.793   6.299   3.701 -0.4318 -1.4170 -0.4697
 8816TIP3   OH247938   1.578   0.052   6.396 -0.1772  0.5992 -0.2676
 8816TIP3    H147939   1.485   0.049   6.422  0.1705 -0.9452  0.9745
 8816TIP3    H247940   1.624   0.010   6.469  1.2828 -0.6119 -1.8222
 8817TIP3   OH247941   1.702   4.964  16.088 -0.0422  0.3278 -0.4986
 8817TIP3    H147942   1.623   4.963  16.143  0.1840  1.5923 -0.1271
 8817TIP3    H247943   1.741   4.877  16.102  0.3234  0.8075  1.8332
 8818TIP3   OH247944   3.516   6.152   5.753  0.5625  0.4425 -0.1842
 8818TIP3    H147945   3.480   6.158   5.841  0.2040 -0.8160 -0.2206
 8818TIP3    H247946   3.445   6.113   5.701  0.8261  1.0181 -0.9873
 8819TIP3   OH247947   3.156   1.416   2.928 -0.7668  0.4141  0.2656
 8819TIP3    H147948   3.209   1.380   2.999 -2.0548  1.1260  1.6497
 8819TIP3    H247949   3.176   1.509   2.928  0.5801  0.1867 -1.5632
 8820TIP3   OH247950   1.163   6.055   0.957 -0.2348 -0.0451  0.2609
 8820TIP3    H147951   1.198   6.143   0.973 -1.3265  0.2480  1.2313
 8820TIP3    H247952   1.219   5.997   1.008 -0.0042  0.1843  0.2710
 8821TIP3   OH247953   2.079   6.219  17.195 -0.5506  0.2005  0.6424
 8821TIP3    H147954   2.109   6.165  17.268 -2.3128 -0.2508  1.0669
 8821TIP3    H247955   2.151   6.279  17.179  2.9804 -4.0365 -1.8461
 8822TIP3   OH247956   0.523   3.373  14.503  0.0445 -0.0281 -0.5296
 8822TIP3    H147957   0.590   3.385  14.570 -0.2338 -0.2502 -0.2041
 8822TIP3    H247958   0.561   3.309  14.442  1.1896  1.7944 -1.8141
 8823TIP3   OH247959   6.621   3.564  12.123  0.1559  0.3618  0.5284
 8823TIP3    H147960   6.567   3.637  12.152 -1.2085 -0.5459  0.3233
 8823TIP3    H247961   6.559   3.494  12.101  1.4092 -0.7787  0.4710
 8824TIP3   OH247962   0.084   3.238   6.351 -0.1258 -0.1072  0.0238
 8824TIP3    H147963   0.128   3.323   6.358  0.7634 -0.5605  0.1621
 8824TIP3    H247964   0.121   3.200   6.271  0.9916 -1.1883  1.0231
 8825TIP3   OH247965   3.974   4.366   6.210  0.2256 -0.0088 -0.3695
 8825TIP3    H147966   3.907   4.335   6.271  0.5995 -0.3077 -0.1043
 8825TIP3    H247967   3.925   4.396   6.134 -0.2022 -0.3885 -0.2507
 8826TIP3   OH247968   4.279   6.478  11.702 -0.1671 -0.6063 -0.2539
 8826TIP3    H147969   4.288   6.558  11.651  0.1052 -0.8493 -0.5876
 8826TIP3    H247970   4.243   6.507  11.786 -1.0521 -0.2565 -0.7383
 8827TIP3   OH247971   4.039   5.563   3.213  0.2088  0.2429  0.1754
 8827TIP3    H147972   3.969   5.523   3.161 -0.0376  0.9610 -0.0594
 8827TIP3    H247973   4.020   5.536   3.303 -0.3751  0.4371  0.1159
 8828TIP3   OH247974   5.592   1.501  12.612 -1.0276 -0.2700 -0.3235
 8828TIP3    H147975   5.545   1.421  12.587 -3.3707  1.1822 -0.8829
 8828TIP3    H247976   5.531   1.572  12.594  0.7582  1.6553  0.6698
 8829TIP3   OH247977   6.250   1.998   2.701 -0.4732  0.5847 -0.1920
 8829TIP3    H147978   6.294   1.913   2.695 -0.1336  0.6961  0.5599
 8829TIP3    H247979   6.241   2.027   2.610  0.0221  0.0510 -0.4184
 8830TIP3   OH247980   6.466   5.563  14.763  0.1281  0.1794  0.8809
 8830TIP3    H147981   6.447   5.577  14.856  1.6284  1.6097  1.0218
 8830TIP3    H247982   6.542   5.619  14.745 -1.1245  1.2716 -1.5879
 8831TIP3   OH247983   1.014   4.774  11.676 -0.6661  0.1527  0.0889
 8831TIP3    H147984   1.045   4.684  11.678 -0.4716  0.2149 -0.1337
 8831TIP3    H247985   0.978   4.789  11.764 -2.3112 -0.7045 -0.3993
 8832TIP3   OH247986   4.108   6.480   0.468  0.0718  0.6259  0.2918
 8832TIP3    H147987   4.020   6.494   0.433 -0.0209 -0.5782 -0.0048
 8832TIP3    H247988   4.110   6.388   0.491  1.7591  0.2353 -1.1788
 8833TIP3   OH247989   5.745   0.880  16.546 -0.1013 -0.9659  0.9394
 8833TIP3    H147990   5.695   0.809  16.585  0.3897 -2.1368 -0.4461
 8833TIP3    H247991   5.713   0.886  16.456  0.5769 -0.1166  0.7338
 8834TIP3   OH247992   1.800   4.691   5.568  0.0507 -0.4027  0.3089
 8834TIP3    H147993   1.751   4.617   5.532  0.8551 -1.2445  0.8967
 8834TIP3    H247994   1.851   4.653   5.640  1.2876  0.5074 -0.0472
 8835TIP3   OH247995   0.628   3.401  16.203  0.0261  0.0281  0.6785
 8835TIP3    H147996   0.657   3.473  16.259 -1.6013  1.4992 -0.2740
 8835TIP3    H247997   0.695   3.397  16.134  0.1240  0.6528  0.7312
 8836TIP3   OH247998   6.624   4.104  11.395 -0.1099  0.0577  0.4235
 8836TIP3    H147999   6.629   4.146  11.481 -0.5135  0.7909  0.0949
 8836TIP3    H248000   6.693   4.038  11.397 -0.0090  0.1736  1.2537
 8837TIP3   OH248001   2.824   1.784   6.891 -0.3444 -0.7815 -0.4763
 8837TIP3    H148002   2.869   1.860   6.927  0.4275 -0.4293 -2.0926
 8837TIP3    H248003   2.765   1.755   6.961 -0.3786  1.0654  0.3102
 8838TIP3   OH248004   2.506   0.368   4.839 -0.5474  0.7728  0.2708
 8838TIP3    H148005   2.566   0.324   4.779  0.1633  1.3363  0.5557
 8838TIP3    H248006   2.560   0.390   4.916 -0.2080  4.2432 -0.7845
 8839TIP3   OH248007   1.792   0.568  17.342  0.7321 -0.9625  0.1051
 8839TIP3    H148008   1.863   0.631  17.328  0.0399  0.1504  1.3539
 8839TIP3    H248009   1.725   0.618  17.387 -0.1099 -2.4594  0.5716
 8840TIP3   OH248010   4.155   0.308   1.368  0.4011 -0.0590 -0.0613
 8840TIP3    H148011   4.146   0.381   1.429 -2.1190 -0.4553  0.1495
 8840TIP3    H248012   4.209   0.244   1.414  0.4907  0.6254  0.7902
 8841TIP3   OH248013   5.137   1.586   5.618  0.0112  0.5963  0.6209
 8841TIP3    H148014   5.167   1.632   5.539  0.8809  1.7327  1.5850
 8841TIP3    H248015   5.188   1.506   5.620  0.1121  0.6453  0.1271
 8842TIP3   OH248016   5.188   5.914   6.517  0.6750 -0.0864 -0.0661
 8842TIP3    H148017   5.279   5.885   6.525  0.3107 -0.8855  1.6103
 8842TIP3    H248018   5.137   5.842   6.553 -0.5346  0.9230  0.3136
 8843TIP3   OH248019   2.997   0.723  12.484 -0.2634  0.3890  0.4638
 8843TIP3    H148020   3.056   0.664  12.437  2.2557  1.6068  1.8365
 8843TIP3    H248021   2.996   0.802  12.430  0.7520  0.9504  1.2239
 8844TIP3   OH248022   3.892   4.262  14.951  0.2302  0.7701 -0.5540
 8844TIP3    H148023   3.886   4.310  14.868  1.1101  0.6338 -0.7028
 8844TIP3    H248024   3.885   4.170  14.926  0.4029  0.7333 -0.4699
 8845TIP3   OH248025   5.239   1.156  10.852  0.2694 -0.0745 -0.0089
 8845TIP3    H148026   5.252   1.067  10.884  2.7445 -0.3300 -1.4885
 8845TIP3    H248027   5.327   1.193  10.847 -0.6791  2.4400  0.4406
 8846TIP3   OH248028   1.145   6.418   4.171 -0.0937 -0.0386  0.9541
 8846TIP3    H148029   1.219   6.359   4.159 -0.6810 -1.0003  1.8864
 8846TIP3    H248030   1.067   6.363   4.156 -0.6424  0.7316  0.8958
 8847TIP3   OH248031   0.782   6.239  16.876 -0.2824  0.7395 -0.1515
 8847TIP3    H148032   0.692   6.263  16.852  0.3321  1.5248 -1.8187
 8847TIP3    H248033   0.818   6.320  16.913 -0.1766  0.4955  0.2821
 8848TIP3   OH248034   0.210   5.650   2.642 -0.0194  0.1420  0.1758
 8848TIP3    H148035   0.281   5.685   2.587  0.3316 -2.0139 -0.8254
 8848TIP3    H248036   0.177   5.575   2.593 -0.9941 -0.6977  2.0541
 8849TIP3   OH248037   2.193   4.168  15.764 -0.5195 -0.4113  0.5259
 8849TIP3    H148038   2.260   4.229  15.796 -1.6913  0.4035  1.5133
 8849TIP3    H248039   2.111   4.200  15.801 -1.3054 -2.0816  0.3464
 8850TIP3   OH248040   3.469   3.657  14.454  0.3679 -0.2854  0.4145
 8850TIP3    H148041   3.513   3.572  14.446  0.3033 -0.4426  1.5431
 8850TIP3    H248042   3.450   3.665  14.547  0.1992  0.8882  0.2924
 8851TIP3   OH248043   3.865   3.462   3.650  0.7408 -0.0862 -0.0130
 8851TIP3    H148044   3.913   3.544   3.639 -1.8817  1.8461  1.6396
 8851TIP3    H248045   3.863   3.448   3.745  0.8781 -1.9207 -0.2566
 8852TIP3   OH248046   0.403   0.371   0.259 -0.3264  0.0757  0.1027
 8852TIP3    H148047   0.348   0.381   0.182  0.1314 -2.0524 -0.5717
 8852TIP3    H248048   0.352   0.317   0.319  0.9014 -1.8983 -0.5188
 8853TIP3   OH248049   0.166   4.535  13.009  0.3559 -0.3283 -0.3678
 8853TIP3    H148050   0.154   4.500  13.098  0.6281 -1.9758 -0.9376
 8853TIP3    H248051   0.127   4.622  13.012  1.1036 -0.0156  1.5902
 8854TIP3   OH248052   5.336   3.378   4.075 -0.0079  0.0909 -0.3758
 8854TIP3    H148053   5.319   3.446   4.141 -0.0842  0.8744 -1.1889
 8854TIP3    H248054   5.398   3.319   4.118  0.4364  0.9327  0.1814
 8855TIP3   OH248055   1.795   0.375   4.789  0.3053 -0.1626  0.4636
 8855TIP3    H148056   1.709   0.406   4.819 -0.5073  0.4657 -2.2622
 8855TIP3    H248057   1.841   0.352   4.870 -1.5989  1.5932  2.1742
 8856TIP3   OH248058   2.410   2.638   3.185 -0.4071  0.1305  0.2460
 8856TIP3    H148059   2.474   2.709   3.189  0.9877 -0.9952 -1.0394
 8856TIP3    H248060   2.364   2.642   3.269  1.4650  0.8628  1.2833
 8857TIP3   OH248061   3.834   3.179   3.677  0.1397  0.0496 -0.1252
 8857TIP3    H148062   3.822   3.137   3.592 -0.8313  0.6848 -0.3116
 8857TIP3    H248063   3.823   3.273   3.660  2.6771  0.4787  0.2088
 8858TIP3   OH248064   2.244   5.677   2.963  0.4633 -0.2857 -0.0554
 8858TIP3    H148065   2.188   5.601   2.980  2.3588 -1.5413  1.0732
 8858TIP3    H248066   2.198   5.751   3.001 -0.1653 -1.3773  1.3775
 8859TIP3   OH248067   4.021   2.135  12.312  0.0030 -0.9172 -0.0297
 8859TIP3    H148068   3.940   2.164  12.354 -0.1739 -0.7187 -0.5049
 8859TIP3    H248069   4.033   2.045  12.342  0.7358 -0.2671  1.7320
 8860TIP3   OH248070   5.315   3.525  11.320 -0.3142  0.1088  0.4619
 8860TIP3    H148071   5.350   3.609  11.289  1.3905 -0.6202  0.2858
 8860TIP3    H248072   5.220   3.535  11.315 -0.1400  1.8610  0.0028
 8861TIP3   OH248073   4.748   5.170   3.469 -0.2659  0.1698  0.7083
 8861TIP3    H148074   4.767   5.136   3.557 -0.4432 -1.1157  0.2702
 8861TIP3    H248075   4.765   5.096   3.411 -0.8065  0.8052 -0.2768
 8862TIP3   OH248076   0.192   6.279  13.995  0.3411  0.3420  0.2529
 8862TIP3    H148077   0.111   6.240  14.028  1.1428 -1.4916  0.1905
 8862TIP3    H248078   0.260   6.244  14.053  1.4054 -0.4929 -1.4303
 8863TIP3   OH248079   6.759   5.167   2.390 -0.0078  0.6480  0.8617
 8863TIP3    H148080   6.740   5.177   2.483  0.1559  0.7373  0.8861
 8863TIP3    H248081   6.838   5.113   2.387  0.6552  1.5839  0.8197
 8864TIP3   OH248082   3.352   1.652   5.777  0.4155  0.5981 -0.0532
 8864TIP3    H148083   3.309   1.735   5.760  2.7730  1.8490 -0.3926
 8864TIP3    H248084   3.391   1.627   5.693  0.5392 -0.3774  0.2737
 8865TIP3   OH248085   5.586   2.503   4.723 -0.3029 -0.3478  0.2280
 8865TIP3    H148086   5.557   2.563   4.791  0.5003  0.1282  0.1626
 8865TIP3    H248087   5.507   2.481   4.674 -0.9748 -1.0371  1.5726
 8866TIP3   OH248088   2.109   5.552   0.886 -0.2654 -0.2084 -0.5383
 8866TIP3    H148089   2.198   5.529   0.859 -0.9273 -1.3630 -1.8648
 8866TIP3    H248090   2.057   5.544   0.806 -1.7401 -0.5025  0.4105
 8867TIP3   OH248091   4.132   6.187  14.402 -0.1866  0.0242 -0.0579
 8867TIP3    H148092   4.096   6.164  14.488  1.7891 -1.8185  0.3788
 8867TIP3    H248093   4.227   6.195  14.417  0.0283  1.3692 -1.7649
 8868TIP3   OH248094   1.336   2.682  12.820 -0.1831 -0.8750 -0.5268
 8868TIP3    H148095   1.328   2.613  12.755 -1.5402 -0.3814 -0.9167
 8868TIP3    H248096   1.318   2.763  12.772  1.2614 -0.2369 -0.0527
 8869TIP3   OH248097   0.552   5.847   5.488  0.0833  0.3840  0.0152
 8869TIP3    H148098   0.512   5.787   5.551  0.3445  0.0795 -0.1088
 8869TIP3    H248099   0.600   5.790   5.428  0.3475  0.7185 -0.0904
 8870TIP3   OH248100   5.341   2.808  14.052  0.4172 -0.2452  0.0029
 8870TIP3    H148101   5.406   2.809  14.122  0.2081  0.6221  0.1902
 8870TIP3    H248102   5.330   2.900  14.028  1.6386 -0.6302 -2.2534
 8871TIP3   OH248103   6.627   1.208  14.918 -0.1695  0.1548 -0.5006
 8871TIP3    H148104   6.610   1.133  14.975  0.9887  1.3060  1.4666
 8871TIP3    H248105   6.550   1.263  14.926 -0.9927 -0.7127 -1.8963
 8872TIP3   OH248106   4.877   6.014   3.869 -0.4488  0.9307  0.0127
 8872TIP3    H148107   4.906   5.932   3.908 -0.0564  0.5640 -1.0062
 8872TIP3    H248108   4.957   6.058   3.843 -0.6611 -0.3795 -3.4178
 8873TIP3   OH248109   1.235   3.155  11.612  0.4139  0.8916  0.3655
 8873TIP3    H148110   1.264   3.128  11.525 -0.9347 -0.2252  0.2171
 8873TIP3    H248111   1.242   3.250  11.611  0.9495  0.8585 -0.7665
 8874TIP3   OH248112   3.183   1.563  15.378 -0.0436 -0.3057 -0.0700
 8874TIP3    H148113   3.167   1.656  15.366  0.7940  0.1486  1.9124
 8874TIP3    H248114   3.278   1.554  15.370 -0.1484 -1.0602 -0.5812
 8875TIP3   OH248115   3.893   4.727  11.160  0.0976  0.0807 -0.1361
 8875TIP3    H148116   3.929   4.709  11.074  1.0210 -0.1845  0.2929
 8875TIP3    H248117   3.969   4.745  11.215 -0.4726  0.2377  0.6261
 8876TIP3   OH248118   5.291   6.471   4.630  0.3425  0.2566 -0.2910
 8876TIP3    H148119   5.223   6.499   4.569 -0.4058 -0.3166  0.2612
 8876TIP3    H248120   5.359   6.434   4.575  0.5612  1.5145 -0.9091
 8877TIP3   OH248121   3.208   4.252  12.710  0.1262  0.0571 -0.3657
 8877TIP3    H148122   3.256   4.172  12.731 -1.4227 -1.0308 -0.7321
 8877TIP3    H248123   3.124   4.220  12.676 -1.3335  1.8516  1.3873
 8878TIP3   OH248124   1.170   4.281   1.246 -0.0197 -0.3444  0.4855
 8878TIP3    H148125   1.138   4.343   1.311 -1.6842 -0.1868 -0.4393
 8878TIP3    H248126   1.158   4.195   1.287 -0.2765 -0.2092  0.6921
 8879TIP3   OH248127   4.132   6.240   4.215 -0.1894 -0.3608  0.6285
 8879TIP3    H148128   4.169   6.328   4.210  0.0173 -0.4625  0.3683
 8879TIP3    H248129   4.170   6.202   4.294  1.6337 -1.0895 -0.5431
 8880TIP3   OH248130   0.736   5.151  12.789 -0.2152  0.4998  0.0777
 8880TIP3    H148131   0.746   5.056  12.799  0.5413  0.7309  2.2615
 8880TIP3    H248132   0.647   5.169  12.820  0.1311  0.6187  1.0475
 8881TIP3   OH248133   1.525   6.204  14.969  0.2681  0.2611  0.4359
 8881TIP3    H148134   1.565   6.121  14.945  1.7944  1.3008 -0.7852
 8881TIP3    H248135   1.585   6.243  15.032 -1.4454 -0.3914  2.6136
 8882TIP3   OH248136   5.925   3.857  17.033  0.2395  0.2314  0.5649
 8882TIP3    H148137   6.011   3.847  16.992 -0.7477 -1.0440 -1.2876
 8882TIP3    H248138   5.873   3.785  16.998 -1.7341  1.2537  1.2801
 8883TIP3   OH248139   2.045   6.178   4.517 -0.4660  0.2223 -0.4687
 8883TIP3    H148140   2.043   6.087   4.544 -2.9248  0.0651 -0.9739
 8883TIP3    H248141   2.138   6.201   4.517  0.4709 -2.8987 -2.4837
 8884TIP3   OH248142   2.673   5.734   1.886  0.4197 -0.0108 -0.2134
 8884TIP3    H148143   2.593   5.787   1.878  1.5748  2.0087  0.7718
 8884TIP3    H248144   2.653   5.671   1.955  0.3416  1.9155  1.6021
 8885TIP3   OH248145   2.545   3.490  16.600  0.4538 -0.4990 -0.3168
 8885TIP3    H148146   2.632   3.525  16.578  0.8164 -0.6231  0.8405
 8885TIP3    H248147   2.485   3.538  16.544  1.1595  0.4296 -0.3075
 8886TIP3   OH248148   6.652   2.939   2.099 -0.3385  0.6558 -0.6161
 8886TIP3    H148149   6.636   2.856   2.144 -1.3541  0.7447 -0.7775
 8886TIP3    H248150   6.622   2.924   2.010 -0.3844  1.1484 -0.6871
 8887TIP3   OH248151   5.695   3.766   2.461 -0.3708 -0.0081  0.2808
 8887TIP3    H148152   5.726   3.822   2.532  0.2363 -0.0213  0.0324
 8887TIP3    H248153   5.660   3.688   2.505 -0.7192  0.3282  0.6007
 8888TIP3   OH248154   0.184   0.642   0.019  0.1462  0.4531 -0.2494
 8888TIP3    H148155   0.092   0.648   0.046  0.1486 -0.2473 -0.0545
 8888TIP3    H248156   0.229   0.606   0.095  0.5989  0.8579 -0.3226
 8889TIP3   OH248157   1.641   2.670   2.829  0.1940 -0.3665  0.1001
 8889TIP3    H148158   1.673   2.758   2.808  0.3657 -0.5840 -0.5997
 8889TIP3    H248159   1.632   2.669   2.924 -1.1212  0.8504  0.0116
 8890TIP3   OH248160   6.392   2.560  13.500 -0.1292  0.4776  0.5059
 8890TIP3    H148161   6.312   2.609  13.481 -0.3743  0.5630  1.6870
 8890TIP3    H248162   6.460   2.628  13.508  0.4621  0.3133 -2.1422
 8891TIP3   OH248163   4.938   5.557   3.035 -0.0843  0.2716  0.2231
 8891TIP3    H148164   5.006   5.500   3.073 -1.4690 -0.6981  1.3689
 8891TIP3    H248165   4.987   5.626   2.991  1.7051  0.8246  2.8182
 8892TIP3   OH248166   5.725   3.570  14.459  0.1784  0.5243  0.0757
 8892TIP3    H148167   5.749   3.482  14.488 -0.9056 -0.9642 -3.1689
 8892TIP3    H248168   5.630   3.574  14.470  0.0758  0.8588 -0.9072
 8893TIP3   OH248169   1.365   5.795   0.167 -0.0820 -0.1553 -1.0104
 8893TIP3    H148170   1.380   5.885   0.194 -1.3942 -0.9242  3.0562
 8893TIP3    H248171   1.269   5.785   0.168  0.0473 -1.7003 -0.9239
 8894TIP3   OH248172   4.317   4.693  14.700 -0.4256 -0.6076 -0.2920
 8894TIP3    H148173   4.295   4.786  14.702 -0.5838 -0.5851 -1.8727
 8894TIP3    H248174   4.259   4.653  14.765 -1.1502  0.2458 -0.3997
 8895TIP3   OH248175   0.797   0.231   5.788 -0.1883 -0.2043  0.2091
 8895TIP3    H148176   0.803   0.326   5.773  0.0382 -0.3677 -0.8050
 8895TIP3    H248177   0.760   0.223   5.876 -4.0327  0.8635 -1.0831
 8896TIP3   OH248178   2.581   1.118   2.449  0.1260  0.1284 -0.0894
 8896TIP3    H148179   2.528   1.176   2.395 -0.4221  0.1433  0.4579
 8896TIP3    H248180   2.518   1.072   2.504  0.6944  0.2770  0.6934
 8897TIP3   OH248181   1.175   6.390  12.310 -0.1601  0.1519  0.5468
 8897TIP3    H148182   1.135   6.401  12.224 -0.2533  0.8388  0.6711
 8897TIP3    H248183   1.194   6.479  12.339 -1.0263 -0.0005  1.6523
 8898TIP3   OH248184   6.751   5.215   1.181  0.2322 -0.5500  0.2453
 8898TIP3    H148185   6.662   5.231   1.210  0.4465  2.0331 -0.2824
 8898TIP3    H248186   6.799   5.195   1.261 -0.3655  0.4255  0.8615
 8899TIP3   OH248187   3.797   4.839   2.284 -0.8221 -0.2212 -0.1634
 8899TIP3    H148188   3.734   4.833   2.356 -1.2170 -1.4059 -0.5813
 8899TIP3    H248189   3.746   4.822   2.205 -0.3629  0.9001 -0.7305
 8900TIP3   OH248190   3.829   4.370   2.356  0.0915  0.6157  0.5439
 8900TIP3    H148191   3.842   4.413   2.272  1.5199  1.1149  0.9826
 8900TIP3    H248192   3.916   4.335   2.378 -0.9699 -2.5242  0.2264
 8901TIP3   OH248193   1.305   5.284   5.833 -0.3634 -0.7257 -0.0727
 8901TIP3    H148194   1.302   5.366   5.882 -1.0144 -0.7972  0.0170
 8901TIP3    H248195   1.269   5.219   5.893 -1.1236 -0.8218 -0.6222
 8902TIP3   OH248196   1.116   3.776  12.437  0.0987  0.8629  0.0986
 8902TIP3    H148197   1.083   3.693  12.471 -0.0104  1.2109  0.8436
 8902TIP3    H248198   1.038   3.823  12.408  0.3145 -0.2437 -2.5701
 8903TIP3   OH248199   6.590   5.791   2.071  0.8003 -1.0630  0.2024
 8903TIP3    H148200   6.610   5.829   1.986 -0.0061 -1.0036  0.0323
 8903TIP3    H248201   6.576   5.698   2.053  2.9480 -1.5390  0.6430
 8904TIP3   OH248202   6.638   6.583  15.909  0.0373 -0.1870 -0.0521
 8904TIP3    H148203   6.602   6.509  15.861  0.2923  0.1962 -0.8390
 8904TIP3    H248204   6.603   6.573  15.998 -2.9249  0.7455 -1.0083
 8905TIP3   OH248205   3.790   1.713  15.083  0.4289 -0.3491  0.1042
 8905TIP3    H148206   3.761   1.745  14.998  1.8826  1.9100  0.4045
 8905TIP3    H248207   3.776   1.618  15.078 -0.2864 -0.1872 -2.3121
 8906TIP3   OH248208   2.872   4.804  11.376 -0.0324  0.2260 -0.0408
 8906TIP3    H148209   2.897   4.814  11.284  0.1630 -1.5246 -0.2096
 8906TIP3    H248210   2.900   4.716  11.399 -2.1322 -0.2115  1.0445
 8907TIP3   OH248211   1.576   5.075  15.849  0.0992 -0.1875  0.3108
 8907TIP3    H148212   1.636   5.017  15.895  1.7317  0.0490 -1.3755
 8907TIP3    H248213   1.613   5.163  15.861 -0.5793  0.1138  0.2474
 8908TIP3   OH248214   2.729   1.144  15.069  0.5221 -0.2864  0.1705
 8908TIP3    H148215   2.659   1.201  15.037 -0.2265  0.3682  2.7587
 8908TIP3    H248216   2.731   1.159  15.163  2.6710 -1.9810  0.4705
 8909TIP3   OH248217   4.514   6.538   4.144  0.4848 -0.2429 -0.3887
 8909TIP3    H148218   4.481   6.468   4.089  1.9732 -2.3030  1.1961
 8909TIP3    H248219   4.603   6.553   4.114  0.1464  1.1155 -0.7968
 8910TIP3   OH248220   5.844   0.484   5.789  0.3920 -0.2662  0.2207
 8910TIP3    H148221   5.816   0.521   5.873 -1.2387  0.9144 -0.7914
 8910TIP3    H248222   5.900   0.551   5.751 -0.0991 -0.1311 -0.2809
 8911TIP3   OH248223   2.631   2.676  13.640 -0.8231 -0.3152 -0.4019
 8911TIP3    H148224   2.605   2.764  13.613 -2.1829 -0.8901 -1.0413
 8911TIP3    H248225   2.616   2.674  13.734  0.5486  0.5508 -0.1214
 8912TIP3   OH248226   6.351   0.524  13.814 -0.2208 -0.4394  0.1604
 8912TIP3    H148227   6.297   0.602  13.816  0.5690  0.0968  1.3714
 8912TIP3    H248228   6.439   0.555  13.833 -0.0189 -1.6959  1.4731
 8913TIP3   OH248229   2.185   1.342   5.221  0.1992  0.3454  0.4285
 8913TIP3    H148230   2.203   1.434   5.197  0.7503  0.2762  0.5638
 8913TIP3    H248231   2.271   1.300   5.218  0.4870  0.5164  3.4026
 8914TIP3   OH248232   6.473   5.200  13.122  0.6468  0.5777 -0.3806
 8914TIP3    H148233   6.447   5.169  13.209  0.6359 -0.4220 -0.7185
 8914TIP3    H248234   6.436   5.288  13.115 -0.5933  0.1242  0.0861
 8915TIP3   OH248235   4.650   6.026  10.326 -0.0367  0.1445 -0.3578
 8915TIP3    H148236   4.730   6.075  10.303 -0.1187  1.7155  2.3031
 8915TIP3    H248237   4.683   5.942  10.356  0.5349  0.3436 -0.3964
 8916TIP3   OH248238   2.547   4.898   2.826 -0.2336  0.3802  0.6453
 8916TIP3    H148239   2.567   4.907   2.919  0.2283 -0.8725  0.6939
 8916TIP3    H248240   2.452   4.889   2.823 -0.1484 -0.9965  1.1635
 8917TIP3   OH248241   1.778   2.527   3.811 -0.1340 -0.5989  0.4149
 8917TIP3    H148242   1.710   2.528   3.744  0.3034 -0.4869 -0.0352
 8917TIP3    H248243   1.735   2.563   3.889 -0.7660 -1.1286  0.3180
 8918TIP3   OH248244   4.566   1.634   2.064  0.2768  0.2852  0.6928
 8918TIP3    H148245   4.495   1.641   2.128  0.1097  1.0498  0.4350
 8918TIP3    H248246   4.630   1.699   2.092  0.0258  0.8985 -0.1342
 8919TIP3   OH248247   4.034   6.623   4.508  0.4996 -0.0018  0.4520
 8919TIP3    H148248   3.959   6.568   4.487  0.4918 -0.2310  1.0584
 8919TIP3    H248249   4.013   6.708   4.471 -0.0672 -0.0579  0.6471
 8920TIP3   OH248250   3.613   3.077   0.071 -0.1386  0.1566  0.3415
 8920TIP3    H148251   3.618   2.990   0.110 -0.6814 -0.0840 -0.1213
 8920TIP3    H248252   3.561   3.066  -0.008 -4.0204  1.6651  2.4329
 8921TIP3   OH248253   0.462   1.906   5.446  0.3040  0.4815 -0.4692
 8921TIP3    H148254   0.502   1.853   5.515 -2.3475 -0.9777  0.0479
 8921TIP3    H248255   0.503   1.876   5.365  1.1748 -0.0187  0.1467
 8922TIP3   OH248256   1.193   5.959   3.141 -0.3407 -0.1761  0.1728
 8922TIP3    H148257   1.246   6.006   3.205 -2.1287 -0.2442  1.7577
 8922TIP3    H248258   1.106   5.952   3.180 -1.6633  0.1866 -2.4670
 8923TIP3   OH248259   3.088   3.589  15.043  0.3466 -0.5935 -0.5430
 8923TIP3    H148260   2.993   3.581  15.028  0.1872 -0.1361  0.1894
 8923TIP3    H248261   3.121   3.499  15.032 -0.6624 -1.4443  2.3396
 8924TIP3   OH248262   2.724   1.566   0.686 -0.1269  0.1607 -0.2235
 8924TIP3    H148263   2.655   1.625   0.654 -0.0840  0.2899 -0.0813
 8924TIP3    H248264   2.795   1.624   0.712 -0.7655  0.1874  1.5874
 8925TIP3   OH248265   0.110   2.210  13.597 -0.2851  0.4369 -0.7513
 8925TIP3    H148266   0.087   2.172  13.682 -1.2879 -0.5301 -1.4247
 8925TIP3    H248267   0.199   2.180  13.580  0.4625  1.7998  0.5774
 8926TIP3   OH248268   1.673   5.833  12.420 -0.1716  0.7325  0.1913
 8926TIP3    H148269   1.751   5.815  12.471  0.9256  1.4674 -1.1492
 8926TIP3    H248270   1.631   5.747  12.408  0.6759  0.2615  0.5466
 8927TIP3   OH248271   5.821   4.522   5.912  0.8737  0.3105 -0.4051
 8927TIP3    H148272   5.803   4.438   5.954 -1.8169  1.9101  1.9500
 8927TIP3    H248273   5.889   4.562   5.967 -0.3693  1.0757  0.6254
 8928TIP3   OH248274   2.790   0.107  14.789 -1.0121 -0.2188 -0.1943
 8928TIP3    H148275   2.768   0.016  14.807  0.7176 -0.2749  2.0056
 8928TIP3    H248276   2.735   0.157  14.848 -0.0766 -0.0186  0.5359
 8929TIP3   OH248277   3.114   2.431  16.447 -0.0695 -0.3983  0.7182
 8929TIP3    H148278   3.184   2.428  16.382  0.2601 -2.3766  1.1007
 8929TIP3    H248279   3.053   2.362  16.419 -0.5672 -0.3991  1.7752
 8930TIP3   OH248280   4.274   0.187   3.189  0.1119  0.0275 -0.1649
 8930TIP3    H148281   4.226   0.121   3.140  1.2152 -2.5134  1.9315
 8930TIP3    H248282   4.328   0.137   3.250  0.2900  2.9091  2.2725
 8931TIP3   OH248283   0.390   4.460   0.500  0.4484 -0.2510  0.2973
 8931TIP3    H148284   0.328   4.388   0.512  0.7379 -0.4677  0.5183
 8931TIP3    H248285   0.411   4.459   0.407 -0.6196  0.4453  0.0289
 8932TIP3   OH248286   3.519   1.683   2.632  0.6729 -0.1623 -0.2293
 8932TIP3    H148287   3.503   1.629   2.710  1.1613 -0.0192 -0.0246
 8932TIP3    H248288   3.454   1.754   2.638  0.1147 -0.6469 -0.4314
 8933TIP3   OH248289   2.734   3.541   0.398  0.4570 -0.3119 -0.1392
 8933TIP3    H148290   2.763   3.548   0.489 -1.1097 -1.1911  0.4675
 8933TIP3    H248291   2.788   3.472   0.361  0.0626 -1.0354  0.5975
 8934TIP3   OH248292   6.381   2.121  14.654  0.0753 -0.5524 -0.2935
 8934TIP3    H148293   6.452   2.058  14.667  0.5150 -0.2604 -1.2191
 8934TIP3    H248294   6.379   2.135  14.560 -1.7839 -1.2122 -0.3929
 8935TIP3   OH248295   6.043   1.386   1.196  0.8906 -0.1999 -0.1528
 8935TIP3    H148296   6.103   1.434   1.138 -0.8098  0.9098 -1.0725
 8935TIP3    H248297   5.956   1.411   1.166 -0.0525 -0.6898  2.0348
 8936TIP3   OH248298   5.314   1.586  15.118 -0.4233 -0.0445  0.9185
 8936TIP3    H148299   5.288   1.666  15.164  0.7726  0.1808  1.2279
 8936TIP3    H248300   5.318   1.611  15.026 -1.0182 -0.0178  0.8954
 8937TIP3   OH248301   3.882   0.398   5.039  0.8918 -0.1668  0.2938
 8937TIP3    H148302   3.948   0.329   5.036  0.8901 -0.2509 -3.7708
 8937TIP3    H248303   3.917   0.467   4.982 -0.4798  1.8764  1.8095
 8938TIP3   OH248304   1.348   4.068  11.220  0.0038  0.8810 -0.2908
 8938TIP3    H148305   1.318   4.151  11.183 -0.6211  0.9713  0.4055
 8938TIP3    H248306   1.420   4.041  11.162 -1.2051  0.8108 -1.8061
 8939TIP3   OH248307   0.448   1.071   2.135 -0.1917 -0.0466 -0.1148
 8939TIP3    H148308   0.511   1.122   2.084 -1.9961  2.5601  0.0839
 8939TIP3    H248309   0.435   1.121   2.215 -0.9891 -1.6045  0.7705
 8940TIP3   OH248310   6.615   0.723  12.201 -0.0098  0.4864 -0.3268
 8940TIP3    H148311   6.522   0.709  12.219  0.3745  0.3964  1.8774
 8940TIP3    H248312   6.659   0.650  12.245  1.2486  2.0377  1.1173
 8941TIP3   OH248313   0.876   3.143   6.550  0.1873  0.0904 -0.1923
 8941TIP3    H148314   0.845   3.233   6.545  0.4513  0.1688 -0.4849
 8941TIP3    H248315   0.970   3.150   6.566 -0.1483 -0.1528  2.2120
 8942TIP3   OH248316   5.963   6.493   1.418  0.4779 -0.0563 -0.9580
 8942TIP3    H148317   5.902   6.431   1.458  1.6202 -1.1811 -0.8772
 8942TIP3    H248318   6.000   6.542   1.491  0.8971 -0.5434 -0.8380
 8943TIP3   OH248319   6.024   1.730   4.923 -0.0026  0.7383 -0.4632
 8943TIP3    H148320   6.069   1.803   4.881 -0.6635  0.6453 -1.3578
 8943TIP3    H248321   5.937   1.729   4.883  0.3651 -1.2517 -1.3426
 8944TIP3   OH248322   1.624   3.636   5.386  0.1964  0.2721 -0.2782
 8944TIP3    H148323   1.693   3.624   5.452 -1.0443  1.8362  1.3936
 8944TIP3    H248324   1.662   3.697   5.322  0.6953  0.3921  0.1294
 8945TIP3   OH248325   3.800   0.424   2.600 -0.3653 -0.0717  0.3595
 8945TIP3    H148326   3.814   0.406   2.507  0.6726  4.1329 -0.5336
 8945TIP3    H248327   3.708   0.449   2.606 -0.2912  0.2131  0.3284
 8946TIP3   OH248328   5.362   3.655   1.621  0.2183 -0.0302 -0.0297
 8946TIP3    H148329   5.267   3.662   1.615  0.1083 -1.3196 -0.0308
 8946TIP3    H248330   5.377   3.582   1.682  1.2078  0.3763  0.2399
 8947TIP3   OH248331   1.736   1.301   2.611  0.5581  0.5030  0.2160
 8947TIP3    H148332   1.772   1.345   2.687  1.2348  1.7721 -0.7999
 8947TIP3    H248333   1.704   1.217   2.644  1.4932  0.7236  1.7406
 8948TIP3   OH248334   6.162   1.951   5.143 -0.2380 -0.7705 -0.5709
 8948TIP3    H148335   6.235   1.915   5.092  0.0509  0.3044 -0.9446
 8948TIP3    H248336   6.109   1.997   5.078 -1.3510 -1.6716 -0.3278
 8949TIP3   OH248337   4.049   1.147  17.400 -0.3555 -0.2865  0.0558
 8949TIP3    H148338   3.981   1.213  17.383 -0.1603 -0.4710 -1.6215
 8949TIP3    H248339   4.056   1.099  17.317  2.9416  0.7590 -0.4033
 8950TIP3   OH248340   0.587   5.333   4.077 -0.3328  0.3085  0.0704
 8950TIP3    H148341   0.570   5.380   3.996 -2.2827 -0.4426 -0.0144
 8950TIP3    H248342   0.643   5.392   4.128  1.5954  0.4746 -2.0759
 8951TIP3   OH248343   1.138   1.686   2.803 -0.1802  0.3018 -0.0035
 8951TIP3    H148344   1.213   1.720   2.852  0.9173 -0.6661 -0.9478
 8951TIP3    H248345   1.168   1.685   2.712 -0.8082 -1.4389 -0.2268
 8952TIP3   OH248346   4.798   1.733  17.172 -0.2431  0.3442 -0.3881
 8952TIP3    H148347   4.865   1.773  17.227 -0.1663  0.1842 -0.3640
 8952TIP3    H248348   4.724   1.794  17.176 -0.7188 -0.2545  0.9179
 8953TIP3   OH248349   1.873   5.643  16.722  0.2706  0.3895  1.0676
 8953TIP3    H148350   1.820   5.716  16.690  0.4426  0.8313  1.7773
 8953TIP3    H248351   1.875   5.581  16.649 -1.4355  0.2442  1.0994
 8954TIP3   OH248352   5.273   1.822  11.289  0.4074 -0.4840 -0.1651
 8954TIP3    H148353   5.278   1.912  11.321 -0.6563 -0.2251 -0.6682
 8954TIP3    H248354   5.353   1.810  11.238 -0.6050  1.0945 -2.2709
 8955TIP3   OH248355   4.973   2.696   4.537  0.0140  0.0246 -1.0839
 8955TIP3    H148356   4.884   2.686   4.572 -0.8190  1.2606 -2.6888
 8955TIP3    H248357   5.022   2.739   4.606 -1.0381  0.6399 -0.6993
 8956TIP3   OH248358   6.077   5.191  17.354 -0.5083  0.1227 -0.1786
 8956TIP3    H148359   6.115   5.272  17.390  0.7188 -0.1095 -0.8976
 8956TIP3    H248360   6.045   5.216  17.268  0.9712 -0.3938 -0.9145
 8957TIP3   OH248361   1.696   3.414   1.754  0.0737 -0.0607  0.2978
 8957TIP3    H148362   1.718   3.487   1.697  0.0432  0.6461  1.1634
 8957TIP3    H248363   1.769   3.408   1.815 -0.6475  0.2723  1.2207
 8958TIP3   OH248364   0.271   3.880  16.022  0.0316  0.2926  0.6981
 8958TIP3    H148365   0.201   3.923  16.070 -1.1825 -0.8825  0.0385
 8958TIP3    H248366   0.236   3.794  15.999  1.8450 -0.5055  0.7104
 8959TIP3   OH248367   5.014   5.830  13.845  0.1727  0.1585  0.5541
 8959TIP3    H148368   5.083   5.796  13.902  1.7348  1.1441 -0.6572
 8959TIP3    H248369   4.959   5.754  13.826  0.4086 -0.4710  2.2328
 8960TIP3   OH248370   5.197   4.528  14.054 -0.3300 -0.5797 -0.3269
 8960TIP3    H148371   5.111   4.494  14.032 -0.4966 -0.4761  0.1505
 8960TIP3    H248372   5.240   4.541  13.969  0.0219 -2.6718 -0.5256
 8961TIP3   OH248373   1.730   3.745   1.343  0.0809  0.3878 -0.2580
 8961TIP3    H148374   1.794   3.687   1.301 -0.0434  1.1285 -1.5429
 8961TIP3    H248375   1.685   3.787   1.269 -0.4661  1.4192  0.6420
 8962TIP3   OH248376   2.396   2.442  15.219  0.6419 -0.1957  0.3726
 8962TIP3    H148377   2.310   2.449  15.178  0.5921  1.9046  0.7178
 8962TIP3    H248378   2.387   2.490  15.302  1.8339 -0.9465  0.9645
 8963TIP3   OH248379   3.320   6.487   2.160  0.1313  0.6025 -0.2073
 8963TIP3    H148380   3.324   6.455   2.250 -0.6219 -0.9870 -0.7120
 8963TIP3    H248381   3.406   6.465   2.123 -0.2943 -0.6593 -0.4777
 8964TIP3   OH248382   3.123   4.655   2.938  0.1397  0.2962 -0.0534
 8964TIP3    H148383   3.094   4.730   2.990  1.9254 -0.1422  1.7102
 8964TIP3    H248384   3.050   4.594   2.941 -0.6289  1.1949  0.0465
 8965TIP3   OH248385   4.029   6.465   1.527  0.2229  0.3213 -0.2888
 8965TIP3    H148386   3.944   6.426   1.509  0.5216  0.0671 -1.1741
 8965TIP3    H248387   4.082   6.444   1.450  1.3517 -0.2733  0.6162
 8966TIP3   OH248388   4.255   5.381   3.016 -0.3717  0.2133 -0.5897
 8966TIP3    H148389   4.210   5.345   3.093  1.4029  0.8986  0.8450
 8966TIP3    H248390   4.188   5.430   2.969 -1.1940  1.0339  1.3467
 8967TIP3   OH248391   4.168   5.532  12.354 -0.3559 -0.0999  0.5208
 8967TIP3    H148392   4.090   5.584  12.375  1.2169  3.2767 -1.1621
 8967TIP3    H248393   4.229   5.550  12.426 -0.4431 -1.2606  0.9094
 8968TIP3   OH248394   2.987   0.814   6.511  0.7022  0.0979 -0.2471
 8968TIP3    H148395   2.908   0.840   6.559 -0.1247  0.2896 -1.6521
 8968TIP3    H248396   2.980   0.719   6.502 -0.3477  0.2927 -1.9425
 8969TIP3   OH248397   1.154   4.231   2.677 -0.6361  0.1109 -0.1801
 8969TIP3    H148398   1.158   4.314   2.630 -2.1280  0.9151  1.0068
 8969TIP3    H248399   1.195   4.168   2.619  0.3336  1.6344 -1.2090
 8970TIP3   OH248400   0.069   5.183  17.173 -0.4426 -0.2641 -0.9644
 8970TIP3    H148401   0.117   5.169  17.092 -0.2932 -0.0185 -0.9209
 8970TIP3    H248402  -0.008   5.126  17.166 -0.0154 -0.8533 -0.9220
 8971TIP3   OH248403   1.540   3.290  14.541  0.1654 -0.5367 -0.2348
 8971TIP3    H148404   1.493   3.325  14.466  0.0336 -0.2797 -0.0324
 8971TIP3    H248405   1.627   3.267  14.507  0.0059 -0.6989 -0.5311
 8972TIP3   OH248406   5.137   3.281  16.047 -0.1028  0.1048 -0.0532
 8972TIP3    H148407   5.212   3.247  15.999 -1.3464 -1.2720 -1.1007
 8972TIP3    H248408   5.160   3.269  16.139  0.5183 -1.2943 -0.3799
 8973TIP3   OH248409   5.119   3.535   1.570  0.0055  0.7889 -0.2986
 8973TIP3    H148410   5.072   3.587   1.634  0.5023  1.1203 -0.1984
 8973TIP3    H248411   5.051   3.487   1.522 -0.4954  1.9065 -0.7371
 8974TIP3   OH248412   1.420   2.171  17.284 -0.7757  0.2435  0.1896
 8974TIP3    H148413   1.464   2.194  17.202 -2.1154 -0.4769 -0.7873
 8974TIP3    H248414   1.424   2.250  17.337  0.6868  0.5265 -0.2996
 8975TIP3   OH248415   6.504   2.067   2.989 -0.0028  0.5094 -0.0011
 8975TIP3    H148416   6.558   2.113   3.053  1.4344  0.0085 -0.8036
 8975TIP3    H248417   6.440   2.132   2.960  0.4805  1.2731  0.6158
 8976TIP3   OH248418   3.931   2.209   3.285 -0.2579 -0.1128 -0.6386
 8976TIP3    H148419   3.948   2.155   3.362 -1.3554 -1.4979 -1.3286
 8976TIP3    H248420   3.913   2.146   3.215  2.2857  1.0350 -2.4784
 8977TIP3   OH248421   0.725   2.008   5.203  0.0566  0.3971 -0.3576
 8977TIP3    H148422   0.771   1.995   5.286  0.4821  0.9707 -0.4979
 8977TIP3    H248423   0.780   1.964   5.138 -0.4523 -0.3508 -0.2974
 8978TIP3   OH248424   6.072   0.625  12.471 -0.0111 -0.5567 -0.0041
 8978TIP3    H148425   6.026   0.572  12.406 -0.4854  0.1749 -0.2714
 8978TIP3    H248426   6.165   0.611  12.452 -0.1379 -0.8211 -0.4486
 8979TIP3   OH248427   1.651   4.645   1.873 -0.4789  0.5284 -0.6891
 8979TIP3    H148428   1.565   4.629   1.835 -0.9382  0.2815  0.4191
 8979TIP3    H248429   1.707   4.578   1.836 -1.1604 -0.3537 -0.1619
 8980TIP3   OH248430   6.231   4.873  16.278  0.3088 -0.8230  0.2065
 8980TIP3    H148431   6.236   4.939  16.209  0.1244 -0.7894  0.2235
 8980TIP3    H248432   6.232   4.923  16.359 -0.4694 -0.7961  0.2119
 8981TIP3   OH248433   3.171   3.886   0.871 -0.6158 -0.3481  0.0146
 8981TIP3    H148434   3.224   3.830   0.928 -2.5023 -2.0113  0.2264
 8981TIP3    H248435   3.201   3.865   0.783  0.9168  0.7517  0.2341
 8982TIP3   OH248436   5.604   0.938   5.739  0.2123  0.2916 -0.5348
 8982TIP3    H148437   5.675   0.992   5.773 -0.0942  0.2842  0.1415
 8982TIP3    H248438   5.556   0.997   5.680  1.8815 -0.2528 -2.5653
 8983TIP3   OH248439   2.542   3.659   2.248 -0.2052  0.2784  0.2358
 8983TIP3    H148440   2.624   3.621   2.280 -0.4078 -0.5840 -0.2428
 8983TIP3    H248441   2.490   3.584   2.221 -1.0041  0.8471  0.1641
 8984TIP3   OH248442   5.586   0.480  11.876  0.1688  0.0118 -0.2762
 8984TIP3    H148443   5.629   0.417  11.819  0.0855 -0.9129  0.6535
 8984TIP3    H248444   5.634   0.561  11.863 -0.7539  0.2466 -2.7457
 8985TIP3   OH248445   1.728   4.073  16.164 -0.7058 -0.0892  0.1319
 8985TIP3    H148446   1.769   4.120  16.236  0.8368 -1.4322  0.1904
 8985TIP3    H248447   1.645   4.042  16.199 -0.3566  0.0045  1.0598
 8986TIP3   OH248448   2.293   4.166   4.125  0.4250  0.7501  0.2085
 8986TIP3    H148449   2.374   4.140   4.170  0.3174 -0.2708 -0.1608
 8986TIP3    H248450   2.319   4.176   4.033  0.2293  0.8742  0.1662
 8987TIP3   OH248451   3.851   4.696  15.278  0.5498 -0.3493 -0.0799
 8987TIP3    H148452   3.851   4.617  15.223 -2.3525 -0.3495 -0.2119
 8987TIP3    H248453   3.833   4.768  15.218 -1.0022 -0.1417  0.5928
 8988TIP3   OH248454   1.786   1.375  16.172  0.2447 -0.3237  0.0381
 8988TIP3    H148455   1.735   1.444  16.129  1.5947 -0.4831 -1.9491
 8988TIP3    H248456   1.822   1.323  16.100 -0.8523 -3.2742  1.4383
 8989TIP3   OH248457   0.228   0.971   6.826 -0.1974 -0.0334  0.4851
 8989TIP3    H148458   0.290   1.041   6.848  0.7636 -0.2089 -1.4204
 8989TIP3    H248459   0.144   1.015   6.816 -0.2463  0.3442  2.3056
 8990TIP3   OH248460   3.503   3.924  15.582  0.3187  0.7515 -0.4315
 8990TIP3    H148461   3.411   3.948  15.565 -0.2617 -0.2356  1.1288
 8990TIP3    H248462   3.519   3.954  15.672  1.6321  1.1416 -0.7754
 8991TIP3   OH248463   3.030   3.894  13.970 -0.0502  0.3363 -0.0138
 8991TIP3    H148464   2.962   3.830  13.951 -0.2531 -0.0281  1.7653
 8991TIP3    H248465   2.997   3.977  13.935  0.1088 -0.4373 -2.1288
 8992TIP3   OH248466   4.129   4.958   5.402  0.0644 -0.1846 -0.3048
 8992TIP3    H148467   4.158   4.868   5.393 -0.2053 -0.1516 -1.7186
 8992TIP3    H248468   4.088   4.962   5.488 -0.4876 -1.5628 -0.4859
 8993TIP3   OH248469   6.590   1.840   2.550 -0.0568 -0.0774 -0.7000
 8993TIP3    H148470   6.589   1.858   2.644  0.0936 -0.9033 -0.5314
 8993TIP3    H248471   6.649   1.766   2.541  1.0631  0.8945 -1.6220
 8994TIP3   OH248472   1.376   1.007   1.038  0.3819  0.0274 -0.5218
 8994TIP3    H148473   1.440   1.064   1.080  0.6010  0.2430 -1.1374
 8994TIP3    H248474   1.291   1.045   1.060  0.2106 -1.8247  2.7127
 8995TIP3   OH248475   1.631   0.148   0.073 -0.6351  0.3326 -0.1824
 8995TIP3    H148476   1.676   0.187  -0.001 -1.6366 -0.2572 -1.1383
 8995TIP3    H248477   1.541   0.181   0.066 -1.3008 -1.4667 -0.5461
 8996TIP3   OH248478   6.103   2.004  12.187 -0.0194  0.0646 -0.3419
 8996TIP3    H148479   6.050   2.078  12.157 -0.3083  0.4696  1.0852
 8996TIP3    H248480   6.186   2.044  12.213 -0.3012 -0.0394  0.7714
 8997TIP3   OH248481   1.342   0.087   6.924 -0.0411 -0.4960 -0.6922
 8997TIP3    H148482   1.273   0.151   6.907 -2.0808 -2.1551  0.7224
 8997TIP3    H248483   1.409   0.135   6.973  0.3467  1.3898 -2.8954
 8998TIP3   OH248484   5.982   4.779  15.434  0.0511 -0.0144 -0.7347
 8998TIP3    H148485   5.915   4.770  15.366 -1.0680  1.8478  0.0396
 8998TIP3    H248486   5.953   4.854  15.486  3.8828  2.3835 -1.6961
 8999TIP3   OH248487   0.016   0.708   5.892 -0.0866 -0.0234  0.3677
 8999TIP3    H148488   0.106   0.692   5.921 -0.0285 -1.0526 -0.2965
 8999TIP3    H248489   0.022   0.787   5.838  0.3585  0.1075  0.6024
 9000TIP3   OH248490   4.572   4.013   5.638 -0.4370 -0.4102 -0.3971
 9000TIP3    H148491   4.545   3.950   5.705 -1.1311 -0.1473 -0.4266
 9000TIP3    H248492   4.668   4.015   5.645 -0.5371  0.6395  1.5604
 9001TIP3   OH248493   1.200   4.772  13.270 -0.0613 -0.2297  0.0296
 9001TIP3    H148494   1.203   4.858  13.228  0.1463 -0.0606  0.3794
 9001TIP3    H248495   1.241   4.713  13.207  2.5311  0.4474  0.9324
 9002TIP3   OH248496   4.932   1.080  16.997 -0.4120 -0.0389  0.8776
 9002TIP3    H148497   4.855   1.137  16.992 -0.7654 -0.6070 -0.4832
 9002TIP3    H248498   5.006   1.136  16.973 -0.8317 -0.2678 -1.0287
 9003TIP3   OH248499   4.284   5.279  17.246  0.6892  0.2360 -0.1315
 9003TIP3    H148500   4.244   5.366  17.245  0.3090  0.0773  0.6015
 9003TIP3    H248501   4.332   5.273  17.163 -0.1752  0.7313 -0.6794
 9004TIP3   OH248502   2.390   6.064  11.210 -0.2242  0.3681  0.1456
 9004TIP3    H148503   2.393   5.969  11.210 -2.7347  0.1662 -2.0904
 9004TIP3    H248504   2.353   6.087  11.295  1.9865 -0.4665  1.4047
 9005TIP3   OH248505   0.434   1.310  12.268  0.2326 -0.2347  0.0073
 9005TIP3    H148506   0.387   1.280  12.190  1.9221 -0.1771 -1.0920
 9005TIP3    H248507   0.467   1.229  12.308  0.1064 -0.2047  0.1725
 9006TIP3   OH248508   0.130   2.679  13.511 -0.2352  0.1553  0.1456
 9006TIP3    H148509   0.159   2.770  13.526 -1.1476  0.1257  2.6016
 9006TIP3    H248510   0.209   2.627  13.523 -0.2848  0.4333  2.1489
 9007TIP3   OH248511   0.549   3.954  14.533 -0.3446 -0.4157 -0.1414
 9007TIP3    H148512   0.547   3.912  14.619  0.9052  0.6849  0.4512
 9007TIP3    H248513   0.459   3.983  14.519 -0.9228 -2.0008  0.0469
 9008TIP3   OH248514   3.996   1.974   6.203 -0.2324  0.0155  0.4423
 9008TIP3    H148515   4.041   2.009   6.279 -0.6695 -2.9218  2.1931
 9008TIP3    H248516   3.953   2.049   6.164 -0.4613  1.5721  3.4334
 9009TIP3   OH248517   3.211   3.037  11.669  0.3128 -0.3331 -0.0613
 9009TIP3    H148518   3.224   3.090  11.589  0.3896  0.6058  0.5551
 9009TIP3    H248519   3.218   2.947  11.639  1.2239  0.0168 -0.9825
 9010TIP3   OH248520   1.128   5.289   5.597  0.3005 -0.2111 -0.9438
 9010TIP3    H148521   1.190   5.249   5.536  0.5884  0.9749 -1.4695
 9010TIP3    H248522   1.177   5.297   5.679  0.7631  0.4781 -1.2820
 9011TIP3   OH248523   3.672   1.593  16.576  0.0959 -0.0602 -0.0602
 9011TIP3    H148524   3.751   1.623  16.532 -0.0293 -1.0533 -1.0214
 9011TIP3    H248525   3.646   1.666  16.632  0.7215  0.9569 -1.0464
 9012TIP3   OH248526   2.542   4.445  17.251 -0.0770  0.3304  0.2381
 9012TIP3    H148527   2.601   4.486  17.188  1.0427  1.1808  1.7726
 9012TIP3    H248528   2.473   4.406  17.198  0.1884  2.0256 -1.4345
 9013TIP3   OH248529   1.082   2.797   2.773  0.1017  0.1211  0.2151
 9013TIP3    H148530   1.036   2.714   2.767  0.7899 -0.1913 -0.9643
 9013TIP3    H248531   1.172   2.774   2.796  0.2007  0.5688  0.3016
 9014TIP3   OH248532   1.754   6.736   7.074  0.4287  0.1577  0.3614
 9014TIP3    H148533   1.701   6.814   7.088 -2.3712 -1.7143  0.9218
 9014TIP3    H248534   1.779   6.741   6.982 -1.0617  0.9409 -0.0325
 9015TIP3   OH248535   0.668   0.337   3.821 -0.2421  0.7681  0.1980
 9015TIP3    H148536   0.640   0.256   3.779 -1.1427  0.2437  1.7327
 9015TIP3    H248537   0.621   0.339   3.904  1.3709  1.8227  1.1422
 9016TIP3   OH248538   6.195   0.523   5.839  0.0210 -0.0863 -0.6286
 9016TIP3    H148539   6.290   0.523   5.856  0.1871  0.2868 -1.4946
 9016TIP3    H248540   6.159   0.463   5.904  0.7973  0.1263  0.0170
 9017TIP3   OH248541   5.847   1.546   4.630  0.0886 -0.4686 -0.8858
 9017TIP3    H148542   5.842   1.624   4.575 -0.2556  0.0466 -0.1405
 9017TIP3    H248543   5.894   1.575   4.708 -0.7821 -0.7831 -0.2351
 9018TIP3   OH248544   6.450   6.603  14.532 -0.2369 -0.4636  0.6939
 9018TIP3    H148545   6.537   6.627  14.500 -1.3819  0.4479 -2.0618
 9018TIP3    H248546   6.446   6.508  14.520 -0.0552 -0.3441 -0.4857
 9019TIP3   OH248547   0.052   6.340   3.514 -0.3242  0.2124 -0.0970
 9019TIP3    H148548   0.106   6.272   3.476 -0.3964 -0.0161  0.2098
 9019TIP3    H248549   0.109   6.417   3.518  0.5407 -0.4577  1.7904
 9020TIP3   OH248550   6.729   0.094  14.505 -0.1261  0.0039 -0.0754
 9020TIP3    H148551   6.819   0.062  14.501  0.1474  0.6398  0.7797
 9020TIP3    H248552   6.735   0.187  14.483 -0.6348 -0.0452 -0.4406
 9021TIP3   OH248553   5.243   1.644   2.111 -0.1144  0.2014  0.0376
 9021TIP3    H148554   5.226   1.705   2.039 -0.1254  0.7618  0.5036
 9021TIP3    H248555   5.318   1.683   2.158 -0.3272  0.0267  0.5280
 9022TIP3   OH248556   5.931   5.646   5.462 -0.1355  0.5347 -0.1782
 9022TIP3    H148557   5.917   5.664   5.369 -2.0918  3.7463  0.5655
 9022TIP3    H248558   5.864   5.582   5.485  0.1143  0.0116 -0.8592
 9023TIP3   OH248559   2.471   5.574  16.753 -0.1058  0.4735 -0.3827
 9023TIP3    H148560   2.408   5.623  16.806  1.5540  1.5123  0.7031
 9023TIP3    H248561   2.479   5.624  16.672 -0.5765  0.3864 -0.4880
 9024TIP3   OH248562   2.962   5.632  13.136  0.0463 -0.0627 -0.3750
 9024TIP3    H148563   2.981   5.539  13.120 -0.8472 -0.6186  1.5287
 9024TIP3    H248564   2.867   5.636  13.142  0.1516  0.4640  2.0489
 9025TIP3   OH248565   0.979   2.979  13.310  0.2967  0.3711 -0.7683
 9025TIP3    H148566   0.992   2.920  13.235  1.4757  1.0875 -1.1542
 9025TIP3    H248567   1.034   2.943  13.379 -1.7120 -0.9981  0.2394
 9026TIP3   OH248568   3.737   4.293  14.493  0.4347  0.3046 -0.5782
 9026TIP3    H148569   3.816   4.263  14.539  0.7374  1.0673 -0.5746
 9026TIP3    H248570   3.719   4.225  14.428  2.5361  1.2432 -2.2496
 9027TIP3   OH248571   5.394   0.680   1.854 -0.0074 -0.6482 -0.0424
 9027TIP3    H148572   5.314   0.630   1.873 -0.1731 -0.4941 -0.3276
 9027TIP3    H248573   5.443   0.678   1.936  0.1008 -1.4894 -0.1247
 9028TIP3   OH248574   0.068   5.613   2.154 -0.6309  0.3099 -0.4921
 9028TIP3    H148575   0.132   5.635   2.086 -0.7792  0.9210 -0.4450
 9028TIP3    H248576   0.040   5.698   2.188 -0.3983  0.0112  0.4881
 9029TIP3   OH248577   3.024   4.423   2.233 -0.4415  0.1447 -0.5079
 9029TIP3    H148578   3.016   4.482   2.308 -1.1302 -0.2579 -0.2658
 9029TIP3    H248579   3.097   4.365   2.256 -0.0707  0.5886 -0.5421
 9030TIP3   OH248580   4.016   1.075  15.645  0.2355  0.7016 -0.4678
 9030TIP3    H148581   4.095   1.025  15.627  0.3549 -0.5294  2.8022
 9030TIP3    H248582   3.952   1.010  15.673 -1.4846  1.8535 -1.4917
 9031TIP3   OH248583   3.458   4.171  16.320 -0.9441 -0.6075  0.2301
 9031TIP3    H148584   3.451   4.155  16.226 -1.1918 -2.0506  0.4754
 9031TIP3    H248585   3.388   4.234  16.338  0.2877  1.1959 -0.8265
 9032TIP3   OH248586   1.909   4.319   4.830  0.0009 -0.6110 -0.0045
 9032TIP3    H148587   1.892   4.238   4.878  0.6748 -0.9558 -0.3361
 9032TIP3    H248588   1.979   4.297   4.769  1.4804  0.6788  1.1514
 9033TIP3   OH248589   2.972   1.379  15.482  0.6244  0.6150  0.5834
 9033TIP3    H148590   3.022   1.304  15.449  0.3088  0.0717  1.3033
 9033TIP3    H248591   3.032   1.453  15.475  1.3078  0.1012  0.8149
 9034TIP3   OH248592   2.292   5.701   2.529 -0.5610  0.2687  0.3367
 9034TIP3    H148593   2.199   5.692   2.508 -0.6366 -0.1561  0.8462
 9034TIP3    H248594   2.294   5.759   2.605 -0.4436 -0.1091  0.6244
 9035TIP3   OH248595   1.370   6.035   0.303  0.5729 -0.3732  0.5232
 9035TIP3    H148596   1.371   6.024   0.398 -0.9925  0.3566  0.6625
 9035TIP3    H248597   1.287   6.080   0.285  2.1648  2.1829 -0.9027
 9036TIP3   OH248598   3.898   5.767  14.250 -0.0457 -0.2153  0.4112
 9036TIP3    H148599   3.839   5.832  14.210 -0.6370 -0.0756  1.4571
 9036TIP3    H248600   3.977   5.770  14.196 -0.8687 -0.1704 -0.8349
 9037TIP3   OH248601   0.975   6.388   0.917 -0.8646  0.0858 -0.6100
 9037TIP3    H148602   0.928   6.304   0.918 -0.5476 -0.1007 -1.0836
 9037TIP3    H248603   0.915   6.449   0.874 -1.0304  0.0651 -0.4109
 9038TIP3   OH248604   3.261   4.430   3.057 -0.2378  0.1402 -0.6690
 9038TIP3    H148605   3.235   4.502   3.000 -1.9005 -1.0615 -1.5250
 9038TIP3    H248606   3.193   4.426   3.124 -0.6188 -1.0735 -1.0859
 9039TIP3   OH248607   1.395   0.254  10.822  0.1843  0.2153  0.1673
 9039TIP3    H148608   1.309   0.267  10.862 -0.2967 -0.4916 -0.6029
 9039TIP3    H248609   1.387   0.172  10.773  2.2401 -1.5643  2.5421
 9040TIP3   OH248610   2.369   3.667   2.572  0.3021  0.2428  0.3211
 9040TIP3    H148611   2.439   3.604   2.552 -1.5391 -2.4609  1.7418
 9040TIP3    H248612   2.327   3.684   2.488 -0.4728 -2.1918  0.1537
 9041TIP3   OH248613   1.222   3.202  12.841  0.3226  0.2142  0.2322
 9041TIP3    H148614   1.170   3.251  12.905  1.2390  0.6750  0.6447
 9041TIP3    H248615   1.229   3.261  12.766 -2.4698 -1.0797 -1.2177
 9042TIP3   OH248616   0.442   3.944   5.567 -0.6224  0.7415 -0.2541
 9042TIP3    H148617   0.386   3.875   5.530  2.2189 -1.2559 -1.1943
 9042TIP3    H248618   0.400   3.968   5.649 -3.1266 -0.1838 -1.1857
 9043TIP3   OH248619   3.036   3.325  11.665 -0.0212  0.0574  0.0610
 9043TIP3    H148620   2.992   3.299  11.584  0.5609 -1.0098  0.0661
 9043TIP3    H248621   3.011   3.417  11.677 -1.3528 -0.1966 -0.5054
 9044TIP3   OH248622   3.298   4.314  13.404 -0.1449  0.0518  0.1313
 9044TIP3    H148623   3.288   4.375  13.331 -1.5276 -0.9322 -0.5472
 9044TIP3    H248624   3.375   4.262  13.380 -0.1710  0.1942 -0.2768
 9045TIP3   OH248625   6.376   6.602  11.724  0.1339 -0.0018 -0.0968
 9045TIP3    H148626   6.309   6.555  11.772 -0.2354  2.5659  2.1473
 9045TIP3    H248627   6.328   6.654  11.660  0.1399  0.4865  0.2925
 9046TIP3   OH248628   2.459   2.078   4.490 -0.2384  0.1160 -1.1360
 9046TIP3    H148629   2.401   2.059   4.416 -0.7936 -2.9447 -0.0562
 9046TIP3    H248630   2.402   2.123   4.553 -0.0722  1.6406 -2.0280
 9047TIP3   OH248631   6.222   4.808   2.944  0.5348 -0.1395 -0.0157
 9047TIP3    H148632   6.285   4.790   2.875  2.5100 -2.4930  2.1795
 9047TIP3    H248633   6.137   4.806   2.900  1.7749  0.2900 -2.6252
 9048TIP3   OH248634   5.077   4.247  16.223 -0.2000 -0.1836 -0.0107
 9048TIP3    H148635   5.042   4.316  16.167 -0.3437 -0.5406 -0.3686
 9048TIP3    H248636   5.002   4.188  16.237 -0.7511  0.9357  2.2252
 9049TIP3   OH248637   1.998   4.038  12.028 -0.2443  0.3742 -0.6101
 9049TIP3    H148638   1.917   3.991  12.047 -0.4719  0.3897 -1.4815
 9049TIP3    H248639   2.060   3.970  12.001  0.1778  0.3117  0.4624
 9050TIP3   OH248640   5.304   3.710  12.227  0.4119 -0.0241 -0.4160
 9050TIP3    H148641   5.360   3.785  12.209  0.9589 -0.7460 -1.9839
 9050TIP3    H248642   5.254   3.697  12.146  0.5385 -1.4881 -0.2992
 9051TIP3   OH248643   5.936   1.594  16.780 -0.1143  0.3344  0.6079
 9051TIP3    H148644   5.852   1.589  16.735  0.1771  0.4932  0.0368
 9051TIP3    H248645   5.989   1.652  16.725  1.2486 -1.7855 -0.4755
 9052TIP3   OH248646   3.998   5.251   0.752  0.4469 -0.1702 -0.6376
 9052TIP3    H148647   4.021   5.311   0.823 -1.8968 -0.7658  0.7329
 9052TIP3    H248648   3.995   5.306   0.674 -0.7149  1.3401  0.4175
 9053TIP3   OH248649   3.139   3.053   3.231 -0.6416  0.0067  0.2241
 9053TIP3    H148650   3.149   3.044   3.136  2.1354  2.6210  0.1145
 9053TIP3    H248651   3.223   3.025   3.267 -1.7499 -1.2460  2.0356
 9054TIP3   OH248652   5.577   5.692   0.111  0.3199 -0.2978  0.2119
 9054TIP3    H148653   5.666   5.660   0.127  0.5167 -0.7493 -1.5623
 9054TIP3    H248654   5.574   5.776   0.157  1.8183 -0.0795 -0.0203
 9055TIP3   OH248655   3.133   0.509  12.344  0.0603 -0.3404 -0.8154
 9055TIP3    H148656   3.163   0.426  12.306 -2.2407 -2.2301  1.2212
 9055TIP3    H248657   3.169   0.509  12.433 -0.2881  0.6652 -0.6619
 9056TIP3   OH248658   3.094   1.638   5.600 -0.0236 -0.2107  0.5470
 9056TIP3    H148659   3.003   1.637   5.568 -0.1854 -0.1433  1.0052
 9056TIP3    H248660   3.124   1.727   5.582  0.4653 -0.6531 -1.0220
 9057TIP3   OH248661   2.618   4.926  11.344  0.3979  0.0043 -0.4242
 9057TIP3    H148662   2.571   4.890  11.269  0.4089  1.8902 -1.3828
 9057TIP3    H248663   2.705   4.886  11.339 -0.2319 -1.4786 -0.1653
 9058TIP3   OH248664   5.895   1.036   2.278  0.2004  0.2200 -0.5803
 9058TIP3    H148665   5.922   0.968   2.340  1.2051  0.3662 -0.8377
 9058TIP3    H248666   5.856   0.987   2.205  0.1424 -0.0217 -0.3903
 9059TIP3   OH248667   3.046   4.015   3.988  0.2559 -0.4332 -0.2622
 9059TIP3    H148668   3.097   3.942   4.023  0.6546  0.2291  0.5942
 9059TIP3    H248669   2.955   3.993   4.007  0.4370 -0.3054  0.8040
 9060TIP3   OH248670   6.412   1.892  11.435  0.6890 -0.2031  0.2013
 9060TIP3    H148671   6.433   1.985  11.446  1.0609 -0.2992  0.3305
 9060TIP3    H248672   6.371   1.867  11.517  2.3566 -0.6217  0.9490
 9061TIP3   OH248673   1.742   0.581   5.940  0.0439 -0.0993  0.3652
 9061TIP3    H148674   1.751   0.630   6.022  1.6899 -0.7986  0.6525
 9061TIP3    H248675   1.791   0.633   5.876 -0.5884  0.0534  0.0011
 9062TIP3   OH248676   2.079   1.478  15.985  1.1710 -0.1085  0.0761
 9062TIP3    H148677   2.075   1.510  16.076  0.3234 -1.4168  0.5225
 9062TIP3    H248678   2.173   1.482  15.963  1.2442  1.4473  0.5285
 9063TIP3   OH248679   3.804   1.661  10.965  0.6174  0.4462  0.1236
 9063TIP3    H148680   3.889   1.691  10.933  0.3119  2.3648  1.0155
 9063TIP3    H248681   3.784   1.717  11.040 -1.3105 -0.1652  0.1374
 9064TIP3   OH248682   4.513   2.253   2.784 -0.5147 -0.0541 -0.2331
 9064TIP3    H148683   4.488   2.276   2.873 -0.7116 -1.5672  0.1300
 9064TIP3    H248684   4.431   2.237   2.739 -0.3699 -0.8114 -0.2411
 9065TIP3   OH248685   2.379   2.603  13.840  0.1608 -0.0687 -0.1587
 9065TIP3    H148686   2.288   2.598  13.868 -0.4476  0.2684 -1.9590
 9065TIP3    H248687   2.385   2.685  13.792  1.2552 -0.3935 -0.6112
 9066TIP3   OH248688   6.536   2.663  17.389  0.2374  0.7478  0.1097
 9066TIP3    H148689   6.509   2.633  17.476  0.3575 -0.9638 -0.4169
 9066TIP3    H248690   6.484   2.611  17.328  2.7029 -0.6748 -0.8867
 9067TIP3   OH248691   6.138   5.585   0.733  0.1835  0.0929  0.0658
 9067TIP3    H148692   6.140   5.669   0.686  2.2864 -0.5636 -1.1360
 9067TIP3    H248693   6.048   5.554   0.721 -0.3887  1.7275 -0.2442
 9068TIP3   OH248694   4.733   4.444   5.695 -0.4703 -0.0151  0.4043
 9068TIP3    H148695   4.824   4.464   5.675 -0.7005 -0.5734 -1.4343
 9068TIP3    H248696   4.735   4.405   5.783  1.5809 -3.1253 -0.8298
 9069TIP3   OH248697   0.360   3.398   0.004  0.0028  0.6755 -0.0202
 9069TIP3    H148698   0.424   3.355   0.060 -2.4916 -1.0741  1.6999
 9069TIP3    H248699   0.320   3.465   0.059 -3.1542 -1.6906  0.8689
 9070TIP3   OH248700   3.834   4.527   3.611 -0.4130  0.2898  0.5713
 9070TIP3    H148701   3.741   4.520   3.587  0.4230 -1.6913 -2.7292
 9070TIP3    H248702   3.871   4.587   3.546  0.7033  0.8605  1.6851
 9071TIP3   OH248703   2.779   3.382   5.063 -0.0661  0.8315  0.5591
 9071TIP3    H148704   2.845   3.450   5.046 -0.6983  1.0108 -1.3947
 9071TIP3    H248705   2.829   3.301   5.067  0.4379  1.1389  0.6688
 9072TIP3   OH248706   4.970   2.322   3.854  0.1698  0.1883  0.4621
 9072TIP3    H148707   4.957   2.262   3.928  0.0449 -1.7166 -1.0352
 9072TIP3    H248708   5.020   2.394   3.891  1.1092 -1.2531  2.1705
 9073TIP3   OH248709   5.368   3.978  14.919 -0.5137 -0.1192  0.3334
 9073TIP3    H148710   5.379   4.011  15.008  0.3566  0.8282 -0.1096
 9073TIP3    H248711   5.333   4.053  14.870  2.2969  0.4982 -0.8864
 9074TIP3   OH248712   4.629   1.484  14.714  0.2918  0.0898  0.5053
 9074TIP3    H148713   4.578   1.443  14.644  1.1154  0.3047 -0.2395
 9074TIP3    H248714   4.711   1.435  14.716 -0.0842 -0.5226  1.9735
 9075TIP3   OH248715   0.141   2.219   1.760 -1.0890 -0.6110  0.2349
 9075TIP3    H148716   0.197   2.261   1.694 -0.4341 -1.8415 -0.0111
 9075TIP3    H248717   0.138   2.283   1.832  0.7604 -0.5538  0.3278
 9076TIP3   OH248718   4.636   3.419   0.962  0.0925 -0.5065  1.0167
 9076TIP3    H148719   4.564   3.481   0.974 -0.9076 -1.4724  0.1163
 9076TIP3    H248720   4.715   3.471   0.980 -0.6101  1.3917 -0.9706
 9077TIP3   OH248721   5.988   4.863   1.685  0.5477 -0.3100 -0.0403
 9077TIP3    H148722   5.962   4.775   1.712 -0.1444 -0.5731 -1.4855
 9077TIP3    H248723   6.043   4.895   1.757  2.4229 -2.6481 -0.3434
 9078TIP3   OH248724   1.318   5.440   0.325  0.1146 -0.4185  0.2359
 9078TIP3    H148725   1.278   5.483   0.249  0.2816 -0.9103 -0.1392
 9078TIP3    H248726   1.326   5.349   0.298  0.2408 -0.5805  0.8260
 9079TIP3   OH248727   3.419   6.515   6.048 -0.2250 -0.1050  0.6553
 9079TIP3    H148728   3.469   6.591   6.080 -0.1671  0.1564 -0.0295
 9079TIP3    H248729   3.486   6.453   6.019 -0.2636 -0.5793  1.5451
 9080TIP3   OH248730   0.192   6.131   3.440  0.1793  0.0491 -0.0634
 9080TIP3    H148731   0.281   6.095   3.438 -0.3836 -1.7504  2.5200
 9080TIP3    H248732   0.153   6.103   3.357  1.3781 -0.9399 -0.3209
 9081TIP3   OH248733   5.073   2.094  11.119  1.3277  0.3004 -0.4441
 9081TIP3    H148734   5.029   2.055  11.043  0.5763 -0.0581  0.1637
 9081TIP3    H248735   5.043   2.042  11.194  2.3878  0.3792  0.0611
 9082TIP3   OH248736   1.516   5.437   5.163 -0.1109  0.2514 -0.5972
 9082TIP3    H148737   1.443   5.377   5.150 -0.3268  0.8780 -2.5958
 9082TIP3    H248738   1.550   5.414   5.249 -1.2510 -1.5626 -0.5664
 9083TIP3   OH248739   2.481   1.692   5.279  1.1167 -0.1103 -0.1959
 9083TIP3    H148740   2.576   1.678   5.275  1.2185  0.3722  0.4565
 9083TIP3    H248741   2.453   1.642   5.355  0.9673  0.3803  0.0759
 9084TIP3   OH248742   6.479   4.771  13.293 -0.3009 -0.4126  0.5881
 9084TIP3    H148743   6.401   4.803  13.339 -0.5119 -1.1502  0.7541
 9084TIP3    H248744   6.552   4.817  13.334 -0.5527 -0.5443  1.1936
 9085TIP3   OH248745   3.711   1.283   2.460  0.6278 -0.3504  0.6821
 9085TIP3    H148746   3.631   1.230   2.453  0.1725  0.1209  2.0637
 9085TIP3    H248747   3.782   1.220   2.458  0.1310 -0.9384  1.3704
 9086TIP3   OH248748   0.224   4.012   6.282  0.2559  0.1153 -0.6620
 9086TIP3    H148749   0.184   4.099   6.286  1.3493  0.5983  1.2591
 9086TIP3    H248750   0.152   3.952   6.298 -0.3251  0.7285 -0.9143
 9087TIP3   OH248751   6.251   5.177   2.636  0.3659 -0.4255 -0.2477
 9087TIP3    H148752   6.301   5.252   2.668  0.7756 -0.7044 -0.2327
 9087TIP3    H248753   6.185   5.162   2.705  1.7377 -1.5125  0.8987
 9088TIP3   OH248754   6.645   2.708   3.235 -0.0349 -0.5253  0.2617
 9088TIP3    H148755   6.642   2.803   3.248  0.4282 -0.4220 -0.3176
 9088TIP3    H248756   6.670   2.697   3.143 -0.2629 -1.2117  0.2711
 9089TIP3   OH248757   1.801   3.907   5.540  0.7246  0.2330  0.4264
 9089TIP3    H148758   1.895   3.891   5.545  0.3166 -2.6542  1.3274
 9089TIP3    H248759   1.776   3.878   5.453  0.5189 -0.1309  0.6047
 9090TIP3   OH248760   3.674   3.296   8.091 -0.2459 -0.0255 -0.1842
 9090TIP3    H148761   3.671   3.348   8.171 -1.0196 -1.7133  0.9247
 9090TIP3    H248762   3.699   3.209   8.120 -1.0252 -0.7913 -1.7157
 9091TIP3   OH248763   0.001   3.727   6.123 -0.2209  0.8276  0.2710
 9091TIP3    H148764  -0.070   3.781   6.156 -1.3864  0.3026 -1.2622
 9091TIP3    H248765  -0.039   3.671   6.056  1.5735  0.3449 -0.4839
 9092TIP3   OH248766   2.495   6.276   1.908 -0.2834  0.0060  0.6014
 9092TIP3    H148767   2.566   6.294   1.969  0.4930  0.2219 -0.3401
 9092TIP3    H248768   2.421   6.326   1.942  0.1759  0.2514  1.2679
 9093TIP3   OH248769   2.669   5.087   5.625 -1.1930  0.2955 -0.0477
 9093TIP3    H148770   2.620   5.158   5.584 -0.5954  1.2697  0.8472
 9093TIP3    H248771   2.654   5.011   5.569 -0.7467  1.4507 -1.8103
 9094TIP3   OH248772   0.307   3.594  16.817 -0.3470 -0.0365  0.5733
 9094TIP3    H148773   0.273   3.677  16.852  2.0287 -0.0682  3.3682
 9094TIP3    H248774   0.392   3.617  16.780 -0.7545 -0.8518 -0.9223
 9095TIP3   OH248775   4.497   6.721   1.930  0.0359 -0.3174 -0.1592
 9095TIP3    H148776   4.426   6.780   1.954  0.1356  0.0202 -0.6801
 9095TIP3    H248777   4.455   6.635   1.922 -0.7345  0.2184 -2.4748
 9096TIP3   OH248778   0.956   5.247   5.402  0.2893  0.1851  0.3921
 9096TIP3    H148779   0.900   5.324   5.409 -1.8815 -1.3323  0.5163
 9096TIP3    H248780   1.015   5.253   5.477 -0.8045  0.9902  1.2079
 9097TIP3   OH248781   3.282   1.668   2.998  0.3276  0.8599  0.2042
 9097TIP3    H148782   3.377   1.671   3.000  0.3106  1.1186  0.8881
 9097TIP3    H248783   3.255   1.684   3.089 -0.3718  1.1243 -0.0420
 9098TIP3   OH248784   1.019   1.281  15.494 -0.3101  0.2853  0.1693
 9098TIP3    H148785   0.929   1.299  15.521 -0.3443 -0.3383  0.4974
 9098TIP3    H248786   1.063   1.253  15.574  0.3665  1.2517  0.1525
 9099TIP3   OH248787   1.259   4.292   3.028  0.0213  0.0097 -0.5015
 9099TIP3    H148788   1.226   4.211   3.067 -0.1607 -0.5567 -1.7742
 9099TIP3    H248789   1.336   4.315   3.080 -0.8016 -0.1321  0.8229
 9100TIP3   OH248790   4.690   5.774   1.726  0.3771 -0.1300 -0.2842
 9100TIP3    H148791   4.734   5.796   1.808  0.4582 -0.5061 -0.2253
 9100TIP3    H248792   4.628   5.705   1.750  0.6212 -0.4580 -0.5983
 9101TIP3   OH248793   5.979   2.432   6.105 -0.6995 -0.1216 -0.5449
 9101TIP3    H148794   5.962   2.338   6.108 -3.0315  0.2708 -0.0306
 9101TIP3    H248795   6.055   2.440   6.047 -0.7228 -2.2713 -0.9659
 9102TIP3   OH248796   6.659   4.412   3.959 -0.4171 -0.9494 -0.2717
 9102TIP3    H148797   6.717   4.424   3.885 -0.9016 -0.4998 -0.5838
 9102TIP3    H248798   6.717   4.391   4.032  0.1043 -0.8459 -0.6533
 9103TIP3   OH248799   5.553   6.716  16.363  0.2873 -0.1352  0.4053
 9103TIP3    H148800   5.592   6.671  16.439 -0.6951  0.5641  1.3586
 9103TIP3    H248801   5.610   6.791  16.348  0.5680 -0.3560  0.3540
 9104TIP3   OH248802   5.576   4.081   6.096 -0.3202 -0.4797 -0.1130
 9104TIP3    H148803   5.574   3.995   6.054  0.4453 -0.5523 -0.0031
 9104TIP3    H248804   5.485   4.110   6.092 -0.1521 -0.0170 -2.7711
 9105TIP3   OH248805   2.945   5.118   4.574 -0.1892 -0.6927 -0.1867
 9105TIP3    H148806   2.878   5.104   4.507  0.4801  1.6252 -1.4520
 9105TIP3    H248807   3.002   5.042   4.569 -0.1924 -0.6035 -2.2486
 9106TIP3   OH248808   5.014   3.243  13.916  0.6290  0.2512 -0.2575
 9106TIP3    H148809   4.937   3.269  13.865 -0.2424 -1.0434  0.3499
 9106TIP3    H248810   4.978   3.205  13.996  1.9096 -0.2361  0.1100
 9107TIP3   OH248811   6.331   3.404  16.213 -0.0850 -0.0648  0.6432
 9107TIP3    H148812   6.308   3.432  16.125  0.1989 -0.3434  0.4780
 9107TIP3    H248813   6.363   3.314  16.203  2.2918  0.6958  0.6560
 9108TIP3   OH248814   1.163   0.296   2.443  0.4192  0.2200 -0.5386
 9108TIP3    H148815   1.080   0.259   2.471  2.5168 -4.5967  0.3074
 9108TIP3    H248816   1.205   0.326   2.524  0.1641  1.3110 -0.7871
 9109TIP3   OH248817   1.836   1.553   2.451  0.1893 -0.4983 -0.3449
 9109TIP3    H148818   1.754   1.536   2.497  0.4796  0.0807  0.4185
 9109TIP3    H248819   1.902   1.506   2.501  0.4249 -0.3809 -0.5433
 9110TIP3   OH248820   3.083   6.036   0.894  0.0981  0.0207  0.1237
 9110TIP3    H148821   2.999   6.033   0.847 -0.0722  0.0862  0.4169
 9110TIP3    H248822   3.077   6.114   0.948 -0.2917 -0.7898  1.3071
 9111TIP3   OH248823   3.497   2.697   3.684  0.4900  0.2834  0.2308
 9111TIP3    H148824   3.408   2.731   3.682  0.4998  0.2890 -0.1612
 9111TIP3    H248825   3.492   2.613   3.638  0.6271  0.1395  0.4760
 9112TIP3   OH248826   6.768   1.376   5.180  0.1038  0.4501  0.6438
 9112TIP3    H148827   6.776   1.289   5.218  0.4962  0.9084  1.6373
 9112TIP3    H248828   6.683   1.374   5.134 -0.7045  0.0719  2.0817
 9113TIP3   OH248829   1.812   3.005  17.271 -0.0600  0.2650  0.3088
 9113TIP3    H148830   1.888   2.973  17.320 -0.5658  0.1867  1.0598
 9113TIP3    H248831   1.770   3.067  17.330 -0.8315 -0.0298  0.0777
 9114TIP3   OH248832   1.154   2.437   4.511  0.1950 -0.6797 -0.0508
 9114TIP3    H148833   1.106   2.387   4.578 -1.1917 -0.7745 -1.0679
 9114TIP3    H248834   1.215   2.491   4.561 -0.2712 -1.3101  1.2520
 9115TIP3   OH248835   1.595   2.907  15.104  0.4019  0.1787 -0.2474
 9115TIP3    H148836   1.631   2.846  15.040  0.0152 -1.4850  1.0555
 9115TIP3    H248837   1.665   2.918  15.168 -0.4573 -1.0886  0.9618
 9116TIP3   OH248838   2.864   0.404  14.130 -0.1682 -0.3231 -0.1500
 9116TIP3    H148839   2.956   0.400  14.105  0.4576  0.4190  1.8383
 9116TIP3    H248840   2.862   0.465  14.204 -2.1497 -0.8263  0.2677
 9117TIP3   OH248841   6.470   1.534  11.325 -0.3602  0.1433 -0.5388
 9117TIP3    H148842   6.531   1.607  11.321 -0.1906  0.0146 -0.3482
 9117TIP3    H248843   6.412   1.546  11.250 -0.2062  0.3598 -0.6226
 9118TIP3   OH248844   3.121   6.454   1.950  0.0443  0.3483 -0.0788
 9118TIP3    H148845   3.093   6.384   2.008 -2.3158  1.0504 -0.2575
 9118TIP3    H248846   3.119   6.533   2.004  1.2006  0.5229 -0.2613
 9119TIP3   OH248847   5.551   5.829  16.169 -0.0881  0.4328  0.1616
 9119TIP3    H148848   5.572   5.895  16.103 -1.2973  1.0706  0.3800
 9119TIP3    H248849   5.560   5.745  16.124  2.1313  0.6811  0.0655
 9120TIP3   OH248850   6.215   0.290  14.766 -0.7247 -0.0922  0.0594
 9120TIP3    H148851   6.128   0.251  14.780  0.2407 -2.5059 -0.1089
 9120TIP3    H248852   6.238   0.263  14.677 -0.2861  1.6156 -0.3797
 9121TIP3   OH248853   1.860   3.196  14.816  0.2608 -0.3149  0.9429
 9121TIP3    H148854   1.798   3.269  14.821  0.7582  0.1268  0.6526
 9121TIP3    H248855   1.811   3.126  14.773  0.7002  0.8243 -1.5376
 9122TIP3   OH248856   4.302   5.639  14.549 -0.0879 -0.6198  0.0667
 9122TIP3    H148857   4.289   5.693  14.471  0.9748 -0.4890 -0.0462
 9122TIP3    H248858   4.215   5.606  14.571 -0.2829 -1.3952 -1.6946
 9123TIP3   OH248859   3.466   0.133  13.781  0.0521  0.0345 -0.1744
 9123TIP3    H148860   3.411   0.197  13.736  0.8584  0.3389 -0.7628
 9123TIP3    H248861   3.419   0.112  13.862 -1.6491 -0.8611 -1.3451
 9124TIP3   OH248862   4.247   6.641  11.915 -0.1368  0.0223 -0.1123
 9124TIP3    H148863   4.250   6.633  12.010 -1.1739 -0.3238 -0.0905
 9124TIP3    H248864   4.199   6.722  11.899 -3.7993 -1.9438 -0.2658
 9125TIP3   OH248865   0.721   3.311  11.881  0.0431 -0.1663 -0.2193
 9125TIP3    H148866   0.748   3.221  11.860  0.5948  0.3185 -1.7839
 9125TIP3    H248867   0.776   3.365  11.825 -0.7925  1.1202  0.1715
 9126TIP3   OH248868   3.539   1.596   6.106 -0.0073 -0.5359 -0.3669
 9126TIP3    H148869   3.507   1.673   6.153 -0.8305 -0.6522 -0.7313
 9126TIP3    H248870   3.598   1.632   6.040  0.2930 -0.2894  0.0265
 9127TIP3   OH248871   0.837   4.381   0.265 -0.3835 -0.4721 -0.5667
 9127TIP3    H148872   0.862   4.454   0.208  1.2420 -0.4960  0.0812
 9127TIP3    H248873   0.919   4.335   0.283 -1.4534 -3.0166 -1.6642
 9128TIP3   OH248874   1.460   0.817  17.016  0.3186 -0.4296  0.2216
 9128TIP3    H148875   1.479   0.867  16.937 -1.1351  0.0931  0.1676
 9128TIP3    H248876   1.531   0.754  17.022  2.5767  1.9500  0.5879
 9129TIP3   OH248877   6.641   4.637  10.894  0.7817  0.8371  0.1063
 9129TIP3    H148878   6.682   4.568  10.945 -0.9206 -0.5796 -0.3342
 9129TIP3    H248879   6.702   4.711  10.900  2.4361 -0.5218  0.9899
 9130TIP3   OH248880   6.488   4.314  15.222  0.2728 -0.0795  0.2649
 9130TIP3    H148881   6.409   4.298  15.272  0.6300 -3.3773  0.0043
 9130TIP3    H248882   6.460   4.367  15.148 -1.0590  1.2822  1.6955
 9131TIP3   OH248883   6.426   3.339  12.576  0.0707 -0.4184  0.0754
 9131TIP3    H148884   6.406   3.260  12.525  0.0312 -1.3215  1.4294
 9131TIP3    H248885   6.521   3.337  12.588  0.3409  0.8260 -1.5408
 9132TIP3   OH248886   1.693   1.038   1.526 -0.0219 -0.6486  0.3649
 9132TIP3    H148887   1.743   1.033   1.444 -2.8745  0.1046 -1.5653
 9132TIP3    H248888   1.754   1.006   1.593  3.1771  0.6750 -1.6584
 9133TIP3   OH248889   0.176   6.047  16.855 -0.0461 -0.2608  0.3281
 9133TIP3    H148890   0.233   6.054  16.932  0.9228  0.2704 -0.4158
 9133TIP3    H248891   0.087   6.050  16.891  0.3267  2.3078  1.2609
 9134TIP3   OH248892   5.852   5.694   5.204  0.3030  0.3913  0.0694
 9134TIP3    H148893   5.919   5.740   5.153  1.3765 -0.5012  0.6140
 9134TIP3    H248894   5.778   5.685   5.144  0.7588  1.1810 -0.6389
 9135TIP3   OH248895   3.912   2.528   2.199 -0.6132  0.1413  0.0326
 9135TIP3    H148896   3.926   2.508   2.107  1.4472 -0.5235  0.4425
 9135TIP3    H248897   3.941   2.618   2.209 -0.4912  0.0944  0.1020
 9136TIP3   OH248898   0.112   4.757  11.749 -0.1239  0.5326 -0.3758
 9136TIP3    H148899   0.084   4.831  11.695 -1.6452  0.9569  0.9238
 9136TIP3    H248900   0.039   4.695  11.745  0.3177 -0.0351  0.1079
 9137TIP3   OH248901   4.930   5.996   4.492 -0.0912 -0.2440  0.5113
 9137TIP3    H148902   4.981   6.074   4.513 -0.2338 -0.1053  0.3495
 9137TIP3    H248903   4.941   5.938   4.568  1.7742 -0.9793 -0.2308
 9138TIP3   OH248904   2.185   6.099  13.455  0.7682  0.5198 -0.2570
 9138TIP3    H148905   2.168   6.181  13.409  0.1274  0.8449  0.5248
 9138TIP3    H248906   2.276   6.106  13.485  0.5748  1.1576  0.2037
 9139TIP3   OH248907   2.852   2.431  11.786 -0.1505 -0.7253 -0.1497
 9139TIP3    H148908   2.931   2.378  11.796 -0.5759 -1.3734 -0.1781
 9139TIP3    H248909   2.856   2.494  11.857  0.4210 -0.7229 -0.1829
 9140TIP3   OH248910   0.986   5.070   3.821 -0.3916 -0.0745  0.1955
 9140TIP3    H148911   1.013   5.155   3.785 -0.1120 -0.5988 -0.8690
 9140TIP3    H248912   0.933   5.092   3.897  3.0796  1.0341  2.5079
 9141TIP3   OH248913   4.286   0.898   4.504 -0.0237  0.0654  0.4962
 9141TIP3    H148914   4.337   0.817   4.504  0.4506  0.3004 -1.5251
 9141TIP3    H248915   4.343   0.963   4.545  0.5074 -0.1286  0.0733
 9142TIP3   OH248916   4.545   3.023  14.876 -0.9937 -0.5333  0.0159
 9142TIP3    H148917   4.458   3.029  14.838 -0.8865 -0.6640 -0.2501
 9142TIP3    H248918   4.574   2.934  14.858 -1.3005 -0.8986  1.1990
 9143TIP3   OH248919   2.743   2.833   2.325  0.1303 -0.1330  0.7131
 9143TIP3    H148920   2.708   2.757   2.278  3.1960 -1.1209 -0.2552
 9143TIP3    H248921   2.719   2.818   2.416 -0.5864 -1.5017  0.3268
 9144TIP3   OH248922   6.080   4.597   4.320  0.3000  0.3051 -0.4097
 9144TIP3    H148923   6.091   4.644   4.237  0.9641  2.2353  0.7164
 9144TIP3    H248924   5.988   4.570   4.320 -0.7800  3.5279 -0.2332
 9145TIP3   OH248925   0.826   4.743   2.654  0.0698 -0.3596  0.6184
 9145TIP3    H148926   0.880   4.696   2.717  2.0038 -2.1963 -2.1518
 9145TIP3    H248927   0.890   4.784   2.594 -1.6198  0.3801 -0.7814
 9146TIP3   OH248928   4.144   0.749   1.713  0.7752 -0.0488 -0.5499
 9146TIP3    H148929   4.155   0.699   1.793 -0.9292  0.9543  0.3688
 9146TIP3    H248930   4.176   0.837   1.734 -0.5475  0.4755 -0.6372
 9147TIP3   OH248931   0.812   6.289   4.539  0.0274  0.4269  0.2168
 9147TIP3    H148932   0.817   6.349   4.465 -1.3096  1.1060  0.6485
 9147TIP3    H248933   0.728   6.308   4.581  0.0845 -0.9542  1.0487
 9148TIP3   OH248934   4.816   3.515  16.855  0.0546 -0.2190  0.3996
 9148TIP3    H148935   4.848   3.592  16.902 -0.7697  0.3115  0.1078
 9148TIP3    H248936   4.724   3.508  16.880 -0.2838 -0.1883 -0.7946
 9149TIP3   OH248937   4.302   2.608   5.822  0.2818  0.2573  0.3086
 9149TIP3    H148938   4.304   2.684   5.764  0.7534  0.3574  0.4525
 9149TIP3    H248939   4.234   2.551   5.785  0.2417  0.5429 -0.0592
 9150TIP3   OH248940   0.527   5.896  17.157 -0.1709  0.0434 -0.4736
 9150TIP3    H148941   0.519   5.802  17.139  0.3796  0.2601 -1.9181
 9150TIP3    H248942   0.591   5.928  17.094 -1.7212  1.7401 -1.2868
 9151TIP3   OH248943   2.968   5.424   2.473 -0.2920  0.6008 -0.0282
 9151TIP3    H148944   2.909   5.349   2.464  1.1829 -0.4117 -2.1753
 9151TIP3    H248945   2.916   5.499   2.447 -0.9990 -0.1017 -0.6838
 9152TIP3   OH248946   0.702   5.355   5.449 -0.2577  0.0121 -0.3029
 9152TIP3    H148947   0.645   5.390   5.380  0.6608 -0.3517 -1.2842
 9152TIP3    H248948   0.735   5.432   5.495  1.1565  0.4681 -1.9633
 9153TIP3   OH248949   3.750   0.834  13.877 -0.7536 -0.2622  0.3492
 9153TIP3    H148950   3.684   0.779  13.834 -0.6352 -0.2504  0.1527
 9153TIP3    H248951   3.821   0.774  13.899 -1.1481 -0.4210  1.2449
 9154TIP3   OH248952   2.609   3.076   1.183  0.0354 -0.2985  0.3630
 9154TIP3    H148953   2.669   3.025   1.128 -1.2726 -1.5898  0.0938
 9154TIP3    H248954   2.593   3.156   1.132  1.1316 -0.1428  0.2310
 9155TIP3   OH248955   2.528   4.804  12.427 -0.2742 -0.3485  0.1351
 9155TIP3    H148956   2.448   4.797  12.374 -1.4817  2.1731  1.4448
 9155TIP3    H248957   2.579   4.873  12.385  0.9181 -1.4117 -0.2420
 9156TIP3   OH248958   0.395   4.080   6.496  0.0770  0.1153 -0.0307
 9156TIP3    H148959   0.381   4.027   6.574  0.4209  0.3305  0.1817
 9156TIP3    H248960   0.355   4.030   6.425 -3.3664  1.4554  0.7648
 9157TIP3   OH248961   6.417   0.048   5.856 -0.8569  0.7568  0.1195
 9157TIP3    H148962   6.324   0.070   5.862 -1.5140 -0.7213 -2.9037
 9157TIP3    H248963   6.442   0.074   5.768  1.6581  1.1683  0.8855
 9158TIP3   OH248964   2.040   3.483  14.289  0.2195 -0.7630 -0.0254
 9158TIP3    H148965   1.986   3.490  14.367 -0.5802 -0.2173 -0.6147
 9158TIP3    H248966   2.130   3.476  14.323  0.3474  3.1818  0.9636
 9159TIP3   OH248967   3.931   4.613  14.485  0.1294  0.0783  0.7548
 9159TIP3    H148968   4.012   4.562  14.477  1.5219  2.2848 -0.3326
 9159TIP3    H248969   3.959   4.704  14.472 -2.6044  0.8743 -0.1967
 9160TIP3   OH248970   3.564   1.344  14.492  0.2052  0.2031 -0.0627
 9160TIP3    H148971   3.486   1.373  14.538  0.4693  2.1313 -0.7157
 9160TIP3    H248972   3.566   1.249  14.504 -1.6120  0.2464  0.8931
 9161TIP3   OH248973   0.719   0.881  15.512  0.5788 -0.1272 -0.3306
 9161TIP3    H148974   0.718   0.824  15.436 -0.5650  1.5277 -1.6400
 9161TIP3    H248975   0.667   0.957  15.486 -3.4959 -1.1676  3.4268
 9162TIP3   OH248976   6.555   4.869  12.000 -0.4196  0.4752 -0.2212
 9162TIP3    H148977   6.632   4.912  12.035  0.4891 -1.9230  0.9309
 9162TIP3    H248978   6.502   4.847  12.077 -1.4762  0.6647 -0.8713
 9163TIP3   OH248979   6.431   6.178  16.523  0.4019  0.8828 -0.9369
 9163TIP3    H148980   6.416   6.090  16.559 -0.7992  0.8822 -1.3827
 9163TIP3    H248981   6.496   6.164  16.453  1.1634  0.5594 -0.1827
 9164TIP3   OH248982   4.342   0.000  13.461 -0.0327  0.2185 -0.0593
 9164TIP3    H148983   4.318   0.021  13.371 -2.0239 -1.2781  0.0422
 9164TIP3    H248984   4.380  -0.087  13.456  1.3650  0.7823  0.3759
 9165TIP3   OH248985   6.726   2.499  16.767  0.1548 -0.2615 -0.3426
 9165TIP3    H148986   6.729   2.587  16.806  2.3524 -0.1774 -0.5662
 9165TIP3    H248987   6.642   2.496  16.723  0.0313  1.7700 -0.3664
 9166TIP3   OH248988   6.166   5.278  15.775  0.2413  0.3302 -0.4436
 9166TIP3    H148989   6.100   5.293  15.842  0.3680  1.0270 -0.4703
 9166TIP3    H248990   6.249   5.274  15.823  0.3795  1.2311 -0.5874
 9167TIP3   OH248991   3.536   5.530   5.143  0.4456  0.5632 -0.6971
 9167TIP3    H148992   3.447   5.527   5.179  0.4623  0.1979 -0.6809
 9167TIP3    H248993   3.547   5.621   5.115  0.3750  0.8190  0.0767
 9168TIP3   OH248994   4.752   2.936  13.317 -0.9217  0.3862  0.1241
 9168TIP3    H148995   4.691   2.866  13.294 -0.2782 -0.1155 -0.1071
 9168TIP3    H248996   4.723   3.012  13.267 -0.6791 -0.1629 -0.8805
 9169TIP3   OH248997   2.311   3.961   5.208  0.3247  0.5044 -0.1177
 9169TIP3    H148998   2.322   4.039   5.262  3.7639  1.3629 -1.7868
 9169TIP3    H248999   2.322   3.888   5.268 -0.7229  1.2797  1.0866
 9170TIP3   OH249000   5.353   6.498  16.327 -0.5575  0.4592 -0.6582
 9170TIP3    H149001   5.417   6.568  16.317  0.6405 -0.2891  1.1035
 9170TIP3    H249002   5.404   6.417  16.314 -1.5496 -0.1240 -1.0298
 9171TIP3   OH249003   0.320   3.161   3.497 -0.3787  0.4295  0.5646
 9171TIP3    H149004   0.267   3.216   3.440 -0.3842 -0.7644 -0.6096
 9171TIP3    H249005   0.264   3.086   3.517  0.5175 -0.3724  0.0997
 9172TIP3   OH249006   2.047   5.760  12.037 -0.7164 -0.0491  0.0372
 9172TIP3    H149007   2.066   5.854  12.030 -1.5049  0.0642 -0.9802
 9172TIP3    H249008   2.107   5.719  11.975 -1.7243  0.0126 -1.0149
 9173TIP3   OH249009   1.547   0.920   5.640 -0.0106 -0.2990 -0.4899
 9173TIP3    H149010   1.513   0.854   5.579 -1.7085 -0.8087  0.9231
 9173TIP3    H249011   1.548   0.875   5.724  2.5285  0.3060 -0.1238
 9174TIP3   OH249012   3.085   0.246  14.767  0.2670  0.3795  0.0748
 9174TIP3    H149013   3.059   0.180  14.704  0.5668  0.6543 -0.3421
 9174TIP3    H249014   3.017   0.243  14.835 -0.7423  0.9392 -0.8776
 9175TIP3   OH249015   0.383   4.056  13.391 -0.7203  0.1833  0.2481
 9175TIP3    H149016   0.355   3.977  13.343 -0.9860  0.1875  0.3966
 9175TIP3    H249017   0.428   4.109  13.325 -0.0186 -0.3561  0.2746
 9176TIP3   OH249018   5.144   5.627   6.564 -0.2033  0.8563  0.0522
 9176TIP3    H149019   5.221   5.573   6.583  1.4544  3.0301 -0.2264
 9176TIP3    H249020   5.071   5.564   6.564  1.3756 -1.1159  1.3893
 9177TIP3   OH249021   6.753   3.908   6.352 -0.0443  0.3967  0.1323
 9177TIP3    H149022   6.753   3.918   6.447 -0.2636 -0.2752  0.2074
 9177TIP3    H249023   6.698   3.832   6.336 -0.0399  0.5287 -0.5394
 9178TIP3   OH249024   5.612   0.082   1.465  0.5389 -0.9860  0.4105
 9178TIP3    H149025   5.655   0.022   1.404 -0.2443  0.9151 -2.1967
 9178TIP3    H249026   5.638   0.169   1.435 -0.0090  0.0731  2.7778
 9179TIP3   OH249027   5.633   5.681  13.293  0.0128 -0.5338  0.1028
 9179TIP3    H149028   5.555   5.736  13.288  1.3286  1.3183 -2.0897
 9179TIP3    H249029   5.620   5.614  13.226  0.1908 -0.3479 -0.1204
 9180TIP3   OH249030   0.966   0.788   5.477 -0.2110 -0.3157  0.2420
 9180TIP3    H149031   0.931   0.877   5.471 -2.4948 -1.1234  0.4046
 9180TIP3    H249032   1.056   0.799   5.508 -0.3224  1.9345 -0.0769
 9181TIP3   OH249033   0.120   3.351  13.252  0.0413  0.2344  0.1792
 9181TIP3    H149034   0.150   3.269  13.212  0.7016  1.3512 -1.7088
 9181TIP3    H249035   0.197   3.386  13.297 -0.5070 -0.6422  1.8981
 9182TIP3   OH249036   0.174   2.967   4.847  0.2534 -0.5399  0.5096
 9182TIP3    H149037   0.188   2.873   4.845  1.5135 -0.3912 -2.1251
 9182TIP3    H249038   0.262   3.003   4.862 -0.0751  0.2332  0.6212
 9183TIP3   OH249039   5.026   4.034  15.909 -0.3124  0.1981  0.0511
 9183TIP3    H149040   5.005   4.038  16.002  0.0051 -0.4011  0.1512
 9183TIP3    H249041   4.949   4.070  15.866 -1.2907 -1.3043  0.4505
 9184TIP3   OH249042   1.833   3.857  13.218  0.1048 -0.5943 -0.6597
 9184TIP3    H149043   1.780   3.935  13.202 -0.7603 -1.4305 -2.0774
 9184TIP3    H249044   1.770   3.791  13.248  0.2089 -1.7216 -2.7505
 9185TIP3   OH249045   5.858   2.483   4.237 -0.7770  0.6884  0.2532
 9185TIP3    H149046   5.807   2.561   4.257 -0.6875  0.3957  1.7418
 9185TIP3    H249047   5.919   2.474   4.310  0.7824  0.4891 -0.9970
 9186TIP3   OH249048   4.972   4.811  14.948  0.6000 -0.2707  0.0007
 9186TIP3    H149049   5.038   4.878  14.929  0.9596 -0.5055  0.3969
 9186TIP3    H249050   5.012   4.729  14.919  0.7992 -0.5156  0.9358
 9187TIP3   OH249051   0.474   4.039   4.403 -0.3265 -0.7455  0.3477
 9187TIP3    H149052   0.533   4.091   4.348 -0.0537 -1.2980  0.1123
 9187TIP3    H249053   0.387   4.074   4.385 -0.2053 -0.7307 -0.2251
 9188TIP3   OH249054   1.724   3.735  13.849  0.1287 -0.3119  0.2263
 9188TIP3    H149055   1.673   3.779  13.917 -0.0634 -1.3586  0.7815
 9188TIP3    H249056   1.788   3.800  13.821 -0.6238  0.5636  0.4920
 9189TIP3   OH249057   6.576   4.274  16.613 -0.4244 -0.4123  0.4827
 9189TIP3    H149058   6.633   4.320  16.675  0.0223 -0.6723  0.2720
 9189TIP3    H249059   6.488   4.301  16.637 -0.1205  2.1008 -0.8092
 9190TIP3   OH249060   5.483   6.578   1.361 -0.2726  0.3161  0.3565
 9190TIP3    H149061   5.438   6.498   1.335 -0.0205  0.6770 -1.2883
 9190TIP3    H249062   5.450   6.596   1.449 -0.0181 -1.7977  0.9361
 9191TIP3   OH249063   0.113   2.607   1.360 -0.0013  0.5051  0.9265
 9191TIP3    H149064   0.107   2.670   1.289  2.2374  0.8327  0.9537
 9191TIP3    H249065   0.024   2.576   1.373 -0.4039 -0.2444 -2.6124
 9192TIP3   OH249066   4.056   0.633   0.606  0.1000  0.4425  0.1500
 9192TIP3    H149067   4.043   0.688   0.683 -0.9999  0.3434  0.0498
 9192TIP3    H249068   4.095   0.553   0.639 -1.5278 -0.1101  0.8008
 9193TIP3   OH249069   2.905   3.130   3.478  0.0111 -0.3033 -0.0561
 9193TIP3    H149070   2.867   3.113   3.392 -1.6063 -0.3424  0.6349
 9193TIP3    H249071   2.972   3.062   3.489 -1.2651 -1.6647 -0.4062
 9194TIP3   OH249072   0.370   3.184  12.281 -1.1047  0.0572 -0.0320
 9194TIP3    H149073   0.401   3.181  12.190 -0.1651 -0.3876  0.2886
 9194TIP3    H249074   0.280   3.153  12.277 -0.6069 -1.4276 -0.6324
 9195TIP3   OH249075   5.544   2.445   3.695  0.0980 -0.0855 -0.3751
 9195TIP3    H149076   5.634   2.476   3.701 -0.4073  1.6838 -1.0316
 9195TIP3    H249077   5.551   2.353   3.672  1.7652  0.3671 -1.9378
 9196TIP3   OH249078   4.906   0.041   0.117 -0.1820 -0.0904 -0.1581
 9196TIP3    H149079   4.994   0.049   0.080  1.1488 -1.9213  2.2686
 9196TIP3    H249080   4.902   0.108   0.185 -0.7694  0.1206 -0.3932
 9197TIP3   OH249081   1.918   3.588  17.097 -0.0840  0.1734  1.1473
 9197TIP3    H149082   1.846   3.567  17.038  0.0680 -0.5915  1.2143
 9197TIP3    H249083   1.997   3.571  17.045  0.0721 -1.4380  1.8194
 9198TIP3   OH249084   3.771   2.978  12.113  0.0510  0.9800 -0.1742
 9198TIP3    H149085   3.858   2.943  12.094  0.1744  2.2050 -2.1712
 9198TIP3    H249086   3.720   2.903  12.143  1.2054 -0.2008 -1.0630
 9199TIP3   OH249087   2.440   0.144  16.976  0.8364  0.2734  0.5669
 9199TIP3    H149088   2.474   0.078  16.915 -0.4746  1.3901 -1.4842
 9199TIP3    H249089   2.372   0.099  17.026  0.4840 -0.1401 -0.2798
 9200TIP3   OH249090   3.873   5.925  11.960  0.3551 -0.5634 -0.2060
 9200TIP3    H149091   3.928   5.866  11.908 -0.6195 -0.9789 -0.7733
 9200TIP3    H249092   3.817   5.969  11.897  3.0952  3.3755 -0.2546
 9201TIP3   OH249093   2.744   1.157  11.295  0.7352 -0.4821 -0.2981
 9201TIP3    H149094   2.709   1.098  11.228  2.5122 -2.1182  0.1348
 9201TIP3    H249095   2.801   1.217  11.248  0.6715 -0.5455 -0.4544
 9202TIP3   OH249096   2.674   1.808  11.935  0.4945 -0.6114 -0.0660
 9202TIP3    H149097   2.612   1.789  12.005  0.1967  1.7484  0.4090
 9202TIP3    H249098   2.620   1.836  11.861  0.8551  2.7534  0.7618
 9203TIP3   OH249099   5.677   2.993  12.775 -0.6176  0.7957  0.0586
 9203TIP3    H149100   5.669   3.002  12.680  1.7710  2.9075 -0.0385
 9203TIP3    H249101   5.709   2.904  12.789 -0.9901  0.4676 -1.1009
 9204TIP3   OH249102   2.771   3.562   2.357  0.0930 -0.4637  0.2264
 9204TIP3    H149103   2.817   3.645   2.371 -1.0946  0.0305  1.4131
 9204TIP3    H249104   2.837   3.505   2.316  1.6683  0.3167  1.5325
 9205TIP3   OH249105   1.110   6.561  15.929 -0.0275  0.1271 -0.8688
 9205TIP3    H149106   1.149   6.648  15.914 -0.7319  0.3402 -1.5028
 9205TIP3    H249107   1.094   6.527  15.841  0.2722 -0.6623 -0.6194
 9206TIP3   OH249108   3.684   4.910  12.927 -0.2375 -0.1326 -1.0996
 9206TIP3    H149109   3.639   4.945  12.850 -1.6927 -0.2674 -0.3536
 9206TIP3    H249110   3.714   4.823  12.900  1.4523  0.7598 -2.2590
 9207TIP3   OH249111   2.224   2.685  15.086 -0.0142 -0.3307 -0.1652
 9207TIP3    H149112   2.183   2.599  15.084  0.0522 -0.3502 -1.6626
 9207TIP3    H249113   2.299   2.677  15.027 -0.2047  0.8433 -0.5893
 9208TIP3   OH249114   1.651   4.509   1.072 -0.3473  0.0112 -0.5385
 9208TIP3    H149115   1.646   4.599   1.103 -1.4596 -0.7016  1.5343
 9208TIP3    H249116   1.560   4.479   1.066  0.0232 -1.3121 -0.0646
 9209TIP3   OH249117   2.811   2.989   6.042 -0.4306 -0.2185  0.7558
 9209TIP3    H149118   2.744   3.052   6.067  1.3951  2.3156 -0.3633
 9209TIP3    H249119   2.883   3.004   6.103  1.2237  1.0256 -1.3582
 9210TIP3   OH249120   2.842   4.001  16.716  0.3509  1.1426  0.3815
 9210TIP3    H149121   2.892   3.921  16.730 -0.4732  0.8573  1.8679
 9210TIP3    H249122   2.832   4.039  16.803 -0.1988  2.3032 -0.1648
 9211TIP3   OH249123   3.023   0.460   4.109 -0.1946  0.1114  0.4711
 9211TIP3    H149124   3.078   0.384   4.127 -0.2343 -0.2236 -0.7395
 9211TIP3    H249125   2.949   0.426   4.059  0.8052  1.1831 -1.9062
 9212TIP3   OH249126   1.009   2.170   4.981  0.4600 -0.4222  0.7419
 9212TIP3    H149127   0.922   2.206   4.962  0.3240 -0.6667  0.8827
 9212TIP3    H249128   1.064   2.198   4.907  0.3766  0.1262  0.8882
 9213TIP3   OH249129   1.746   6.762  16.944 -0.8106 -0.2308  0.1919
 9213TIP3    H149130   1.650   6.757  16.950 -0.7354 -0.9242  1.0846
 9213TIP3    H249131   1.763   6.803  16.859 -1.9249  1.5343  0.7587
 9214TIP3   OH249132   1.494   6.176  16.796  0.5753 -0.3506  0.5267
 9214TIP3    H149133   1.455   6.112  16.855 -0.9399  0.0418  0.0127
 9214TIP3    H249134   1.472   6.261  16.835 -2.5316  0.0319 -1.6582
 9215TIP3   OH249135   0.599   6.399  15.770  0.7453 -0.0275  0.5850
 9215TIP3    H149136   0.623   6.308  15.755  0.1084 -0.0887 -0.0777
 9215TIP3    H249137   0.589   6.436  15.683  1.2142  0.7428  0.8459
 9216TIP3   OH249138   6.018   2.681   1.376 -0.7640 -0.2088 -0.2348
 9216TIP3    H149139   5.995   2.755   1.431 -0.3150 -0.0109 -0.3074
 9216TIP3    H249140   5.943   2.670   1.318 -0.6935  0.3972 -0.4463
 9217TIP3   OH249141   1.460   4.139   0.489  0.0768  0.6999 -0.0465
 9217TIP3    H149142   1.520   4.068   0.513  0.5688  0.7761 -1.0056
 9217TIP3    H249143   1.411   4.157   0.570  0.8946  0.1985  0.5830
 9218TIP3   OH249144   0.038   5.411  15.465 -1.0119  0.0447  0.1641
 9218TIP3    H149145  -0.044   5.418  15.417 -0.3484  0.9442 -0.8963
 9218TIP3    H249146   0.048   5.317  15.483 -3.5184  0.1256  2.6692
 9219TIP3   OH249147   0.974   3.006  10.666  0.1339  0.4203 -0.0305
 9219TIP3    H149148   1.040   2.942  10.692  0.0272  1.3175  2.9043
 9219TIP3    H249149   1.019   3.066  10.607  1.6332  0.3215  0.9658
 9220TIP3   OH249150   2.870   3.013  17.476  0.3648  0.3927 -0.4554
 9220TIP3    H149151   2.873   3.014  17.572  0.4976 -1.2432 -0.4242
 9220TIP3    H249152   2.783   3.046  17.454 -1.1346 -2.6559  0.3845
 9221TIP3   OH249153   3.106   2.460  15.118  0.5491 -0.1268  0.7473
 9221TIP3    H149154   3.118   2.437  15.210 -0.1666 -2.8699  0.2447
 9221TIP3    H249155   3.154   2.394  15.070 -0.1783  0.4709 -0.8746
 9222TIP3   OH249156   1.624   1.328   6.094 -0.7220 -0.6475 -0.6700
 9222TIP3    H149157   1.647   1.311   6.186  0.2507 -1.8193 -1.0995
 9222TIP3    H249158   1.609   1.422   6.090 -0.8936 -0.5890  0.7147
 9223TIP3   OH249159   4.970   1.962  16.309 -0.0173 -0.3270 -0.2278
 9223TIP3    H149160   5.014   1.893  16.359  2.2323  2.0533  1.3250
 9223TIP3    H249161   5.008   1.957  16.222  1.4195 -0.0291  0.3517
 9224TIP3   OH249162   6.000   5.273  17.032  0.0329 -0.5142  0.6717
 9224TIP3    H149163   6.042   5.237  16.954  2.3948  1.2281  1.0329
 9224TIP3    H249164   5.945   5.344  16.998  0.1359 -0.5196  0.4898
 9225TIP3   OH249165   4.088   5.269  12.955 -0.1606  0.3887  0.2246
 9225TIP3    H149166   4.078   5.177  12.982  1.5394  0.1968  0.2983
 9225TIP3    H249167   4.143   5.265  12.877 -1.0197  1.2811 -0.4418
 9226TIP3   OH249168   5.944   3.636  12.225  0.2191 -0.2919 -0.8598
 9226TIP3    H149169   5.955   3.569  12.292 -1.4923  2.5846  2.6209
 9226TIP3    H249170   5.869   3.606  12.173  0.5076 -1.7930 -0.4509
 9227TIP3   OH249171   5.822   6.186  14.613  0.0965  0.4350  0.5416
 9227TIP3    H149172   5.896   6.125  14.613 -0.4138 -0.2056  0.5777
 9227TIP3    H249173   5.817   6.218  14.703  0.5943  0.8104  0.4347
 9228TIP3   OH249174   3.209   4.229   2.267 -0.1400  0.3103  0.0807
 9228TIP3    H149175   3.272   4.194   2.330 -0.5618  0.6213  0.6892
 9228TIP3    H249176   3.247   4.209   2.181  0.3095 -0.3698  0.4280
 9229TIP3   OH249177   1.023   6.174   5.025 -0.8675 -0.1465 -0.2319
 9229TIP3    H149178   1.089   6.230   4.984  0.0945 -1.2661 -0.2506
 9229TIP3    H249179   0.940   6.205   4.989 -0.2618  0.5896 -1.0280
 9230TIP3   OH249180   2.791   6.551  13.537  0.1978 -0.0917 -0.3911
 9230TIP3    H149181   2.873   6.504  13.520  0.0126 -0.8801  0.8144
 9230TIP3    H249182   2.816   6.643  13.539  1.2816 -0.3896  1.0973
 9231TIP3   OH249183   1.252   6.134   4.140  0.5306 -0.1596  0.5719
 9231TIP3    H149184   1.188   6.113   4.072  0.8308  1.8674 -0.4136
 9231TIP3    H249185   1.328   6.081   4.118  0.0510 -0.7522  0.3077
 9232TIP3   OH249186   1.063   4.829  15.465 -0.0874 -0.2100 -0.2754
 9232TIP3    H149187   0.986   4.790  15.423  1.1685 -1.2980 -1.6622
 9232TIP3    H249188   1.100   4.759  15.518  0.0636  0.2688  0.2735
 9233TIP3   OH249189   3.895   6.643  16.578  0.3453  0.4221 -0.1139
 9233TIP3    H149190   3.960   6.579  16.548 -0.7578 -1.0876  0.6130
 9233TIP3    H249191   3.941   6.727  16.574  2.0428 -0.4778 -0.4799
 9234TIP3   OH249192   1.778   0.438  12.082 -0.1664  0.2631  0.2144
 9234TIP3    H149193   1.812   0.484  12.005  0.6706 -0.5394  0.0871
 9234TIP3    H249194   1.800   0.496  12.155 -0.1661  0.6156 -0.0622
 9235TIP3   OH249195   1.664   4.171   2.704 -0.5098 -0.8709 -0.6561
 9235TIP3    H149196   1.601   4.216   2.648  0.7167 -0.5543 -1.8242
 9235TIP3    H249197   1.748   4.180   2.659  0.8789  0.8829  2.0216
 9236TIP3   OH249198   1.932   2.055  11.469  0.0778  0.3727  0.3969
 9236TIP3    H149199   1.881   1.988  11.514 -0.7389  0.9614  0.3691
 9236TIP3    H249200   1.927   2.030  11.376 -1.4640  1.2550  0.2136
 9237TIP3   OH249201   1.921   1.571   2.151  0.6212 -0.3216 -0.7054
 9237TIP3    H149202   1.853   1.569   2.084  1.0433 -0.4982 -1.1318
 9237TIP3    H249203   1.874   1.559   2.234  0.1861 -0.9175 -1.0330
 9238TIP3   OH249204   4.055   2.147   5.767 -0.0721  0.3470  0.6072
 9238TIP3    H149205   4.037   2.241   5.778  0.2679  0.2898  1.7483
 9238TIP3    H249206   4.008   2.124   5.687  0.4357  1.6491 -0.1041
 9239TIP3   OH249207   5.439   6.225  10.819 -0.0660  0.5998 -0.1261
 9239TIP3    H149208   5.522   6.228  10.867 -1.5040  0.7852  2.5602
 9239TIP3    H249209   5.464   6.236  10.728  3.0775 -1.8767  0.2714
 9240TIP3   OH249210   4.427   6.168  14.873  0.5143 -0.2753 -0.1843
 9240TIP3    H149211   4.516   6.200  14.888  0.5323 -0.5053  0.2056
 9240TIP3    H249212   4.371   6.244  14.889  0.6038 -0.2658  0.0925
 9241TIP3   OH249213   6.768   6.520   5.325  0.5488  0.5503 -0.2132
 9241TIP3    H149214   6.818   6.549   5.248  0.8756  0.9685  0.1534
 9241TIP3    H249215   6.749   6.601   5.372 -1.6084  0.5598 -1.0108
 9242TIP3   OH249216   0.934   3.356   4.699 -0.5477 -0.5087  0.2281
 9242TIP3    H149217   0.922   3.261   4.703 -0.1431 -0.7786 -2.7779
 9242TIP3    H249218   0.845   3.391   4.705 -0.7974 -1.1412  0.3429
 9243TIP3   OH249219   1.220   5.326  13.892  0.3936  0.2731 -0.1601
 9243TIP3    H149220   1.233   5.237  13.925  0.4102 -0.2932 -1.5788
 9243TIP3    H249221   1.297   5.342  13.837  1.2594  1.8576  1.4034
 9244TIP3   OH249222   4.864   3.884   2.100 -0.2601  0.1660 -0.4501
 9244TIP3    H149223   4.776   3.921   2.109 -1.8215 -2.9863 -1.4925
 9244TIP3    H249224   4.852   3.805   2.047  3.0023 -1.1529  0.5270
 9245TIP3   OH249225   0.298   0.879  15.448 -0.5121 -0.5585 -0.1271
 9245TIP3    H149226   0.241   0.911  15.519 -0.0884 -0.1069  0.0146
 9245TIP3    H249227   0.358   0.952  15.431  0.0286 -1.0290 -0.2720
 9246TIP3   OH249228   3.798   3.006  13.519 -0.0023  0.7181 -0.4196
 9246TIP3    H149229   3.889   2.987  13.541  0.5103  1.1086 -2.0732
 9246TIP3    H249230   3.757   2.920  13.509  0.3558  0.5391 -0.3637
 9247TIP3   OH249231   3.542   6.081   4.014  0.1779 -0.6148 -0.2470
 9247TIP3    H149232   3.565   5.995   4.051 -2.2198 -1.5166 -0.6337
 9247TIP3    H249233   3.479   6.117   4.076 -0.9407 -0.4051 -1.4697
 9248TIP3   OH249234   5.055   1.447   1.149 -0.0466  0.0089 -0.0158
 9248TIP3    H149235   5.040   1.389   1.224  2.1208 -0.4901  0.0924
 9248TIP3    H249236   5.123   1.507   1.178 -1.4273  1.9210 -0.5377
 9249TIP3   OH249237   1.176   3.848  11.314 -0.6070  0.0700  0.2291
 9249TIP3    H149238   1.205   3.925  11.265  0.9020  0.3414  1.4610
 9249TIP3    H249239   1.237   3.842  11.387 -2.6490 -0.3807  2.0168
 9250TIP3   OH249240   4.532   6.467   5.488  0.1080  0.5016 -0.1951
 9250TIP3    H149241   4.455   6.411   5.490  0.2961  0.2259  2.7811
 9250TIP3    H249242   4.497   6.556   5.493 -0.0616  0.3449  2.2338
 9251TIP3   OH249243   3.535   2.223  17.101  0.6930 -0.0432  0.2629
 9251TIP3    H149244   3.569   2.265  17.022 -0.1517  0.8007  0.3364
 9251TIP3    H249245   3.452   2.185  17.074  0.2274  0.5592  0.8221
 9252TIP3   OH249246   0.855   3.603  15.831 -0.0129  0.1171  0.2071
 9252TIP3    H149247   0.914   3.569  15.763 -0.0347 -1.1953  0.8045
 9252TIP3    H249248   0.790   3.655  15.784  0.2435 -0.3939 -0.7276
 9253TIP3   OH249249   6.163   1.153   2.900 -0.2595 -0.0124 -0.4622
 9253TIP3    H149250   6.171   1.127   2.808 -2.3276 -0.9044 -0.4312
 9253TIP3    H249251   6.070   1.149   2.918  0.0064  1.1380  1.4237
 9254TIP3   OH249252   1.488   0.564  16.199  0.2779 -0.2245 -0.3699
 9254TIP3    H149253   1.529   0.555  16.113 -1.9626 -0.4137 -1.4923
 9254TIP3    H249254   1.396   0.582  16.179 -0.5805 -1.6477  2.0031
 9255TIP3   OH249255   0.667   5.969  11.970 -0.5336 -0.6539 -0.2936
 9255TIP3    H149256   0.702   5.881  11.986  0.5677 -0.3973 -1.1934
 9255TIP3    H249257   0.646   6.002  12.058  0.8119 -1.1169  0.2374
 9256TIP3   OH249258   4.202   0.660  12.601 -0.7186  0.7009  0.0803
 9256TIP3    H149259   4.241   0.608  12.531 -0.6745  1.2857 -0.3335
 9256TIP3    H249260   4.198   0.749  12.566  2.3738  1.7590  1.9811
 9257TIP3   OH249261   6.660   4.708  15.807 -0.4012  0.0715  0.1360
 9257TIP3    H149262   6.639   4.669  15.722 -2.6927 -1.9796  1.5333
 9257TIP3    H249263   6.733   4.767  15.788 -1.1539  0.1100 -3.3361
 9258TIP3   OH249264   3.601   3.603   0.056 -0.5300 -0.0810  0.0846
 9258TIP3    H149265   3.510   3.631   0.059 -0.5491 -0.0013 -0.9547
 9258TIP3    H249266   3.646   3.672   0.009 -0.1419 -0.6601 -0.4128
 9259TIP3   OH249267   4.557   3.199   5.620  0.3978  0.5271 -0.6723
 9259TIP3    H149268   4.532   3.152   5.540  0.0110  1.8354 -1.3529
 9259TIP3    H249269   4.650   3.178   5.632  0.3811  0.0688 -1.2943
 9260TIP3   OH249270   5.512   4.545   2.985  0.2283  0.2097 -0.5534
 9260TIP3    H149271   5.551   4.615   3.036  0.5156 -0.6373  0.4102
 9260TIP3    H249272   5.418   4.560   2.991  0.2261 -0.2487  0.7798
 9261TIP3   OH249273   6.320   2.833   3.473  0.3709 -0.2067  0.3363
 9261TIP3    H149274   6.228   2.814   3.491  0.3764  1.0360  1.8860
 9261TIP3    H249275   6.356   2.749   3.444 -0.9294 -1.0519  1.0542
 9262TIP3   OH249276   2.001   5.057  14.784  0.2626  1.2526 -0.2950
 9262TIP3    H149277   1.918   5.039  14.828  1.8119 -1.0767  1.9849
 9262TIP3    H249278   1.985   5.032  14.693 -0.7709 -2.2979  0.6938
 9263TIP3   OH249279   1.226   0.213  15.508 -0.3434 -0.6742 -0.4664
 9263TIP3    H149280   1.307   0.247  15.470 -0.1642 -1.0792 -0.4585
 9263TIP3    H249281   1.215   0.263  15.589 -0.9641  0.4969 -1.2436
 9264TIP3   OH249282   6.628   0.737   4.060  0.2478  0.5621  0.3599
 9264TIP3    H149283   6.571   0.673   4.103  1.8521  0.2297  2.1193
 9264TIP3    H249284   6.703   0.746   4.119  1.9195  1.1698 -1.7336
 9265TIP3   OH249285   0.241   2.933  17.067  0.9224 -0.2229  0.1403
 9265TIP3    H149286   0.232   3.026  17.045  2.5496  0.1521  0.8887
 9265TIP3    H249287   0.152   2.903  17.084  0.2323  0.8473 -1.4369
 9266TIP3   OH249288   5.658   2.114  16.246  0.9224 -0.4726  0.1710
 9266TIP3    H149289   5.748   2.095  16.272  1.0419 -0.1994 -0.0356
 9266TIP3    H249290   5.604   2.077  16.316  1.2039 -0.4013  0.4270
 9267TIP3   OH249291   3.753   5.772   5.690  1.1944  0.1670 -0.4526
 9267TIP3    H149292   3.845   5.750   5.703  1.1191 -0.1651 -0.4932
 9267TIP3    H249293   3.705   5.711   5.745  1.0371  0.9293  0.2757
 9268TIP3   OH249294   6.615   2.525  12.723  0.3465 -0.0008  0.2072
 9268TIP3    H149295   6.674   2.572  12.782 -0.0666  0.9522 -0.1150
 9268TIP3    H249296   6.528   2.534  12.763  0.2432 -0.3672  0.0683
 9269TIP3   OH249297   0.932   3.348   3.629  0.4177  0.3982 -0.0708
 9269TIP3    H149298   0.916   3.436   3.594  0.4329  0.4192 -0.0240
 9269TIP3    H249299   1.014   3.321   3.589  0.3360  0.3455 -0.2023
 9270TIP3   OH249300   5.787   4.849  16.452 -0.0885 -0.4291 -0.7175
 9270TIP3    H149301   5.793   4.879  16.362 -3.4613 -0.1681 -0.9881
 9270TIP3    H249302   5.747   4.922  16.499 -0.9571 -1.5368  0.3437
 9271TIP3   OH249303   3.451   4.836  16.712 -0.1371 -0.1222  0.0521
 9271TIP3    H149304   3.530   4.881  16.683 -0.6643 -0.2787 -1.7361
 9271TIP3    H249305   3.382   4.902  16.706 -0.3140 -0.2210  0.8033
 9272TIP3   OH249306   2.028   3.026  16.237  0.1673  0.2838 -0.5970
 9272TIP3    H149307   1.982   3.042  16.319 -0.4394  0.6252 -0.9906
 9272TIP3    H249308   1.972   2.965  16.189  1.2913 -1.1895 -0.1155
 9273TIP3   OH249309   4.253   4.976   5.905  0.4230 -0.4930  1.0862
 9273TIP3    H149310   4.284   4.889   5.878  0.3677 -0.6854  1.6209
 9273TIP3    H249311   4.208   4.960   5.988  0.6108  0.0813  1.3017
 9274TIP3   OH249312   4.606   0.255  13.910  0.2453 -0.4187 -0.0587
 9274TIP3    H149313   4.685   0.266  13.858  0.9964  1.2762  1.3347
 9274TIP3    H249314   4.580   0.344  13.933 -0.9450 -1.0442  1.1548
 9275TIP3   OH249315   5.992   3.330  13.195  1.3560  0.1211  0.3090
 9275TIP3    H149316   5.986   3.426  13.200 -1.6375 -0.0335  1.4607
 9275TIP3    H249317   5.927   3.305  13.130  1.8114 -1.1590  0.3171
 9276TIP3   OH249318   3.266   1.068   0.229 -0.1946  0.2235  0.1967
 9276TIP3    H149319   3.189   1.077   0.285  0.7040  2.9655  1.1276
 9276TIP3    H249320   3.340   1.089   0.286  0.9885  0.4547 -1.3676
 9277TIP3   OH249321   0.496   2.893  13.445  0.4411 -0.1266 -0.1922
 9277TIP3    H149322   0.443   2.830  13.397  1.4434 -0.5604 -0.7722
 9277TIP3    H249323   0.437   2.965  13.464 -0.3670 -0.6238 -0.7541
 9278TIP3   OH249324   6.749   4.988   1.623 -0.4811  0.2256 -0.3454
 9278TIP3    H149325   6.749   4.941   1.707  1.8424 -0.8971 -0.8843
 9278TIP3    H249326   6.698   4.931   1.565  0.0131 -0.2819 -0.2976
 9279TIP3   OH249327   5.609   0.766   1.714  0.0783 -0.2840  0.2450
 9279TIP3    H149328   5.521   0.749   1.749 -0.6445  1.3921 -0.6744
 9279TIP3    H249329   5.656   0.684   1.729 -1.4104 -0.9820  1.4206
 9280TIP3   OH249330   3.183   6.017   1.480  0.1610  0.4417  0.2164
 9280TIP3    H149331   3.149   5.929   1.498  0.1756  0.2626 -0.5943
 9280TIP3    H249332   3.115   6.076   1.511 -0.0903  0.1308  0.2566
 9281TIP3   OH249333   4.101   6.691   2.262  0.6074  0.6902 -0.5550
 9281TIP3    H149334   4.165   6.719   2.196  0.7959  2.9182  0.4941
 9281TIP3    H249335   4.110   6.755   2.332 -1.3343 -0.1827  0.5530
 9282TIP3   OH249336   5.145   3.575  16.429  0.3450  0.4085 -0.3002
 9282TIP3    H149337   5.175   3.665  16.442 -1.4754  1.0164 -0.0632
 9282TIP3    H249338   5.143   3.565  16.333 -1.1489  1.2681 -0.3912
 9283TIP3   OH249339   2.274   2.844  13.722 -0.1690  0.0259 -0.5645
 9283TIP3    H149340   2.253   2.895  13.800 -1.7042  0.2170 -1.0921
 9283TIP3    H249341   2.296   2.909  13.655  1.6303 -0.1470 -0.2108
 9284TIP3   OH249342   3.447   6.425  12.542 -0.4876  0.3119  0.1443
 9284TIP3    H149343   3.456   6.372  12.462 -0.8457 -1.2326  1.0801
 9284TIP3    H249344   3.535   6.429  12.578 -0.4626  0.3287  0.0824
 9285TIP3   OH249345   0.240   2.784  13.098  0.3867 -0.1223 -0.4767
 9285TIP3    H149346   0.318   2.770  13.152  0.1554  1.2713  0.2715
 9285TIP3    H249347   0.199   2.698  13.092  1.3172 -0.6266  0.1669
 9286TIP3   OH249348   2.243   5.521  15.879 -1.1024 -0.0907 -0.0877
 9286TIP3    H149349   2.224   5.451  15.816 -2.2316  0.3375 -0.2495
 9286TIP3    H249350   2.279   5.592  15.825 -2.3945  0.4086 -0.3516
 9287TIP3   OH249351   4.460   5.909   0.020  0.1913 -0.2453  0.1238
 9287TIP3    H149352   4.455   5.998   0.054  3.4990 -0.2678  1.0835
 9287TIP3    H249353   4.447   5.854   0.097 -2.9311 -0.7686 -0.6340
 9288TIP3   OH249354   5.325   4.875  13.400 -0.2015  0.7111  0.0673
 9288TIP3    H149355   5.396   4.811  13.403 -0.9816 -0.1658  0.7853
 9288TIP3    H249356   5.272   4.848  13.325  1.0022  2.2828 -1.4291
 9289TIP3   OH249357   6.570   5.832   1.778  0.2550 -0.1656 -0.5013
 9289TIP3    H149358   6.554   5.882   1.698 -0.1262  0.2143 -0.1923
 9289TIP3    H249359   6.636   5.767   1.753  0.8921  0.5977 -0.8672
 9290TIP3   OH249360   2.958   4.522   0.176 -0.1747  0.3377 -0.2705
 9290TIP3    H149361   2.886   4.537   0.238  0.1093 -1.1445  0.4521
 9290TIP3    H249362   3.027   4.581   0.206  0.1450 -0.7275  1.1888
 9291TIP3   OH249363   0.828   2.541  15.814  0.4406 -0.1767  0.1627
 9291TIP3    H149364   0.920   2.523  15.797 -0.1382 -1.0113 -2.6391
 9291TIP3    H249365   0.824   2.635  15.831  1.9198 -0.3320  1.5457
 9292TIP3   OH249366   0.259   3.540   2.561 -0.3692  0.4753  0.8995
 9292TIP3    H149367   0.352   3.563   2.551 -0.0830 -0.7539  0.5239
 9292TIP3    H249368   0.226   3.600   2.628  0.6201  1.1233  0.8300
 9293TIP3   OH249369   0.305   4.145  16.019  0.8132 -0.5878 -0.3849
 9293TIP3    H149370   0.309   4.050  16.011  1.6723 -0.7193  1.1303
 9293TIP3    H249371   0.384   4.177  15.976  0.4689 -0.5509 -0.9895
 9294TIP3   OH249372   2.569   5.204   2.175  0.4939 -0.0747 -0.0137
 9294TIP3    H149373   2.608   5.150   2.243  2.6096 -0.1037 -1.1645
 9294TIP3    H249374   2.592   5.160   2.093  0.6973  1.5696 -0.8814
 9295TIP3   OH249375   1.639   1.440   4.009 -0.1510 -0.1993  0.0883
 9295TIP3    H149376   1.580   1.483   3.947 -0.7907 -0.4139  0.5440
 9295TIP3    H249377   1.717   1.496   4.011  0.8785 -1.3620 -2.6706
 9296TIP3   OH249378   6.562   1.852  15.723 -0.1352  0.9677  0.3425
 9296TIP3    H149379   6.518   1.864  15.808  0.9236 -0.3648  1.1200
 9296TIP3    H249380   6.563   1.757  15.710  1.0308  1.0748 -0.4535
 9297TIP3   OH249381   1.221   5.054   0.778  0.6837 -0.1401  0.5329
 9297TIP3    H149382   1.186   5.052   0.689 -0.2805  0.6767  0.8690
 9297TIP3    H249383   1.220   5.147   0.802 -1.1285 -0.4877  2.1369
 9298TIP3   OH249384   1.718   4.340  16.836 -0.0189 -0.4080  0.0290
 9298TIP3    H149385   1.646   4.340  16.899  0.1873 -0.3964  0.2676
 9298TIP3    H249386   1.797   4.326  16.889  0.2887  0.8638 -0.0672
 9299TIP3   OH249387   3.619   4.465  16.364  0.0742 -0.2818 -0.5901
 9299TIP3    H149388   3.613   4.375  16.331  0.2641 -0.2014 -0.8435
 9299TIP3    H249389   3.542   4.475  16.420  1.2640 -1.4115  1.3982
 9300TIP3   OH249390   3.833   4.739   5.033  0.0383  0.1196 -0.2941
 9300TIP3    H149391   3.865   4.655   5.001  0.6453  0.6011 -0.9947
 9300TIP3    H249392   3.866   4.803   4.969 -1.3241  0.7731 -0.3865
 9301TIP3   OH249393   3.735   2.307  15.788 -0.0995 -0.2953 -0.1444
 9301TIP3    H149394   3.730   2.262  15.872 -1.4231 -0.3091 -0.2163
 9301TIP3    H249395   3.776   2.244  15.729 -0.3572 -0.7605  0.1735
 9302TIP3   OH249396   5.417   4.533   4.727  0.0211  0.1268  0.2821
 9302TIP3    H149397   5.403   4.443   4.756 -2.7192 -0.1647 -1.5719
 9302TIP3    H249398   5.512   4.541   4.719  0.3350 -2.8736 -0.2449
 9303TIP3   OH249399   4.330   4.926  11.565 -0.1985 -0.1903  0.4801
 9303TIP3    H149400   4.338   4.981  11.487 -1.1052  0.1134  0.5920
 9303TIP3    H249401   4.261   4.967  11.617 -1.2998 -1.7201  0.3074
 9304TIP3   OH249402   4.607   2.809  11.770  0.6292  0.3964 -0.1002
 9304TIP3    H149403   4.530   2.832  11.822  0.5648  1.3012 -0.5678
 9304TIP3    H249404   4.665   2.765  11.832  0.3656  1.0519  0.6338
 9305TIP3   OH249405   0.187   6.301  12.423 -0.1789  0.5846 -1.0285
 9305TIP3    H149406   0.139   6.263  12.496 -2.8594  3.5667 -1.0176
 9305TIP3    H249407   0.253   6.358  12.464 -0.4939  0.8910 -0.9439
 9306TIP3   OH249408   0.479   4.501   5.634 -0.0651 -0.4374  0.2171
 9306TIP3    H149409   0.491   4.555   5.712 -1.0558  0.7283 -0.4100
 9306TIP3    H249410   0.566   4.497   5.595  0.3953 -0.8558  1.2586
 9307TIP3   OH249411   5.988   1.098  14.488 -0.0502 -0.6109 -0.3996
 9307TIP3    H149412   6.026   1.014  14.461  1.4954 -0.9639  2.4515
 9307TIP3    H249413   6.042   1.127  14.561 -1.7030  1.9620 -0.0493
 9308TIP3   OH249414   5.147   5.586  12.033  0.3990 -0.1461 -0.1442
 9308TIP3    H149415   5.061   5.556  12.003  0.7266 -2.4361  0.9861
 9308TIP3    H249416   5.198   5.597  11.953 -0.5578 -0.0960 -0.7570
 9309TIP3   OH249417   3.065   5.538  16.388 -0.3438 -0.4098 -0.8854
 9309TIP3    H149418   3.002   5.481  16.431 -0.5048 -0.1010 -0.7064
 9309TIP3    H249419   3.012   5.598  16.335 -0.2399  0.1864 -0.3281
 9310TIP3   OH249420   6.339   5.955   4.691  0.4114  0.6053  0.3436
 9310TIP3    H149421   6.263   6.010   4.706 -0.4039 -0.0938 -1.0338
 9310TIP3    H249422   6.405   6.014   4.655 -0.1830  0.8630 -0.3566
 9311TIP3   OH249423   2.525   1.774  12.182 -0.7108 -0.8216 -0.5076
 9311TIP3    H149424   2.496   1.684  12.170 -1.8156 -0.8676  1.9890
 9311TIP3    H249425   2.448   1.827  12.162 -0.9139 -0.6251  0.7094
 9312TIP3   OH249426   3.594   3.625   3.931 -0.1531  0.1741 -0.1342
 9312TIP3    H149427   3.655   3.649   3.860 -0.2396  0.5654 -0.0789
 9312TIP3    H249428   3.535   3.561   3.891  0.2605 -0.1672 -0.2053
 9313TIP3   OH249429   3.391   0.793  14.038 -0.4113 -0.8215  0.9204
 9313TIP3    H149430   3.392   0.882  14.073  2.0174 -1.1055  1.7271
 9313TIP3    H249431   3.471   0.753  14.072 -0.3823 -2.6531 -1.1216
 9314TIP3   OH249432   1.935   4.179  16.319 -0.2112 -0.9046 -0.2036
 9314TIP3    H149433   1.933   4.167  16.414  0.4453 -1.2781 -0.2324
 9314TIP3    H249434   1.962   4.270  16.307  0.3633 -1.0502 -0.0350
 9315TIP3   OH249435   2.934   2.963   1.524 -0.1963  0.4562  0.2708
 9315TIP3    H149436   2.916   3.037   1.582  0.1106  0.6853  0.0771
 9315TIP3    H249437   2.983   2.901   1.577  0.0419  0.6433  0.2675
 9316TIP3   OH249438   5.527   2.037  11.950  0.8365 -0.0963  0.3805
 9316TIP3    H149439   5.612   2.048  11.907  1.4194 -0.5572  1.3918
 9316TIP3    H249440   5.510   1.943  11.946  1.0105 -0.1783  1.3521
 9317TIP3   OH249441   3.848   4.879  13.172 -0.4638  0.2819 -0.2189
 9317TIP3    H149442   3.828   4.786  13.182  1.5612 -0.3392 -1.4584
 9317TIP3    H249443   3.804   4.904  13.091 -0.3922  0.2266 -0.2743
 9318TIP3   OH249444   0.694   3.166  14.656 -0.1862  0.2329 -0.8852
 9318TIP3    H149445   0.599   3.171  14.646 -0.3072  2.2947  0.7682
 9318TIP3    H249446   0.727   3.241  14.606  0.5323 -0.1734 -1.0251
 9319TIP3   OH249447   5.297   5.757   4.651 -0.2685 -0.3148 -0.8481
 9319TIP3    H149448   5.263   5.669   4.640  0.1665 -0.5859 -0.1097
 9319TIP3    H249449   5.384   5.745   4.690  0.2523  0.3958 -1.7358
 9320TIP3   OH249450   1.051   0.839  15.857 -0.0966  0.4625  0.1221
 9320TIP3    H149451   1.105   0.760  15.846 -1.6730 -0.6073 -0.1860
 9320TIP3    H249452   1.102   0.909  15.816  0.9624 -0.5470 -0.3357
 9321TIP3   OH249453   2.361   5.787   6.314 -0.1511 -0.6010  0.4351
 9321TIP3    H149454   2.376   5.712   6.372  0.3294 -0.2543  0.7637
 9321TIP3    H249455   2.338   5.748   6.230  0.2720 -1.1179  0.5547
 9322TIP3   OH249456   0.953   1.703  13.121  0.3302 -0.0529  0.3163
 9322TIP3    H149457   0.977   1.643  13.192  0.7718  1.3682  1.4247
 9322TIP3    H249458   0.865   1.732  13.144  0.4331  0.3284  0.2355
 9323TIP3   OH249459   0.716   4.286   3.147 -0.8708  0.0990 -0.2589
 9323TIP3    H149460   0.664   4.216   3.108 -1.7059  0.9313 -0.7076
 9323TIP3    H249461   0.804   4.250   3.155 -1.4020 -1.2009  0.0804
 9324TIP3   OH249462   4.251   2.748   4.007  0.2839  0.7915  0.6127
 9324TIP3    H149463   4.204   2.789   4.080  1.7366  0.1475  1.9730
 9324TIP3    H249464   4.318   2.694   4.049 -0.4799 -1.7072 -1.1322
 9325TIP3   OH249465   6.074   4.635   0.902 -0.7533 -0.6633  0.0289
 9325TIP3    H149466   6.105   4.639   0.992  1.1670 -0.9472 -0.5856
 9325TIP3    H249467   6.027   4.552   0.897  0.1979 -1.2490  0.4706
 9326TIP3   OH249468   0.111   1.990   2.471 -0.6972  0.2215 -0.3692
 9326TIP3    H149469   0.050   2.013   2.542 -0.6757 -0.5368 -0.1021
 9326TIP3    H249470   0.167   2.068   2.463  0.2580 -0.2060  1.4690
 9327TIP3   OH249471   2.733   5.519   4.579  0.4518  0.6794  0.5191
 9327TIP3    H149472   2.665   5.466   4.537 -1.2132  0.4640  3.2571
 9327TIP3    H249473   2.812   5.465   4.574 -0.5712 -0.9115  0.8592
 9328TIP3   OH249474   1.173   5.682  12.936  0.3074 -0.2501  0.5267
 9328TIP3    H149475   1.163   5.753  13.000  2.3803 -0.0487  0.6870
 9328TIP3    H249476   1.162   5.725  12.851 -0.7223 -0.1957  0.6702
 9329TIP3   OH249477   3.642   4.863   6.230  0.2878  0.0161 -0.5567
 9329TIP3    H149478   3.728   4.864   6.272  0.4365 -0.5724 -0.8429
 9329TIP3    H249479   3.623   4.771   6.217 -1.3395  0.0071  1.4078
 9330TIP3   OH249480   4.209   1.361  14.036  0.2794  0.7577 -0.1669
 9330TIP3    H149481   4.182   1.273  14.063 -0.7647  0.7395 -1.2046
 9330TIP3    H249482   4.224   1.353  13.942 -1.3023  2.0340 -0.5571
 9331TIP3   OH249483   1.149   0.840  17.407  1.2933 -0.0185 -0.0456
 9331TIP3    H149484   1.131   0.928  17.372  0.9103  0.6381  1.7035
 9331TIP3    H249485   1.063   0.805  17.429  1.4516 -0.8287 -0.6572
 9332TIP3   OH249486   2.735   1.915   5.638  0.9687 -0.3205 -0.2821
 9332TIP3    H149487   2.820   1.958   5.640  0.8256 -0.0528  0.3816
 9332TIP3    H249488   2.675   1.977   5.681  0.5794 -0.7923 -0.1271
 9333TIP3   OH249489   4.263   0.132  17.406  0.3621  0.4069  0.5579
 9333TIP3    H149490   4.186   0.188  17.412  0.8404  1.0003  1.3834
 9333TIP3    H249491   4.261   0.080  17.486 -0.2224 -0.9921 -0.3134
 9334TIP3   OH249492   0.704   3.188  14.104 -0.4537 -0.0892 -0.4146
 9334TIP3    H149493   0.622   3.192  14.054 -1.0331  0.5450  0.5546
 9334TIP3    H249494   0.756   3.261  14.071  0.1018 -1.0022 -1.6375
 9335TIP3   OH249495   5.420   5.882  11.001  0.0553  0.0874  0.5070
 9335TIP3    H149496   5.395   5.841  10.919  1.3962  2.1255 -1.0167
 9335TIP3    H249497   5.515   5.892  10.996 -0.1773  3.6636  0.4796
 9336TIP3   OH249498   1.305   3.429  17.161 -0.4947  0.1225 -0.0818
 9336TIP3    H149499   1.308   3.523  17.181 -1.6387  0.0141  0.7118
 9336TIP3    H249500   1.397   3.401  17.162 -0.0992  1.3042 -0.7597
 9337TIP3   OH249501   0.110   6.171   1.176 -0.3758  1.3287  0.5010
 9337TIP3    H149502   0.024   6.128   1.177  0.9314 -1.5610 -0.4782
 9337TIP3    H249503   0.141   6.165   1.266 -0.2717  0.2844  0.4043
 9338TIP3   OH249504   2.251   4.354  11.761 -0.4593  0.1307  0.1785
 9338TIP3    H149505   2.200   4.435  11.752 -0.2585  0.3760  1.0890
 9338TIP3    H249506   2.233   4.305  11.681 -1.0901  0.7933 -0.1007
 9339TIP3   OH249507   2.511   6.489  14.995  0.2854 -0.2126  0.0080
 9339TIP3    H149508   2.557   6.416  14.954  0.2921  0.0131 -0.3973
 9339TIP3    H249509   2.545   6.493  15.084  1.1436  0.0325 -0.3267
 9340TIP3   OH249510   2.486   6.518   2.793 -0.5589 -0.0464  0.1688
 9340TIP3    H149511   2.458   6.430   2.767  2.5726 -1.5090  1.2826
 9340TIP3    H249512   2.519   6.557   2.713 -2.4307  0.4152 -0.4441
 9341TIP3   OH249513   6.354   0.612  12.881  0.1824 -0.1021 -0.2132
 9341TIP3    H149514   6.357   0.623  12.786 -1.7650 -1.8460 -0.5330
 9341TIP3    H249515   6.423   0.548  12.900 -1.3556 -2.0650 -0.9108
 9342TIP3   OH249516   6.316   0.865   4.244  0.3536 -0.4366 -0.1134
 9342TIP3    H149517   6.403   0.837   4.273 -0.0827 -1.0128  0.6777
 9342TIP3    H249518   6.284   0.792   4.192  0.1840 -0.3820 -0.0846
 9343TIP3   OH249519   4.671   6.249  10.621 -0.0192 -0.1909  0.1249
 9343TIP3    H149520   4.748   6.199  10.594 -0.0620  0.0020 -0.3622
 9343TIP3    H249521   4.599   6.210  10.572 -0.3067 -0.6395  0.8847
 9344TIP3   OH249522   4.399   1.318  13.306 -0.0487  0.0202 -0.3776
 9344TIP3    H149523   4.492   1.307  13.323 -0.0767  1.3801  0.8019
 9344TIP3    H249524   4.388   1.292  13.214  1.3746 -0.6787 -0.3715
 9345TIP3   OH249525   0.480   0.812   2.827 -0.4045  0.4975  0.0078
 9345TIP3    H149526   0.529   0.886   2.864  0.9477 -0.5530  0.4012
 9345TIP3    H249527   0.389   0.835   2.841 -0.0258  2.1273  0.0494
 9346TIP3   OH249528   5.248   1.054   4.926 -0.6856  0.3913  0.1221
 9346TIP3    H149529   5.303   0.981   4.900  0.3571 -0.1357  3.3174
 9346TIP3    H249530   5.164   1.014   4.950 -0.6330  0.4489  0.4049
 9347TIP3   OH249531   0.087   5.696   4.663 -0.4326  0.0193 -0.1222
 9347TIP3    H149532   0.181   5.703   4.677 -0.3301  0.2916 -0.9093
 9347TIP3    H249533   0.066   5.605   4.685 -0.0528  0.0514  0.4009
 9348TIP3   OH249534   5.062   1.822  16.567 -0.0918 -0.3610 -0.2202
 9348TIP3    H149535   5.020   1.907  16.577 -0.0735 -0.2330 -1.1325
 9348TIP3    H249536   4.991   1.759  16.579 -0.5747 -0.1461 -1.7668
 9349TIP3   OH249537   0.985   5.128   2.295  0.1636  0.2551  0.4129
 9349TIP3    H149538   0.974   5.211   2.248 -1.3613 -0.4426 -0.5143
 9349TIP3    H249539   1.058   5.145   2.356  0.5436  1.9464 -0.4505
 9350TIP3   OH249540   6.469   4.072   0.542  0.3506  0.4005 -0.2615
 9350TIP3    H149541   6.536   4.013   0.576 -1.7883 -1.1643  1.5584
 9350TIP3    H249542   6.423   4.021   0.476 -0.7018  0.4313  0.4144
 9351TIP3   OH249543   1.803   0.769   1.427 -0.3138  0.2546  0.3038
 9351TIP3    H149544   1.795   0.772   1.523 -0.0759 -0.7032  0.3618
 9351TIP3    H249545   1.832   0.857   1.403 -1.6926  0.9248  0.9687
 9352TIP3   OH249546   4.931   1.901  12.097  0.0806 -0.4428  0.1015
 9352TIP3    H149547   4.845   1.936  12.121  0.0084 -0.6394  0.1319
 9352TIP3    H249548   4.993   1.969  12.124 -0.0234 -0.5317  0.5628
 9353TIP3   OH249549   5.731   3.780   3.595 -0.1906 -0.2153 -0.7339
 9353TIP3    H149550   5.715   3.689   3.620  0.1726  0.1984  1.1418
 9353TIP3    H249551   5.647   3.824   3.610  0.3331  0.2668  0.9562
 9354TIP3   OH249552   0.216   2.843   6.605  0.6303 -0.0287 -0.2422
 9354TIP3    H149553   0.222   2.762   6.554  0.6318  0.0246 -0.3284
 9354TIP3    H249554   0.176   2.906   6.544 -0.1662 -0.1922  0.0941
 9355TIP3   OH249555   1.058   1.279  14.938 -0.6594  0.6302 -0.0538
 9355TIP3    H149556   1.142   1.248  14.904 -1.7567 -0.6862 -1.7213
 9355TIP3    H249557   1.079   1.360  14.984  1.7832 -0.5900  1.1700
 9356TIP3   OH249558   1.664   6.453  14.546 -0.4516  0.3800 -0.3777
 9356TIP3    H149559   1.747   6.430  14.589 -0.0538  0.9032 -0.8442
 9356TIP3    H249560   1.666   6.406  14.463 -0.2820  0.9718 -0.7122
 9357TIP3   OH249561   1.339   0.690   1.393 -0.5833 -0.3532  0.9185
 9357TIP3    H149562   1.287   0.641   1.330  0.1418 -1.1765  0.9475
 9357TIP3    H249563   1.379   0.761   1.341 -3.0518  1.3812  1.2112
 9358TIP3   OH249564   5.627   5.163  15.311  0.0866 -0.0606 -0.1033
 9358TIP3    H149565   5.540   5.124  15.306 -0.4745  0.9943  1.0291
 9358TIP3    H249566   5.647   5.167  15.404  1.2377 -0.0445 -0.3336
 9359TIP3   OH249567   1.005   2.185  11.365  0.1752 -0.6871  0.4346
 9359TIP3    H149568   1.047   2.111  11.323  0.0012 -1.0763  0.9254
 9359TIP3    H249569   1.017   2.258  11.305  0.7171 -1.0155  0.1411
 9360TIP3   OH249570   1.954   5.038  14.497  0.8518 -0.2201  0.2146
 9360TIP3    H149571   1.999   5.105  14.445  0.6954 -0.0220  0.3342
 9360TIP3    H249572   2.023   4.979  14.526  1.2197  0.8055  1.5047
 9361TIP3   OH249573   5.471   0.071   3.919 -0.1165 -0.2284 -0.0014
 9361TIP3    H149574   5.418   0.026   3.854 -0.2588  0.6299 -0.4961
 9361TIP3    H249575   5.416   0.144   3.949  0.3877  0.0649  0.2331
 9362TIP3   OH249576   6.240   3.811   1.487 -0.1372 -0.2515 -0.1964
 9362TIP3    H149577   6.257   3.717   1.481 -0.6614 -0.2961 -1.3401
 9362TIP3    H249578   6.305   3.851   1.429  1.0563  0.2488  1.4168
 9363TIP3   OH249579   4.413   1.459   4.932  0.8061 -0.0092 -0.3544
 9363TIP3    H149580   4.436   1.383   4.985 -2.4023 -0.9914 -0.1644
 9363TIP3    H249581   4.383   1.525   4.995  2.9407  1.2664 -0.5719
 9364TIP3   OH249582   6.717   1.520  11.101  0.0887  0.4492  0.8876
 9364TIP3    H149583   6.666   1.592  11.065 -2.3534  0.3230  3.7746
 9364TIP3    H249584   6.731   1.542  11.193  3.4709 -0.6054  0.7896
 9365TIP3   OH249585   4.996   2.093   1.738 -0.2152 -0.5354  0.3480
 9365TIP3    H149586   5.043   2.137   1.667 -0.1043  0.3483  0.9594
 9365TIP3    H249587   4.961   2.013   1.698 -2.9243  1.4413 -1.6133
 9366TIP3   OH249588   4.203   4.239  11.318  0.0944  0.3970  0.0919
 9366TIP3    H149589   4.242   4.205  11.238  0.3702  1.7115 -0.3538
 9366TIP3    H249590   4.113   4.261  11.294 -0.2053 -0.3527  0.4827
 9367TIP3   OH249591   5.027   1.720  17.341 -0.3866  0.2701  0.5030
 9367TIP3    H149592   5.012   1.788  17.406 -0.8522 -0.3270  1.0385
 9367TIP3    H249593   5.060   1.645  17.391  0.2486  0.1411 -0.0878
 9368TIP3   OH249594   5.285   5.559  13.412  0.4584  0.4278 -0.0791
 9368TIP3    H149595   5.259   5.498  13.482  0.7973  0.5815  0.1851
 9368TIP3    H249596   5.325   5.632  13.458  0.2435  0.7566 -0.4121
 9369TIP3   OH249597   0.615   6.521  15.519 -0.3416 -0.0287 -0.3921
 9369TIP3    H149598   0.536   6.556  15.478  0.6822  3.4135  0.2612
 9369TIP3    H249599   0.662   6.479  15.447 -1.2390  0.8217 -1.5258
 9370TIP3   OH249600   5.634   5.178  12.584  0.0081 -0.4257  0.4073
 9370TIP3    H149601   5.564   5.142  12.638 -0.8258 -0.1854 -0.4880
 9370TIP3    H249602   5.681   5.101  12.551 -1.4818 -0.7448 -1.1211
 9371TIP3   OH249603   1.981   4.159   3.763 -0.1244 -0.0886 -0.0135
 9371TIP3    H149604   2.076   4.170   3.768 -0.0643 -0.6171  0.0615
 9371TIP3    H249605   1.968   4.094   3.694 -0.4634  0.3652 -0.3848
 9372TIP3   OH249606   5.475   1.946   2.687  0.8069 -0.2573  0.5844
 9372TIP3    H149607   5.490   1.906   2.772  2.5006  0.2597  0.5551
 9372TIP3    H249608   5.556   1.992   2.666 -0.3774  1.5820 -0.2673
 9373TIP3   OH249609   3.962   6.456   2.289  0.3422 -0.9040 -0.1569
 9373TIP3    H149610   3.990   6.548   2.291 -1.6673 -0.2469  0.8876
 9373TIP3    H249611   3.959   6.431   2.381  2.4311 -2.5990 -0.4754
 9374TIP3   OH249612   1.033   0.785  14.290  0.1730  0.2325 -0.7104
 9374TIP3    H149613   1.104   0.740  14.245  0.9706 -0.5334  1.1821
 9374TIP3    H249614   1.075   0.826  14.366 -1.4922 -0.9694  0.9550
 9375TIP3   OH249615   0.990   4.811   1.204  0.5862  0.2249 -0.6058
 9375TIP3    H149616   0.928   4.809   1.131 -0.9986  2.1610  0.5567
 9375TIP3    H249617   1.065   4.860   1.171 -0.0192  0.8955 -1.0393
 9376TIP3   OH249618   5.502   3.272   0.425  0.0611  0.1882  0.8721
 9376TIP3    H149619   5.557   3.258   0.348  1.2306 -1.3485  1.9296
 9376TIP3    H249620   5.553   3.330   0.482 -0.4472  0.6590  0.8615
 9377TIP3   OH249621   0.470   3.369  13.794 -0.1100  0.0786  0.2804
 9377TIP3    H149622   0.525   3.343  13.868  0.0561 -0.6314 -0.0817
 9377TIP3    H249623   0.531   3.410  13.733  0.3884 -2.2400 -0.8865
 9378TIP3   OH249624   5.779   5.013  11.589 -0.4515 -0.1700 -0.1015
 9378TIP3    H149625   5.816   4.991  11.504 -0.0100 -1.2542  0.3506
 9378TIP3    H249626   5.851   5.057  11.635 -0.4936 -0.1243 -0.0802
 9379TIP3   OH249627   0.982   5.745   1.984 -0.3922  0.0867  0.2839
 9379TIP3    H149628   0.931   5.757   1.904 -0.1822 -0.0960  0.1205
 9379TIP3    H249629   1.052   5.684   1.959  0.2851  0.8259  0.3412
 9380TIP3   OH249630   5.241   4.821   4.936 -0.6003 -0.2564 -0.3472
 9380TIP3    H149631   5.273   4.732   4.951  0.5477  0.3236  0.8334
 9380TIP3    H249632   5.299   4.855   4.867  1.4452  0.7759  1.7542
 9381TIP3   OH249633   5.770   2.942   2.962  0.0505  0.0016 -0.3417
 9381TIP3    H149634   5.793   2.957   2.871 -3.5855  2.5872 -1.0712
 9381TIP3    H249635   5.733   2.854   2.963  0.2860 -0.1177 -1.3111
 9382TIP3   OH249636   1.234   4.995  16.451  0.4456 -0.2049  0.2013
 9382TIP3    H149637   1.281   4.995  16.367  2.4496 -0.3650  1.2637
 9382TIP3    H249638   1.299   5.025  16.514 -0.6190 -1.3525  1.9067
 9383TIP3   OH249639   1.010   4.784  12.983  0.3589  0.6225 -0.2854
 9383TIP3    H149640   0.981   4.734  13.059 -1.1290  0.5656 -0.8416
 9383TIP3    H249641   1.064   4.723  12.933  0.1787  0.1981  0.0362
 9384TIP3   OH249642   5.120   3.194  16.314  0.4962  0.3036 -0.4119
 9384TIP3    H149643   5.176   3.117  16.323 -0.1818  0.0207  2.0727
 9384TIP3    H249644   5.096   3.216  16.404 -1.3244  1.9354 -1.2462
 9385TIP3   OH249645   1.919   5.429  12.557  0.1267 -0.9164  0.4021
 9385TIP3    H149646   1.867   5.394  12.485 -0.9941  0.4803  0.4872
 9385TIP3    H249647   2.001   5.379  12.555  0.4992 -0.3261 -2.3792
 9386TIP3   OH249648   4.615   3.650   0.201 -0.6991 -0.2798  0.3914
 9386TIP3    H149649   4.593   3.651   0.108 -1.0113  0.9349  0.4643
 9386TIP3    H249650   4.704   3.615   0.205 -0.9720 -1.0662 -0.2915
 9387TIP3   OH249651   6.626   3.833   0.962  0.4375  0.3181 -0.0556
 9387TIP3    H149652   6.551   3.892   0.956  1.0829  1.1504 -0.1058
 9387TIP3    H249653   6.660   3.829   0.873  0.4006 -0.1390 -0.0520
 9388TIP3   OH249654   1.803   2.015  14.718 -0.1414  0.4508  0.4348
 9388TIP3    H149655   1.887   2.038  14.679  0.0419 -0.9076 -0.0117
 9388TIP3    H249656   1.754   1.972  14.648 -0.2686 -0.9334  1.3475
 9389TIP3   OH249657   2.084   2.379   2.365 -0.8009  0.4519  0.1578
 9389TIP3    H149658   2.080   2.474   2.357 -1.6882  0.3111 -1.4818
 9389TIP3    H249659   2.173   2.356   2.340 -0.6657  0.8276  0.2937
 9390TIP3   OH249660   6.622   3.064  13.506 -0.0021 -0.0871 -0.5522
 9390TIP3    H149661   6.600   3.084  13.597  1.3847  0.7063 -0.3588
 9390TIP3    H249662   6.586   3.138  13.456  0.3722  0.1587 -0.4710
 9391TIP3   OH249663   5.234   0.837  11.353  0.5281 -0.4305  0.3559
 9391TIP3    H149664   5.236   0.754  11.401  2.3800 -1.0584 -0.6992
 9391TIP3    H249665   5.310   0.885  11.386 -0.2048  0.6453  0.5433
 9392TIP3   OH249666   1.212   0.541   0.432  0.3082  0.5004 -0.1449
 9392TIP3    H149667   1.211   0.507   0.343  0.9144 -0.7734  0.3180
 9392TIP3    H249668   1.305   0.558   0.450  0.4433 -1.2458  0.9602
 9393TIP3   OH249669   2.538   5.195  12.357 -0.4102  0.0227 -0.3377
 9393TIP3    H149670   2.577   5.196  12.270 -1.3982 -1.4417 -0.8345
 9393TIP3    H249671   2.596   5.139  12.409 -1.3991 -1.6082 -0.9015
 9394TIP3   OH249672   4.971   6.063   6.010  0.1223  0.0445  0.6339
 9394TIP3    H149673   5.058   6.098   6.024 -0.2440  0.4012  2.1445
 9394TIP3    H249674   4.912   6.130   6.044 -0.7925  0.0689 -0.8931
 9395TIP3   OH249675   0.461   3.714  15.006  0.0746 -0.5912 -0.0759
 9395TIP3    H149676   0.499   3.635  15.044 -1.4582 -0.1777  2.5611
 9395TIP3    H249677   0.368   3.710  15.030 -0.7184  0.4563 -2.6794
 9396TIP3   OH249678   4.292   5.006  15.358 -0.1230 -0.0175 -0.2888
 9396TIP3    H149679   4.386   5.018  15.346 -0.1772 -0.7121 -1.5768
 9396TIP3    H249680   4.256   5.094  15.353  0.6423  0.5919  2.6535
 9397TIP3   OH249681   5.504   5.499   1.654  0.3832  0.2783  0.2760
 9397TIP3    H149682   5.568   5.569   1.668 -0.3266  0.8795  0.5545
 9397TIP3    H249683   5.420   5.544   1.645 -0.1909 -0.5804  1.1656
 9398TIP3   OH249684   5.860   5.419  11.515 -0.0989  0.2686 -0.7283
 9398TIP3    H149685   5.899   5.417  11.428  1.5836 -0.1145 -0.0056
 9398TIP3    H249686   5.766   5.408  11.500 -0.0651  1.9946 -2.5993
 9399TIP3   OH249687   5.322   5.786   0.814 -0.3795  0.3726  0.1023
 9399TIP3    H149688   5.280   5.703   0.793 -1.7483  1.3741 -1.3028
 9399TIP3    H249689   5.413   5.763   0.832 -0.0443 -1.1701 -2.9441
 9400TIP3   OH249690   4.953   6.482  16.000 -0.0679 -0.0775 -0.1359
 9400TIP3    H149691   5.028   6.490  15.941 -0.0086 -1.5260 -0.2818
 9400TIP3    H249692   4.990   6.449  16.082 -0.2174  1.5089  0.6245
 9401TIP3   OH249693   0.579   0.074   5.588  0.9201  0.3001 -0.3929
 9401TIP3    H149694   0.561   0.140   5.654 -0.7309  1.2164 -1.6862
 9401TIP3    H249695   0.623   0.003   5.636  0.7228  1.3592  1.4429
 9402TIP3   OH249696   5.677   0.649  14.232  0.1658 -0.3389  0.0418
 9402TIP3    H149697   5.634   0.656  14.318 -0.3013 -0.6831 -0.1592
 9402TIP3    H249698   5.628   0.709  14.176  1.7327  1.4398  0.4897
 9403TIP3   OH249699   2.109   5.857   4.540 -0.2422 -0.4989  0.2858
 9403TIP3    H149700   2.074   5.821   4.458 -0.0364 -0.5374  0.2163
 9403TIP3    H249701   2.125   5.781   4.595 -2.4677 -0.3802  1.2066
 9404TIP3   OH249702   3.346   0.642   5.492 -0.1451 -0.3064 -0.3378
 9404TIP3    H149703   3.379   0.725   5.528 -1.1697 -1.1130  2.8027
 9404TIP3    H249704   3.423   0.585   5.488  0.0554 -0.0931  0.3417
 9405TIP3   OH249705   6.411   6.547  14.163 -0.1421  0.1972 -0.2295
 9405TIP3    H149706   6.494   6.591  14.183  0.3979 -0.0482 -1.7790
 9405TIP3    H249707   6.428   6.454  14.177 -0.3485  0.1987  0.0436
 9406TIP3   OH249708   3.749   0.627   5.611 -0.1457 -0.0283  0.5128
 9406TIP3    H149709   3.837   0.595   5.589 -1.4214 -3.3135 -0.2175
 9406TIP3    H249710   3.693   0.594   5.542 -1.9109  2.8187  0.4550
 9407TIP3   OH249711   1.117   2.093   0.566  0.1252  0.0392 -0.1511
 9407TIP3    H149712   1.093   2.182   0.594 -0.0227 -0.1140  0.2111
 9407TIP3    H249713   1.112   2.041   0.646 -1.7233 -0.7195 -0.6951
 9408TIP3   OH249714   1.788   0.127   4.590  0.4490 -0.7261  0.0845
 9408TIP3    H149715   1.870   0.176   4.598 -0.3855  0.6199  0.8276
 9408TIP3    H249716   1.730   0.168   4.654 -1.0676 -1.1167 -1.0002
 9409TIP3   OH249717   1.107   0.832  12.317 -0.5523 -0.2037 -0.0888
 9409TIP3    H149718   1.177   0.892  12.294 -0.6986 -0.6439 -1.7925
 9409TIP3    H249719   1.061   0.875  12.389  0.7927  0.5791  0.3299
 9410TIP3   OH249720   4.409   5.939   0.498 -0.0668  0.1562  0.1404
 9410TIP3    H149721   4.377   6.025   0.521  0.3276  0.1621  0.6890
 9410TIP3    H249722   4.349   5.908   0.430 -0.9527  0.3439  0.8189
 9411TIP3   OH249723   1.680   2.180   4.839  0.2403  0.1369  0.5630
 9411TIP3    H149724   1.646   2.256   4.792  0.0090  0.2166  0.8605
 9411TIP3    H249725   1.757   2.213   4.886  1.8574 -0.4326 -1.5401
 9412TIP3   OH249726   4.001   3.399   6.372  0.0317 -0.5344 -0.3755
 9412TIP3    H149727   4.019   3.442   6.455  0.1337 -1.8166  0.2925
 9412TIP3    H249728   3.907   3.413   6.357  0.0100 -0.3230 -0.0329
 9413TIP3   OH249729   6.465   4.899  10.623  0.3243  0.0757 -0.3478
 9413TIP3    H149730   6.391   4.850  10.587  1.2685 -1.9660  0.3407
 9413TIP3    H249731   6.500   4.843  10.692  2.8080  0.7488 -0.9489
 9414TIP3   OH249732   6.531   0.313   0.229  0.5424 -0.0493  0.4036
 9414TIP3    H149733   6.546   0.250   0.300  0.0005 -1.7859 -0.9285
 9414TIP3    H249734   6.522   0.258   0.150  0.4103  1.7465 -0.8954
 9415TIP3   OH249735   0.956   2.131   2.871  0.4558  0.1029  0.1214
 9415TIP3    H149736   1.015   2.162   2.802  1.3729  0.4618  1.0419
 9415TIP3    H249737   0.974   2.037   2.877  1.8244  0.3875  1.1727
 9416TIP3   OH249738   0.527   0.216  16.598  0.0120 -0.2776 -0.2215
 9416TIP3    H149739   0.533   0.306  16.567 -0.8266 -1.0540 -2.9703
 9416TIP3    H249740   0.600   0.171  16.555 -1.6767 -1.5907 -1.9072
 9417TIP3   OH249741   5.934   6.197  14.304 -1.0815  0.4220  0.0132
 9417TIP3    H149742   5.882   6.165  14.230 -2.6233  0.6167  0.9698
 9417TIP3    H249743   5.875   6.190  14.379  0.7668 -0.7191  1.4385
 9418TIP3   OH249744   1.061   3.269  14.843 -0.0013 -0.2386  0.5606
 9418TIP3    H149745   1.016   3.353  14.854  0.1998  0.2286 -1.7968
 9418TIP3    H249746   0.991   3.205  14.830 -0.0995  0.1371 -0.9297
 9419TIP3   OH249747   3.556   3.333  15.747 -0.5838 -0.7295  0.0403
 9419TIP3    H149748   3.649   3.310  15.742 -0.4543 -0.0003 -1.2039
 9419TIP3    H249749   3.514   3.255  15.783  1.0444  0.4312  5.2555
 9420TIP3   OH249750   3.939   1.836  15.770  0.5454  0.3839 -0.1542
 9420TIP3    H149751   3.967   1.763  15.715  0.5923  0.5379 -0.3335
 9420TIP3    H249752   3.844   1.827  15.776  0.7508 -1.2389  1.9683
 9421TIP3   OH249753   0.816   4.134   5.503  0.4177 -0.1593 -0.6178
 9421TIP3    H149754   0.724   4.151   5.520  0.4211 -1.0239  0.3492
 9421TIP3    H249755   0.854   4.221   5.488 -0.3903  0.2760 -0.2054
 9422TIP3   OH249756   5.732   0.250   4.208  0.2241  0.7029  0.2159
 9422TIP3    H149757   5.638   0.250   4.221  0.1428 -1.5800  0.1299
 9422TIP3    H249758   5.751   0.163   4.173  2.4695  0.7867  1.0366
 9423TIP3   OH249759   6.463   2.467  11.528  0.2267 -0.3387 -0.1589
 9423TIP3    H149760   6.377   2.509  11.531  0.7091  0.6648  0.2249
 9423TIP3    H249761   6.485   2.451  11.620  1.9826  2.7328  0.0901
 9424TIP3   OH249762   4.976   1.304  14.934  0.3008  0.2941  0.8749
 9424TIP3    H149763   4.914   1.263  14.874  2.3901 -0.5551 -0.8586
 9424TIP3    H249764   5.009   1.380  14.886  1.0233  0.3789  1.4830
 9425TIP3   OH249765   4.402   2.831  14.672 -0.3725 -0.4504  0.0918
 9425TIP3    H149766   4.410   2.796  14.583  0.6037 -1.0484  0.3924
 9425TIP3    H249767   4.416   2.755  14.729  0.5394  0.1799  0.7553
 9426TIP3   OH249768   4.505   2.326   1.096 -0.6425 -0.1727 -0.1538
 9426TIP3    H149769   4.522   2.238   1.064  0.2630 -0.3167  0.6850
 9426TIP3    H249770   4.529   2.383   1.023  0.5817 -0.5278 -0.0440
 9427TIP3   OH249771   3.077   4.591   6.463 -0.2791  0.1024  0.2906
 9427TIP3    H149772   3.072   4.678   6.502 -0.9254  0.8369 -1.3401
 9427TIP3    H249773   3.171   4.573   6.458 -0.1641  0.2980  1.4463
 9428TIP3   OH249774   0.937   2.013  14.004  0.1398 -0.9065 -0.0944
 9428TIP3    H149775   0.866   1.997  14.066  0.6087 -1.1148  0.4059
 9428TIP3    H249776   1.002   2.063  14.055 -0.2048  0.4250 -0.9077
 9429TIP3   OH249777   2.027   1.936   1.964 -0.4355  0.0180 -0.8388
 9429TIP3    H149778   2.041   1.901   2.052 -0.4783 -0.2902 -0.9569
 9429TIP3    H249779   1.994   2.025   1.980 -0.2037  0.0541 -0.5460
 9430TIP3   OH249780   5.691   4.066   4.788  0.0924 -0.0184  0.0546
 9430TIP3    H149781   5.635   4.115   4.728  2.6429  2.0865 -0.7798
 9430TIP3    H249782   5.710   3.984   4.742  2.1485  1.6274 -2.2325
 9431TIP3   OH249783   2.166   1.601   2.044 -0.3074 -0.2284 -0.3811
 9431TIP3    H149784   2.075   1.609   2.072 -0.2056 -1.2310  0.2805
 9431TIP3    H249785   2.170   1.517   1.998  0.6681 -1.1130  1.2385
 9432TIP3   OH249786   6.452   4.563   0.590 -0.0928 -0.4740  0.2577
 9432TIP3    H149787   6.444   4.577   0.495  0.4356 -1.9353 -0.0172
 9432TIP3    H249788   6.375   4.512   0.613 -0.6353  0.5461  0.7839
 9433TIP3   OH249789   1.003   1.023  15.026 -0.0813 -0.1380  0.1452
 9433TIP3    H149790   1.010   1.115  15.003 -2.6752  0.4687  1.3586
 9433TIP3    H249791   0.994   1.022  15.122 -1.3609 -1.4831  0.0696
 9434TIP3   OH249792   0.106   1.300  14.909  0.3682 -0.8742 -0.4704
 9434TIP3    H149793   0.145   1.326  14.993 -0.8770  0.3630 -0.2401
 9434TIP3    H249794   0.021   1.264  14.933 -1.0523  1.6813 -1.3068
 9435TIP3   OH249795   4.632   6.422  15.361  0.2785 -0.1536  0.3646
 9435TIP3    H149796   4.586   6.354  15.410 -1.0391 -0.5428 -1.3003
 9435TIP3    H249797   4.708   6.378  15.324 -1.3132 -1.2257 -1.8878
 9436TIP3   OH249798   3.067   6.036   2.405  0.0164 -0.1507 -0.0425
 9436TIP3    H149799   3.014   5.962   2.433  0.1654 -0.9044 -1.6400
 9436TIP3    H249800   3.141   5.996   2.359  0.5226  0.9656 -0.2269
 9437TIP3   OH249801   6.000   0.221   3.282 -0.3448 -0.2630  0.0870
 9437TIP3    H149802   6.009   0.240   3.189 -3.7984 -0.8826 -0.5029
 9437TIP3    H249803   5.965   0.302   3.320 -1.0559 -0.7029  0.3921
 9438TIP3   OH249804   2.742   6.320   4.935  0.3378 -0.2622 -0.6561
 9438TIP3    H149805   2.779   6.239   4.971 -0.7764 -0.0441  1.1603
 9438TIP3    H249806   2.691   6.292   4.859 -0.2935 -1.3590  0.1358
 9439TIP3   OH249807   3.133   4.632   3.537  0.0218 -0.2061  0.4999
 9439TIP3    H149808   3.078   4.556   3.553  1.1617 -1.1724 -0.0651
 9439TIP3    H249809   3.089   4.704   3.583 -0.1875 -1.5474  2.4853
 9440TIP3   OH249810   3.274   5.746   4.520  0.1901  0.2560  0.4865
 9440TIP3    H149811   3.215   5.771   4.591  1.2204 -0.6181  1.7141
 9440TIP3    H249812   3.261   5.652   4.510 -0.2064  0.4375 -0.7508
 9441TIP3   OH249813   0.847   6.230  17.172 -0.4416 -0.1137  0.1966
 9441TIP3    H149814   0.908   6.240  17.098  1.2816 -0.7662  1.4539
 9441TIP3    H249815   0.823   6.137  17.170 -1.6716  0.2047 -0.4709
 9442TIP3   OH249816   4.643   3.732  17.230 -0.2326  0.0813  0.3082
 9442TIP3    H149817   4.610   3.642  17.232 -0.1773  0.0381 -0.3833
 9442TIP3    H249818   4.567   3.786  17.250 -0.0825 -0.1474  1.6138
 9443TIP3   OH249819   5.458   2.982   2.662  0.0651 -0.1089  0.4323
 9443TIP3    H149820   5.537   3.032   2.644 -0.4650  0.4723 -0.3103
 9443TIP3    H249821   5.488   2.892   2.673  0.8037  0.0813 -0.0080
 9444TIP3   OH249822   6.397   5.874  14.158 -0.0244 -0.2388  0.0735
 9444TIP3    H149823   6.438   5.961  14.162  1.8277 -1.0791  0.8910
 9444TIP3    H249824   6.329   5.877  14.226  0.3343  0.4268  0.4220
 9445TIP3   OH249825   5.911   1.766  13.929 -0.1443 -0.6977  0.4336
 9445TIP3    H149826   5.945   1.844  13.972 -1.2540  0.3510 -0.5161
 9445TIP3    H249827   5.959   1.694  13.969  2.0320  0.5639  0.2541
 9446TIP3   OH249828   6.397   5.578   2.014 -0.2561 -0.0555  0.4277
 9446TIP3    H149829   6.380   5.535   1.930  0.2999  0.3634  0.1023
 9446TIP3    H249830   6.417   5.506   2.074  0.2296 -0.2832 -0.0079
 9447TIP3   OH249831   3.933   5.601  12.771  0.4847  0.3839  0.6000
 9447TIP3    H149832   3.915   5.690  12.803 -0.8813  0.4259 -0.2249
 9447TIP3    H249833   4.016   5.577  12.814  2.1496  2.9056 -0.9089
 9448TIP3   OH249834   5.508   4.284   4.311  0.3016  0.4970  0.1717
 9448TIP3    H149835   5.456   4.363   4.319 -0.5443 -0.0203 -0.0591
 9448TIP3    H249836   5.469   4.236   4.238 -1.0311 -1.4454  2.0290
 9449TIP3   OH249837   1.809   4.966  11.399 -0.2391 -0.0482  0.0936
 9449TIP3    H149838   1.767   4.997  11.318 -1.2699  1.7507  1.2574
 9449TIP3    H249839   1.750   4.995  11.469  1.4588 -0.0989  1.6005
 9450TIP3   OH249840   5.619   2.405   0.619 -0.2329  0.0750 -0.4235
 9450TIP3    H149841   5.535   2.362   0.606  0.0354 -0.7297  0.3976
 9450TIP3    H249842   5.619   2.432   0.711 -0.1739  1.3930 -0.7832
 9451TIP3   OH249843   1.966   2.163  13.806  0.0624 -0.4992  0.4236
 9451TIP3    H149844   1.988   2.074  13.834  0.2605 -0.4858  0.3108
 9451TIP3    H249845   2.049   2.200  13.778  0.6747  0.8161  3.4967
 9452TIP3   OH249846   6.413   6.088   5.064 -0.2685 -0.2036 -0.6525
 9452TIP3    H149847   6.421   6.050   5.152  0.4076 -0.4550 -0.8165
 9452TIP3    H249848   6.412   6.182   5.079  1.3484 -0.1909 -0.4620
 9453TIP3   OH249849   1.701   4.778   5.007  0.5374 -0.1150 -0.2157
 9453TIP3    H149850   1.735   4.865   4.987  0.4760 -0.2067 -0.7404
 9453TIP3    H249851   1.758   4.718   4.958 -0.3243 -0.2732 -1.0517
 9454TIP3   OH249852   4.706   4.547  17.078  0.3175  0.2118  0.1576
 9454TIP3    H149853   4.658   4.627  17.102  0.4088  0.4187 -0.3385
 9454TIP3    H249854   4.698   4.491  17.155  0.9863  1.0380  0.8451
 9455TIP3   OH249855   2.378   0.875   6.372 -0.2016  0.2679  0.3772
 9455TIP3    H149856   2.472   0.877   6.393  0.0379  0.5221 -0.6292
 9455TIP3    H249857   2.341   0.948   6.421  0.5895  1.7531 -1.1344
 9456TIP3   OH249858   3.572   0.249   2.492  0.8651 -0.6233 -0.5845
 9456TIP3    H149859   3.577   0.161   2.529  2.7422 -0.5518 -0.5574
 9456TIP3    H249860   3.545   0.234   2.401 -0.1553 -1.0950 -0.2208
 9457TIP3   OH249861   1.024   5.257   4.507 -0.0121 -0.4362 -0.2900
 9457TIP3    H149862   0.953   5.256   4.571  0.3047 -1.0150  0.0679
 9457TIP3    H249863   0.999   5.191   4.443 -1.0435  1.1543 -1.5941
 9458TIP3   OH249864   4.837   3.502  12.719 -0.6668 -0.0593  0.1431
 9458TIP3    H149865   4.762   3.562  12.716  0.4295  1.3356 -0.7735
 9458TIP3    H249866   4.913   3.559  12.707  0.4156 -1.6574 -0.9705
 9459TIP3   OH249867   0.412   6.693   6.631  0.0976  0.3932  0.3454
 9459TIP3    H149868   0.357   6.746   6.690 -0.1925  0.0572  0.3798
 9459TIP3    H249869   0.498   6.693   6.673 -0.3906 -0.8505  1.4339
 9460TIP3   OH249870   0.253   3.671   1.296 -0.0397  0.0097 -0.3463
 9460TIP3    H149871   0.266   3.629   1.210  0.6222 -4.7428  1.7447
 9460TIP3    H249872   0.159   3.660   1.313 -0.1053  0.6134 -0.3217
 9461TIP3   OH249873   2.508   5.174  13.944  0.2154  0.9253 -0.5615
 9461TIP3    H149874   2.489   5.267  13.927 -0.0775  0.5593 -2.5616
 9461TIP3    H249875   2.425   5.129  13.926  0.3469  0.2561  0.4298
 9462TIP3   OH249876   2.953   2.208  16.886  0.2317 -0.0202 -0.2611
 9462TIP3    H149877   2.901   2.219  16.806  1.0304  1.3788 -0.6160
 9462TIP3    H249878   2.890   2.223  16.957 -0.4111 -0.9683 -0.5988
 9463TIP3   OH249879   0.941   2.315  10.867  0.0296  0.2508  0.7701
 9463TIP3    H149880   0.849   2.310  10.844 -0.0820  0.6517  1.1281
 9463TIP3    H249881   0.948   2.390  10.926  0.8060  1.1066 -0.3568
 9464TIP3   OH249882   0.660   4.472   1.560  0.1308  0.4937 -0.5225
 9464TIP3    H149883   0.680   4.379   1.549  2.4680  1.0130 -1.2050
 9464TIP3    H249884   0.688   4.512   1.477 -1.1849  1.7736 -0.3808
 9465TIP3   OH249885   5.348   1.183   5.168 -0.2088  0.4750 -0.0361
 9465TIP3    H149886   5.312   1.134   5.094 -1.8891  0.5910  0.6542
 9465TIP3    H249887   5.434   1.144   5.183 -0.4269 -0.4946 -1.1481
 9466TIP3   OH249888   6.185   0.827   5.981  0.2592 -0.6410  0.0668
 9466TIP3    H149889   6.138   0.889   5.926  0.8211 -1.0510 -0.9037
 9466TIP3    H249890   6.186   0.868   6.068  0.3241  0.5546 -0.4724
 9467TIP3   OH249891   5.704   3.931  13.064 -0.7755  0.1383  0.1063
 9467TIP3    H149892   5.784   3.982  13.071 -1.1976  0.8201  0.1292
 9467TIP3    H249893   5.696   3.886  13.147 -0.5643  0.2925  0.2106
 9468TIP3   OH249894   1.787   3.015  12.910 -0.5917 -0.5763 -0.2420
 9468TIP3    H149895   1.814   2.934  12.867 -0.6237 -0.3854 -0.6251
 9468TIP3    H249896   1.750   2.987  12.994 -1.8451 -1.0825 -0.9407
 9469TIP3   OH249897   4.025   0.802  14.521 -0.2047  0.0392  0.5009
 9469TIP3    H149898   4.114   0.830  14.538 -0.4605  0.8896  0.4881
 9469TIP3    H249899   3.970   0.864  14.570 -0.8122  0.0994 -0.2404
 9470TIP3   OH249900   3.812   5.395  13.997  0.0594 -0.1002  0.2741
 9470TIP3    H149901   3.869   5.340  14.050  0.5767  0.6993  0.5611
 9470TIP3    H249902   3.793   5.470  14.053 -0.4277  0.1389 -0.2093
 9471TIP3   OH249903   1.978   1.195   5.117 -0.0765 -0.1816 -0.6733
 9471TIP3    H149904   1.903   1.217   5.172  0.6969 -1.7416  1.1291
 9471TIP3    H249905   2.050   1.247   5.152  0.0233  0.2484 -1.4834
 9472TIP3   OH249906   6.136   5.279  11.012  0.0227 -0.6402 -0.4521
 9472TIP3    H149907   6.049   5.262  10.975 -0.1694 -0.8329  0.0765
 9472TIP3    H249908   6.136   5.234  11.096  0.6139 -0.5825 -0.4129
 9473TIP3   OH249909   0.615   2.613   4.231 -0.0362 -0.3767 -0.3406
 9473TIP3    H149910   0.596   2.620   4.325  1.0407 -0.2768 -0.1212
 9473TIP3    H249911   0.647   2.699   4.206 -0.3947 -0.3803 -0.8276
 9474TIP3   OH249912   0.318   3.170   2.375 -0.0134  0.5362  0.4048
 9474TIP3    H149913   0.228   3.156   2.345 -0.4494 -0.8549  2.1980
 9474TIP3    H249914   0.343   3.088   2.418  2.2548  0.7772 -0.2984
 9475TIP3   OH249915   3.428   0.055   4.265  0.1921  0.1731 -0.4271
 9475TIP3    H149916   3.369   0.002   4.318  0.0824 -0.2692 -0.9832
 9475TIP3    H249917   3.494   0.086   4.327 -0.4118  0.3735  0.1303
 9476TIP3   OH249918   0.461   4.325   0.984 -0.3122 -0.2810 -0.3071
 9476TIP3    H149919   0.496   4.367   1.063  0.9403  0.3360 -1.1657
 9476TIP3    H249920   0.435   4.397   0.927 -0.7409 -0.7149 -0.6716
 9477TIP3   OH249921   2.066   5.277   0.674 -0.0467  0.0637  0.5233
 9477TIP3    H149922   2.004   5.298   0.605  0.1349  0.1857  0.3973
 9477TIP3    H249923   2.151   5.305   0.640 -0.1049  1.1957  1.2575
 9478TIP3   OH249924   2.806   0.701   1.688  0.1198 -0.1381 -0.7023
 9478TIP3    H149925   2.773   0.760   1.621 -1.0969 -0.7059 -0.6374
 9478TIP3    H249926   2.810   0.615   1.646 -2.6435 -0.9383  0.4241
 9479TIP3   OH249927   2.178   6.573   0.997  0.0028  0.4964  0.0015
 9479TIP3    H149928   2.263   6.611   1.017 -0.1426  2.1869 -2.1543
 9479TIP3    H249929   2.171   6.578   0.902 -1.1335 -2.7771 -0.2197
 9480TIP3   OH249930   2.052   1.096  12.830 -0.2642  0.1503  0.5782
 9480TIP3    H149931   1.960   1.075  12.847 -0.2818  0.8368  1.3936
 9480TIP3    H249932   2.054   1.121  12.738 -0.7866 -0.4361  0.4011
 9481TIP3   OH249933   2.629   2.133   6.019 -0.1397 -0.1112 -0.5021
 9481TIP3    H149934   2.580   2.133   6.101 -1.4681  1.1902 -1.2539
 9481TIP3    H249935   2.654   2.224   6.005  1.1679 -0.5067 -0.9377
 9482TIP3   OH249936   5.211   4.701  15.473  0.3537 -0.2510  0.3209
 9482TIP3    H149937   5.197   4.644  15.549 -1.0404 -1.0030 -0.4693
 9482TIP3    H249938   5.123   4.728  15.446  0.7247 -0.9232 -1.7259
 9483TIP3   OH249939   1.357   1.466  15.627  0.1941  0.5905 -0.1651
 9483TIP3    H149940   1.282   1.521  15.650  0.9704  1.8089 -0.4396
 9483TIP3    H249941   1.392   1.437  15.711 -1.4564 -1.2669 -0.0552
 9484TIP3   OH249942   1.270   2.983   2.990  0.3458  0.0031 -0.0299
 9484TIP3    H149943   1.326   2.957   3.064 -2.9194 -1.6110  2.1011
 9484TIP3    H249944   1.279   2.911   2.928 -0.7036 -1.2156  1.1607
 9485TIP3   OH249945   2.061   2.649   2.300 -0.2893 -0.0875 -0.4039
 9485TIP3    H149946   2.079   2.668   2.208 -2.4011 -2.5894 -1.4470
 9485TIP3    H249947   1.966   2.641   2.305 -0.1187 -1.7467  1.5967
 9486TIP3   OH249948   2.764   1.754   0.446  0.4424  0.9890  0.0230
 9486TIP3    H149949   2.740   1.842   0.475 -0.2119  1.1116 -0.8638
 9486TIP3    H249950   2.695   1.698   0.483  1.1573  0.7514  1.0544
 9487TIP3   OH249951   1.560   0.308  12.185 -0.1895  0.5270  0.2360
 9487TIP3    H149952   1.634   0.363  12.158  0.3132 -0.1305  0.2541
 9487TIP3    H249953   1.553   0.322  12.280 -2.5727  3.6010 -0.2347
 9488TIP3   OH249954   2.028   6.393   7.043  0.0361 -0.4647 -0.2660
 9488TIP3    H149955   2.047   6.483   7.069 -3.3973 -0.1368  1.6589
 9488TIP3    H249956   1.974   6.401   6.965  0.1818 -0.9095 -0.4165
 9489TIP3   OH249957   2.684   6.230  15.192  0.2308  0.0623 -0.0560
 9489TIP3    H149958   2.636   6.207  15.271  0.4233 -1.1193 -0.2662
 9489TIP3    H249959   2.690   6.326  15.194 -0.0143  0.0577  1.1996
 9490TIP3   OH249960   3.678   3.878   4.390 -0.4856  0.2696 -0.2885
 9490TIP3    H149961   3.738   3.923   4.450 -1.4103 -0.4794  1.2754
 9490TIP3    H249962   3.664   3.792   4.431 -4.3987  1.2153  0.6913
 9491TIP3   OH249963   1.054   5.549   6.328 -0.1203  0.0315  0.2362
 9491TIP3    H149964   1.140   5.512   6.305 -0.3161 -0.6683  0.6117
 9491TIP3    H249965   1.074   5.634   6.367  0.3123  0.5295 -1.0202
 9492TIP3   OH249966   3.382   6.635   3.417  0.0483  0.2238  0.1114
 9492TIP3    H149967   3.464   6.590   3.399 -0.3583 -0.4636 -0.0567
 9492TIP3    H249968   3.405   6.728   3.420  0.4458  0.2525 -2.2413
 9493TIP3   OH249969   1.572   4.113  13.514 -0.1472 -0.2526 -0.3712
 9493TIP3    H149970   1.603   4.121  13.424 -0.7268  0.7233 -0.4986
 9493TIP3    H249971   1.619   4.182  13.562  0.0527 -0.6753  0.0429
 9494TIP3   OH249972   5.014   3.735  12.729 -0.7766 -0.2285 -0.5067
 9494TIP3    H149973   5.083   3.699  12.785 -1.0355 -1.1325 -0.7495
 9494TIP3    H249974   4.950   3.771  12.790 -1.3776 -1.7962 -0.1804
 9495TIP3   OH249975   2.182   0.072  11.102 -0.3692 -0.1191 -0.2966
 9495TIP3    H149976   2.168  -0.012  11.059 -0.1213 -0.8957  1.0747
 9495TIP3    H249977   2.265   0.103  11.066 -1.0824  0.1802 -1.7585
 9496TIP3   OH249978   5.272   6.147  11.685  0.1134  0.1244 -0.5712
 9496TIP3    H149979   5.218   6.082  11.728  2.2774 -2.7827 -1.9351
 9496TIP3    H249980   5.219   6.177  11.611 -0.3612 -1.2935 -0.8319
 9497TIP3   OH249981   0.089   5.895  12.678  0.1297 -0.3524  1.2566
 9497TIP3    H149982   0.035   5.923  12.605 -0.6874 -1.6615  1.3284
 9497TIP3    H249983   0.027   5.877  12.749  0.8149 -0.1473  1.9193
 9498TIP3   OH249984   4.427   1.519   5.822 -0.1990 -0.3079  0.0037
 9498TIP3    H149985   4.402   1.438   5.778 -3.0863  0.5870 -0.2139
 9498TIP3    H249986   4.345   1.555   5.855  1.1498  1.9104  1.2103
 9499TIP3   OH249987   1.461   6.649   0.958  0.3333 -0.2886 -0.0835
 9499TIP3    H149988   1.366   6.640   0.947 -0.0331  1.5041  1.1022
 9499TIP3    H249989   1.483   6.585   1.026 -0.4448  0.7289  1.1814
 9500TIP3   OH249990   4.991   1.417  13.345  0.2439  0.5863  0.3322
 9500TIP3    H149991   4.971   1.472  13.269 -0.2293 -0.7462 -0.5434
 9500TIP3    H249992   4.907   1.409  13.391  0.4771  1.1867  0.8928
 9501TIP3   OH249993   6.489   4.977   2.588  0.3876  0.5138  0.5730
 9501TIP3    H149994   6.531   5.053   2.628 -0.3528  1.5994 -0.6610
 9501TIP3    H249995   6.412   5.012   2.544  1.2660 -0.5682 -1.9955
 9502TIP3   OH249996   5.825   2.308  10.429 -0.3977  0.1434 -0.3307
 9502TIP3    H149997   5.753   2.286  10.489 -0.6896  0.2633 -0.6344
 9502TIP3    H249998   5.813   2.249  10.355  1.0204 -1.2837  0.5075
 9503TIP3   OH249999   2.856   0.771   2.488  0.1343  0.0565 -0.3276
 9503TIP3    H150000   2.869   0.815   2.572  3.2504 -0.4745 -0.4182
 9503TIP3    H250001   2.832   0.842   2.428  0.8871  0.9795  0.4116
 9504TIP3   OH250002   5.798   3.947   5.789  0.1141 -0.0562 -0.5837
 9504TIP3    H150003   5.729   3.891   5.826  0.4974 -1.8710 -2.4440
 9504TIP3    H250004   5.879   3.912   5.827  0.2998 -0.3602 -1.2459
 9505TIP3   OH250005   4.757   1.222  14.747 -0.0559  0.2886  0.1783
 9505TIP3    H150006   4.759   1.147  14.689 -2.2246  0.2699  0.0361
 9505TIP3    H250007   4.709   1.191  14.824  0.2207  1.1420  0.7042
 9506TIP3   OH250008   3.489   1.972  11.993 -0.3236  0.0166 -0.0269
 9506TIP3    H150009   3.490   1.877  12.002 -1.0879 -0.0630 -0.7602
 9506TIP3    H250010   3.440   2.003  12.069 -0.2734 -0.1839  0.0870
 9507TIP3   OH250011   3.749   0.243  11.645  0.4146 -0.0458  0.4670
 9507TIP3    H150012   3.707   0.246  11.731  1.2371  0.3790  0.8633
 9507TIP3    H250013   3.679   0.217  11.585 -0.4676  0.8112  1.0908
 9508TIP3   OH250014   4.235   4.537   4.574 -0.1050  0.5762  0.1283
 9508TIP3    H150015   4.188   4.606   4.619  0.6729  0.6845  0.7843
 9508TIP3    H250016   4.281   4.489   4.643  1.1428  0.7784 -0.5194
 9509TIP3   OH250017   0.080   6.463   0.123 -0.5857  0.4200  0.5120
 9509TIP3    H150018   0.168   6.498   0.136 -0.1134 -0.9497  1.2216
 9509TIP3    H250019   0.092   6.387   0.067 -1.2421 -0.0704  1.0192
 9510TIP3   OH250020   1.391   1.264  13.709  0.1819  0.1967  0.0263
 9510TIP3    H150021   1.309   1.219  13.731  0.6564 -0.3829  0.6437
 9510TIP3    H250022   1.457   1.221  13.763  1.0957 -0.0964 -1.2790
 9511TIP3   OH250023   4.034   6.096   5.703  0.3264 -0.2733  0.1542
 9511TIP3    H150024   3.945   6.085   5.669  0.3929  1.3840 -0.6529
 9511TIP3    H250025   4.047   6.020   5.760 -2.1697  0.1904  1.5077
 9512TIP3   OH250026   2.783   4.619   1.308 -0.0695  0.1358 -0.4012
 9512TIP3    H150027   2.702   4.642   1.353  0.0165 -1.0521  0.4158
 9512TIP3    H250028   2.851   4.668   1.354  0.3577 -2.7928  2.4803
 9513TIP3   OH250029   4.305   2.020  11.129  0.4332 -0.1832  0.2233
 9513TIP3    H150030   4.238   2.081  11.097 -1.3927 -1.5454  1.2988
 9513TIP3    H250031   4.275   1.934  11.100  0.9560 -0.9770  1.9424
 9514TIP3   OH250032   5.462   2.617  12.352  0.2092 -0.0409  0.9196
 9514TIP3    H150033   5.503   2.687  12.302 -0.4345  0.7993  1.5543
 9514TIP3    H250034   5.517   2.609  12.431 -0.5203  0.7351  1.5241
 9515TIP3   OH250035   2.705   5.584   3.320 -0.9611  0.0800  0.3378
 9515TIP3    H150036   2.713   5.551   3.410 -0.7700 -0.4841  0.1201
 9515TIP3    H250037   2.664   5.512   3.272  1.1916 -0.6355 -0.5767
 9516TIP3   OH250038   1.176   6.183  13.673  0.1253  0.0108 -0.0914
 9516TIP3    H150039   1.260   6.140  13.690 -0.0041 -0.1312  0.1966
 9516TIP3    H250040   1.113   6.137  13.729 -0.4452 -0.8713 -1.4364
 9517TIP3   OH250041   2.028   2.249   2.057  1.1329  0.0860  0.1670
 9517TIP3    H150042   1.950   2.194   2.064  1.1347 -0.3671 -2.3293
 9517TIP3    H250043   2.013   2.322   2.117 -0.7804 -0.4645  0.4096
 9518TIP3   OH250044   3.786   2.978   1.032  0.0851 -0.3809  0.4307
 9518TIP3    H150045   3.753   2.901   1.078  1.2285 -2.0253 -1.4104
 9518TIP3    H250046   3.741   3.051   1.075 -0.6206 -1.9747  2.6098
 9519TIP3   OH250047   3.234   1.126  17.109  0.2199 -0.7331  0.0041
 9519TIP3    H150048   3.176   1.051  17.126  0.4943 -0.9756 -0.1274
 9519TIP3    H250049   3.174   1.198  17.087 -0.0389 -0.9474  0.0049
 9520TIP3   OH250050   3.813   5.092  17.174 -0.3019  0.8875 -0.2700
 9520TIP3    H150051   3.908   5.094  17.161 -0.2631  0.0281 -0.2008
 9520TIP3    H250052   3.778   5.065  17.089 -0.4505  0.7902 -0.1781
 9521TIP3   OH250053   1.945   6.357   3.262 -0.2890 -0.4147 -0.3575
 9521TIP3    H150054   2.034   6.327   3.247  0.7988  2.5469 -0.4302
 9521TIP3    H250055   1.947   6.395   3.350 -1.2660  0.3508 -0.6483
 9522TIP3   OH250056   1.099   5.883   0.104  0.1897  0.2279  0.0152
 9522TIP3    H150057   1.099   5.977   0.121  0.5858  0.2991 -0.3708
 9522TIP3    H250058   1.160   5.871   0.031  0.6054 -0.3898  0.4416
 9523TIP3   OH250059   5.943   5.232  12.640  0.4286 -0.7273 -0.0525
 9523TIP3    H150060   5.984   5.172  12.702  1.3036  1.2996  1.4519
 9523TIP3    H250061   5.852   5.241  12.670  0.8671  0.3002  1.0653
 9524TIP3   OH250062   0.934   6.247   2.061  0.3641  0.1953  0.2355
 9524TIP3    H150063   0.934   6.183   2.133  0.0378  0.9412  0.9158
 9524TIP3    H250064   1.020   6.236   2.020 -0.2606 -1.7261 -0.6338
 9525TIP3   OH250065   4.372   4.215  10.951 -0.7964 -0.2975 -0.3099
 9525TIP3    H150066   4.440   4.148  10.940 -1.2931 -0.6080 -1.7298
 9525TIP3    H250067   4.336   4.226  10.863 -1.5288  0.9902  0.1371
 9526TIP3   OH250068   2.443   4.745   4.682 -0.2782 -0.1039 -0.6583
 9526TIP3    H150069   2.355   4.757   4.718  0.2521  0.0929  0.6219
 9526TIP3    H250070   2.469   4.832   4.652 -0.6863 -0.2513 -1.4748
 9527TIP3   OH250071   2.823   6.668   1.685  0.5760 -0.5166  0.0047
 9527TIP3    H150072   2.845   6.666   1.779  1.1827  0.1749 -0.1152
 9527TIP3    H250073   2.907   6.660   1.641  0.4843  0.8763 -0.4755
 9528TIP3   OH250074   5.802   4.391   3.130 -0.0067  0.3506 -0.3442
 9528TIP3    H150075   5.851   4.439   3.197 -1.9529  0.0999  1.3377
 9528TIP3    H250076   5.710   4.403   3.153 -0.6437 -2.6347 -0.9280
 9529TIP3   OH250077   5.542   3.607   2.073 -0.4384 -0.1715 -0.9069
 9529TIP3    H150078   5.485   3.533   2.096  0.7006 -0.9696 -0.5583
 9529TIP3    H250079   5.619   3.595   2.128 -1.1423  2.5786  0.8779
 9530TIP3   OH250080   3.713   1.623  15.489 -0.2824 -0.3828 -0.1097
 9530TIP3    H150081   3.677   1.676  15.417 -0.9541 -0.2659  0.3021
 9530TIP3    H250082   3.656   1.546  15.493 -0.9706  0.1483  1.0185
 9531TIP3   OH250083   5.377   5.743   2.078 -0.0442  0.4693 -0.2552
 9531TIP3    H150084   5.365   5.653   2.107 -0.4056  0.6764  0.2426
 9531TIP3    H250085   5.461   5.770   2.115  0.6516 -0.0481 -1.3979
 9532TIP3   OH250086   2.466   6.273   1.645  0.3952 -0.7734 -0.2243
 9532TIP3    H150087   2.502   6.192   1.610  1.6559 -0.9852  1.4832
 9532TIP3    H250088   2.495   6.276   1.736  0.2459  1.4990 -0.1840
 9533TIP3   OH250089   5.698   3.730  13.862  0.1143 -0.0275 -0.2835
 9533TIP3    H150090   5.644   3.705  13.787 -0.1157  1.1657 -0.5383
 9533TIP3    H250091   5.786   3.701  13.839 -0.3760 -1.9624  0.1170
 9534TIP3   OH250092   2.851   5.800  14.296 -0.1003  0.4629  0.0783
 9534TIP3    H150093   2.796   5.878  14.302 -0.3125  0.2850  0.4838
 9534TIP3    H250094   2.801   5.740  14.241 -1.1624 -0.3804  1.8625
 9535TIP3   OH250095   1.855   0.668   0.247 -0.3081  0.2336 -0.4226
 9535TIP3    H150096   1.812   0.686   0.331 -1.1750 -1.0414 -0.5663
 9535TIP3    H250097   1.817   0.731   0.186 -3.0022 -1.6260 -0.8427
 9536TIP3   OH250098   6.278   5.373  16.629  0.6162  0.0820  0.1164
 9536TIP3    H150099   6.243   5.429  16.560  0.3677 -0.7083 -0.4223
 9536TIP3    H250100   6.371   5.365  16.610  1.1441  2.1808  1.5455
 9537TIP3   OH250101   1.773   6.610  17.334  0.9649  0.8294  0.1353
 9537TIP3    H150102   1.750   6.517  17.329  1.0030  0.8324 -0.0791
 9537TIP3    H250103   1.711   6.646  17.397  0.0782  0.9261 -0.7597
 9538TIP3   OH250104   1.495   5.052   4.885  0.5044 -0.0511 -0.8109
 9538TIP3    H150105   1.555   5.070   4.957  0.1721  2.6122 -1.0789
 9538TIP3    H250106   1.413   5.094   4.911 -0.3518 -1.1014 -1.7195
 9539TIP3   OH250107   6.478   4.667   4.914  0.3286  0.2004  0.0608
 9539TIP3    H150108   6.479   4.654   5.009 -0.0600 -0.7763 -0.0542
 9539TIP3    H250109   6.447   4.583   4.879 -2.1474  1.3852 -0.7873
 9540TIP3   OH250110   6.110   0.587  10.930 -0.1604 -0.1777  0.2354
 9540TIP3    H150111   6.092   0.522  10.862  0.5329 -1.2350  1.0184
 9540TIP3    H250112   6.042   0.572  10.995 -0.0241 -0.0973  0.3973
 9541TIP3   OH250113   6.379   6.692  14.884  0.5363  0.0638  0.5341
 9541TIP3    H150114   6.366   6.778  14.923  2.0436  0.2790  0.6075
 9541TIP3    H250115   6.404   6.710  14.793  1.4601 -0.2439  0.7119
 9542TIP3   OH250116   4.195   3.037   4.070 -0.6050  0.2451 -1.1288
 9542TIP3    H150117   4.165   3.110   4.125  1.2935  0.3552 -0.1760
 9542TIP3    H250118   4.115   3.005   4.028 -1.7397  1.7654 -0.2356
 9543TIP3   OH250119   2.262   1.108   2.097  0.2560  0.0144 -0.4006
 9543TIP3    H150120   2.253   1.014   2.115  1.5628 -0.2580 -1.0738
 9543TIP3    H250121   2.355   1.126   2.106 -0.0134  1.3389  0.0420
 9544TIP3   OH250122   1.240   2.335   4.840  0.7865  0.1509 -0.6136
 9544TIP3    H150123   1.160   2.375   4.873  0.9572 -0.8791  1.2316
 9544TIP3    H250124   1.289   2.406   4.801 -0.8321  0.8792 -1.3922
 9545TIP3   OH250125   2.897   6.415   5.150  0.1580 -0.4438 -0.0932
 9545TIP3    H150126   2.969   6.471   5.119 -0.9167  1.4876  0.7059
 9545TIP3    H250127   2.843   6.400   5.072  0.6314 -0.6446 -0.3845
 9546TIP3   OH250128   3.955   3.390  13.795  0.6631  0.1345  0.2717
 9546TIP3    H150129   3.904   3.309  13.803  1.8923 -0.7102 -0.1572
 9546TIP3    H250130   4.030   3.377  13.853  1.3462  0.5729 -0.4843
 9547TIP3   OH250131   4.721   5.725   2.132  0.1301 -0.0895  0.0858
 9547TIP3    H150132   4.793   5.731   2.068 -0.6116 -1.5495 -0.9574
 9547TIP3    H250133   4.668   5.803   2.114  0.2050 -0.2135 -0.7451
 9548TIP3   OH250134   1.189   3.816  10.966  0.5728 -0.2287 -0.0133
 9548TIP3    H150135   1.273   3.862  10.960  0.4435  0.1018  0.5744
 9548TIP3    H250136   1.129   3.881  11.003 -0.0432 -0.3411 -0.7886
 9549TIP3   OH250137   5.655   1.180   2.342 -0.2000 -0.0375 -0.1649
 9549TIP3    H150138   5.748   1.156   2.340  0.2322  1.4580  0.5317
 9549TIP3    H250139   5.616   1.119   2.405 -0.2791 -2.3745 -2.2930
 9550TIP3   OH250140   3.265   4.681  11.327  0.1211 -0.4243 -0.1910
 9550TIP3    H150141   3.314   4.740  11.270 -1.7593 -0.2925 -1.8119
 9550TIP3    H250142   3.189   4.655  11.274 -1.2610 -1.0419  1.9657
 9551TIP3   OH250143   6.128   2.629  16.119 -0.0050  0.4580  0.6281
 9551TIP3    H150144   6.192   2.654  16.185  1.1311 -0.8859  0.0727
 9551TIP3    H250145   6.044   2.631  16.166  0.6866  0.2157  1.9260
 9552TIP3   OH250146   3.879   2.540  15.899  0.6321 -0.2130 -0.1805
 9552TIP3    H150147   3.825   2.461  15.894  2.5228 -1.8307  2.1988
 9552TIP3    H250148   3.836   2.593  15.967  0.8435 -0.4871  0.1703
 9553TIP3   OH250149   6.210   5.739   2.376 -0.3538  0.0632  0.3631
 9553TIP3    H150150   6.263   5.661   2.390 -1.9672 -0.6214  3.6408
 9553TIP3    H250151   6.124   5.705   2.352 -0.9787  0.7692  1.4831
 9554TIP3   OH250152   6.637   2.267   1.895 -0.4938 -0.7225 -0.1170
 9554TIP3    H150153   6.552   2.233   1.924  0.4815 -2.0070  1.4768
 9554TIP3    H250154   6.650   2.228   1.809 -1.4445 -0.6349 -0.3133
 9555TIP3   OH250155   1.301   2.855   4.634 -0.4822 -0.4153  0.3397
 9555TIP3    H150156   1.289   2.950   4.635  0.2162 -0.3205  1.1203
 9555TIP3    H250157   1.286   2.828   4.725  0.8678 -0.8355  0.4634
 9556TIP3   OH250158   6.155   0.483   2.419 -0.0397 -0.3077 -0.0812
 9556TIP3    H150159   6.139   0.571   2.384 -0.7642 -0.8201 -1.0863
 9556TIP3    H250160   6.070   0.454   2.451  0.1229 -0.7676 -0.0554
 9557TIP3   OH250161   0.871   2.595  14.035 -0.2429 -0.0546 -0.0521
 9557TIP3    H150162   0.840   2.514  14.075  0.4181  0.1982  1.0171
 9557TIP3    H250163   0.911   2.568  13.953 -0.9352 -0.6854 -0.1882
 9558TIP3   OH250164   5.046   5.887  12.179 -0.0396 -0.1139  0.2422
 9558TIP3    H150165   5.106   5.938  12.233 -2.1606  0.6708  2.0094
 9558TIP3    H250166   5.078   5.797  12.186  1.9993  0.5023 -0.4613
 9559TIP3   OH250167   4.149   6.522   2.813  0.5759 -0.5396  0.3427
 9559TIP3    H150168   4.148   6.530   2.718 -2.9157  0.0403  0.2906
 9559TIP3    H250169   4.226   6.572   2.840  0.7024  0.7727 -2.1220
 9560TIP3   OH250170   4.035   6.080   4.913  0.2967 -0.4762 -0.3772
 9560TIP3    H150171   4.116   6.032   4.896  0.4201 -0.4189  0.0371
 9560TIP3    H250172   4.031   6.087   5.008 -0.9156 -1.7013 -0.3095
 9561TIP3   OH250173   1.876   4.431  12.011 -0.3451  0.3679 -0.0246
 9561TIP3    H150174   1.886   4.353  11.957 -0.6428  0.5925 -0.4038
 9561TIP3    H250175   1.959   4.478  12.000 -0.7248  0.8488 -0.9883
 9562TIP3   OH250176   2.899   3.320  15.127  0.0654 -0.0127  0.1204
 9562TIP3    H150177   2.829   3.304  15.191 -0.1245  0.2686 -0.0210
 9562TIP3    H250178   2.888   3.411  15.101 -0.2289 -0.2984 -0.7736
 9563TIP3   OH250179   2.100   1.203  12.317 -0.3438 -0.3621  0.1409
 9563TIP3    H150180   2.038   1.151  12.267 -0.6977  1.3511 -1.2883
 9563TIP3    H250181   2.049   1.279  12.348  0.5608  0.0516  0.6633
 9564TIP3   OH250182   6.587   1.439  17.046 -0.6102 -0.0851 -0.3604
 9564TIP3    H150183   6.589   1.430  17.141 -1.8189  1.1538 -0.1896
 9564TIP3    H250184   6.632   1.522  17.029  0.5548 -0.8199 -0.9733
 9565TIP3   OH250185   5.216   0.956   0.974 -0.4359  0.4946 -0.0592
 9565TIP3    H150186   5.142   0.899   0.956 -1.3495  1.9335 -1.1006
 9565TIP3    H250187   5.179   1.025   1.029  0.7873 -0.1989  1.7074
 9566TIP3   OH250188   5.671   4.808   4.217 -0.6088  0.1087  0.5387
 9566TIP3    H150189   5.748   4.851   4.254  0.7321 -0.2973 -1.5940
 9566TIP3    H250190   5.620   4.780   4.293 -0.2655  3.1243  2.0088
 9567TIP3   OH250191   0.573   6.498   2.045  1.1632 -0.5378 -0.2213
 9567TIP3    H150192   0.492   6.452   2.023  1.2789 -1.3113  0.8568
 9567TIP3    H250193   0.579   6.568   1.981 -0.9859  0.2929  0.4073
 9568TIP3   OH250194   1.139   3.600  11.799 -0.1552 -0.2670  0.3608
 9568TIP3    H150195   1.220   3.604  11.849  0.1363  0.2181 -0.1381
 9568TIP3    H250196   1.104   3.689  11.801  0.1347 -0.1139 -0.7194
 9569TIP3   OH250197   3.671   2.828  16.685 -0.1466  0.3183 -0.0554
 9569TIP3    H150198   3.678   2.757  16.748 -0.5245 -0.4710 -0.8897
 9569TIP3    H250199   3.578   2.831  16.662 -0.1799  1.2404  0.1412
 9570TIP3   OH250200   2.001   4.174   4.097  0.0148 -0.5301 -0.4554
 9570TIP3    H150201   2.088   4.182   4.136  0.2647  1.4489 -1.2807
 9570TIP3    H250202   2.018   4.162   4.003 -0.6044 -1.1069 -0.4999
 9571TIP3   OH250203   5.156   0.768  14.985 -0.2981 -0.7766 -0.2767
 9571TIP3    H150204   5.250   0.762  15.004 -0.6707  0.3253  2.3641
 9571TIP3    H250205   5.151   0.832  14.914  0.9079 -0.2897  0.0460
 9572TIP3   OH250206   1.560   0.735   4.471  0.4851 -0.1363 -0.0735
 9572TIP3    H150207   1.539   0.703   4.559 -1.3987  1.5355  0.1656
 9572TIP3    H250208   1.598   0.821   4.485  0.7403 -0.1110 -0.8789
 9573TIP3   OH250209   3.690   0.796   1.522  0.0745  0.4432 -0.6499
 9573TIP3    H150210   3.725   0.805   1.611 -0.8364 -0.3908 -0.1932
 9573TIP3    H250211   3.640   0.876   1.508 -1.6535 -0.3800  0.4797
 9574TIP3   OH250212   1.024   3.682  13.130  0.3189 -0.2737  0.0663
 9574TIP3    H150213   1.104   3.734  13.126 -0.1427  0.3759 -2.0552
 9574TIP3    H250214   0.963   3.736  13.181  0.6417  0.1198  0.0418
 9575TIP3   OH250215   3.458   1.133  15.041 -0.0077 -0.3974 -0.1013
 9575TIP3    H150216   3.452   1.037  15.036 -1.6473 -0.2644 -1.9480
 9575TIP3    H250217   3.529   1.156  14.982  0.1135 -0.4477  0.0240
 9576TIP3   OH250218   5.833   3.758   1.364  0.0276  0.1800  0.8900
 9576TIP3    H150219   5.819   3.678   1.416 -1.1351 -0.2784 -0.0554
 9576TIP3    H250220   5.808   3.732   1.275  1.8883  0.9607  0.0962
 9577TIP3   OH250221   6.134   1.062   4.536  0.0529 -0.0934 -0.0135
 9577TIP3    H150222   6.064   1.034   4.477  0.9016 -0.7182 -0.7464
 9577TIP3    H250223   6.139   0.993   4.602  0.3748 -0.3585 -0.3101
 9578TIP3   OH250224   2.675   1.506  12.551 -0.1491 -0.0919  0.1028
 9578TIP3    H150225   2.646   1.575  12.610 -0.4016 -0.6045  0.5847
 9578TIP3    H250226   2.683   1.549  12.465  0.4812  0.7178  0.5508
 9579TIP3   OH250227   2.347   3.489   2.189 -0.2693 -0.0314 -0.3409
 9579TIP3    H150228   2.254   3.490   2.210 -0.0843 -1.1499  0.6640
 9579TIP3    H250229   2.351   3.491   2.094 -1.2798  1.1796 -0.3835
 9580TIP3   OH250230   3.388   1.760   4.918  0.3999 -0.3679  0.3486
 9580TIP3    H150231   3.322   1.691   4.918  0.3231 -0.2972  0.6636
 9580TIP3    H250232   3.405   1.777   4.825  0.1816 -0.5828  0.2677
 9581TIP3   OH250233   1.442   1.454  14.850 -0.1587 -0.0635  0.5158
 9581TIP3    H150234   1.523   1.505  14.852  0.3831 -0.6553 -2.3888
 9581TIP3    H250235   1.447   1.400  14.929  1.9818  0.3600  0.7510
 9582TIP3   OH250236   5.529   0.787   0.306  0.0253  0.5153  0.5504
 9582TIP3    H150237   5.512   0.847   0.234 -1.1386 -0.0151  0.3562
 9582TIP3    H250238   5.622   0.799   0.326  0.0864  1.5092 -0.2585
 9583TIP3   OH250239   5.767   3.604  12.003 -0.0253  0.5047 -0.0898
 9583TIP3    H150240   5.801   3.555  11.928 -1.0873 -0.0598 -0.2046
 9583TIP3    H250241   5.697   3.659  11.966 -1.8257 -1.1213  0.7604
 9584TIP3   OH250242   4.302   0.588  15.766 -0.2115 -0.3491 -0.3692
 9584TIP3    H150243   4.355   0.560  15.692 -0.4443  1.7643 -1.4201
 9584TIP3    H250244   4.215   0.604  15.728  0.0384  2.1762 -0.0232
 9585TIP3   OH250245   1.647   5.088  13.063  0.0730 -0.1515 -0.6863
 9585TIP3    H150246   1.610   5.175  13.048 -0.3825 -0.3833 -0.9525
 9585TIP3    H250247   1.717   5.080  12.998 -1.3444 -0.8262 -2.1961
 9586TIP3   OH250248   2.832   6.082  12.374  0.0078  0.7167 -0.0331
 9586TIP3    H150249   2.746   6.106  12.408 -0.1715  2.1063 -1.3232
 9586TIP3    H250250   2.894   6.127  12.433  0.0727 -2.3486  2.4942
 9587TIP3   OH250251   5.800   4.549   4.294  0.1579 -0.4765 -0.1782
 9587TIP3    H150252   5.759   4.633   4.314  0.7357 -0.3299  0.3831
 9587TIP3    H250253   5.790   4.540   4.199 -1.8246 -0.7841  0.0075
 9588TIP3   OH250254   2.958   4.220   3.276  0.2045  0.3380 -0.0626
 9588TIP3    H150255   2.928   4.237   3.187 -0.1631  1.4164  0.2577
 9588TIP3    H250256   2.879   4.226   3.330  0.5489  0.4859  0.4342
 9589TIP3   OH250257   5.638   3.445  15.416 -0.2205  0.0912  0.3441
 9589TIP3    H150258   5.639   3.422  15.508  1.5977 -2.3680 -0.1835
 9589TIP3    H250259   5.549   3.425  15.387 -0.8436  1.0094  1.5598
 9590TIP3   OH250260   5.042   4.436   2.245  0.0361  0.2931 -0.2884
 9590TIP3    H150261   5.102   4.423   2.172 -0.3809  0.9726 -0.7630
 9590TIP3    H250262   5.072   4.375   2.312  1.3065  0.6914 -0.4738
 9591TIP3   OH250263   3.014   2.267  11.928 -0.4023  0.6559  0.4323
 9591TIP3    H150264   2.959   2.272  12.007 -2.6016 -1.2126 -0.8490
 9591TIP3    H250265   3.039   2.175  11.923  0.3395  0.9090 -0.6720
 9592TIP3   OH250266   3.307   1.047  12.873  0.0739  0.4254  0.2808
 9592TIP3    H150267   3.290   1.137  12.845  1.2406  0.6163  0.1494
 9592TIP3    H250268   3.224   1.019  12.912 -0.9580  0.8558 -1.4668
 9593TIP3   OH250269   6.204   2.727   5.901  0.3336  0.6952  0.4227
 9593TIP3    H150270   6.123   2.755   5.944  0.5249 -0.0051  1.2537
 9593TIP3    H250271   6.209   2.633   5.918  0.1081  0.2640 -1.6533
 9594TIP3   OH250272   2.138   4.452  11.365 -0.0293  0.4774  0.9254
 9594TIP3    H150273   2.066   4.498  11.322 -0.0581 -0.4541 -0.0628
 9594TIP3    H250274   2.212   4.463  11.305  0.3580  0.4898  1.4055
 9595TIP3   OH250275   2.697   6.283  15.540  0.5012 -0.3613  0.2134
 9595TIP3    H150276   2.722   6.375  15.540  0.2027 -0.2802  0.5693
 9595TIP3    H250277   2.628   6.276  15.474  1.4187 -0.5792 -0.7446
 9596TIP3   OH250278   0.847   2.764   4.542  0.2759 -0.3771  0.7169
 9596TIP3    H150279   0.825   2.671   4.548 -0.9116 -0.0316  2.2742
 9596TIP3    H250280   0.765   2.809   4.562  0.5526  1.0351 -1.1307
 9597TIP3   OH250281   2.934   2.564   4.906 -0.9510 -0.2321 -0.1144
 9597TIP3    H150282   2.936   2.516   4.989 -0.6114 -0.7946 -0.4352
 9597TIP3    H250283   2.860   2.527   4.859 -0.2395 -0.9841 -0.6676
 9598TIP3   OH250284   2.121   0.002   1.594 -0.0085  0.3842 -0.6386
 9598TIP3    H150285   2.068   0.058   1.537  0.1159  4.1126  2.5000
 9598TIP3    H250286   2.057  -0.056   1.636 -0.7044  0.6770 -1.2637
 9599TIP3   OH250287   0.956   0.609  14.648  0.2451 -0.0219  0.3774
 9599TIP3    H150288   1.048   0.583  14.641 -0.2956 -1.7469 -0.7548
 9599TIP3    H250289   0.920   0.594  14.561 -1.3384 -0.2699  1.0461
 9600TIP3   OH250290   5.554   2.519  11.398 -0.0081 -0.2560  0.5859
 9600TIP3    H150291   5.569   2.441  11.452  1.3884 -0.2356  0.2580
 9600TIP3    H250292   5.522   2.484  11.315  1.5747 -0.5904  0.0826
 9601TIP3   OH250293   0.369   6.102  17.041  0.0526  0.5308 -0.5081
 9601TIP3    H150294   0.421   6.178  17.014  2.0646 -1.0766 -1.4685
 9601TIP3    H250295   0.433   6.039  17.073 -1.6445 -0.4504  1.1796
 9602TIP3   OH250296   1.269   2.415  12.242 -0.0369  0.3914  0.5870
 9602TIP3    H150297   1.235   2.503  12.223 -0.5226  0.3781  1.3458
 9602TIP3    H250298   1.213   2.383  12.313  0.3792 -0.3844  0.5720
 9603TIP3   OH250299   0.707   6.485   0.050 -0.4531  0.2936  0.0980
 9603TIP3    H150300   0.797   6.505   0.026 -0.2422  0.2080  0.8071
 9603TIP3    H250301   0.672   6.437  -0.025  0.6038 -1.1834  0.5113
 9604TIP3   OH250302   3.128   6.332   5.540 -0.2962  0.0138  0.7459
 9604TIP3    H150303   3.159   6.252   5.584  0.5870 -0.0550  0.0260
 9604TIP3    H250304   3.171   6.403   5.587 -0.4299  0.0125  0.8675
 9605TIP3   OH250305   6.258   4.981   4.592  0.3559  0.5610  0.8223
 9605TIP3    H150306   6.278   5.075   4.601  1.7026  0.6101 -1.7285
 9605TIP3    H250307   6.339   4.937   4.616 -0.0922  0.0640  1.4418
 9606TIP3   OH250308   1.667   1.386   5.432  0.3356  0.2191  0.0756
 9606TIP3    H150309   1.674   1.292   5.415 -0.1774  0.0698  0.6617
 9606TIP3    H250310   1.597   1.416   5.373  1.1957  0.4409 -0.8649
 9607TIP3   OH250311   4.866   0.337   4.752 -0.5478  0.4665 -0.2317
 9607TIP3    H150312   4.882   0.244   4.771  0.5556  0.5158 -0.7916
 9607TIP3    H250313   4.830   0.337   4.663  1.1897  0.6523 -0.9820
 9608TIP3   OH250314   6.623   4.207   5.311 -0.2113  0.6637 -0.5142
 9608TIP3    H150315   6.560   4.136   5.300  0.2919  0.1023  0.1358
 9608TIP3    H250316   6.656   4.196   5.400 -0.0688  1.6712 -0.4314
 9609TIP3   OH250317   6.448   5.110   4.864 -0.3535 -0.1741 -0.3037
 9609TIP3    H150318   6.396   5.156   4.798 -0.5328 -0.2879 -0.2412
 9609TIP3    H250319   6.400   5.029   4.880 -0.2602 -0.1886 -0.1002
 9610TIP3   OH250320   2.686   3.263  16.677 -0.0217  0.1028  0.2396
 9610TIP3    H150321   2.733   3.229  16.601  0.9761  0.8634  0.4987
 9610TIP3    H250322   2.632   3.334  16.643 -1.3446 -1.0219 -0.1282
 9611TIP3   OH250323   0.166   4.487   5.911  0.1545 -0.8051  0.2403
 9611TIP3    H150324   0.132   4.516   5.826  0.5164 -0.6803  0.1339
 9611TIP3    H250325   0.172   4.392   5.903 -0.4488 -0.8579  0.3676
 9612TIP3   OH250326   4.222   6.567  14.253  0.2566 -0.0559 -0.1432
 9612TIP3    H150327   4.143   6.591  14.302  0.2162 -0.1589 -0.1565
 9612TIP3    H250328   4.252   6.649  14.213  0.4341  0.0784  0.2622
 9613TIP3   OH250329   1.921   2.892   1.082 -0.7607  0.3004 -0.2462
 9613TIP3    H150330   1.991   2.916   1.143 -0.2068  1.1280 -1.1898
 9613TIP3    H250331   1.862   2.967   1.084 -0.7226  0.3449 -0.7429
 9614TIP3   OH250332   0.100   6.171  16.451 -0.3204 -0.0278  0.2223
 9614TIP3    H150333   0.068   6.258  16.475  1.0952  0.9445 -1.2009
 9614TIP3    H250334   0.175   6.157  16.509 -2.0638 -1.5232  2.2946
 9615TIP3   OH250335   5.752   2.150   0.561 -0.4230  0.2390  0.1044
 9615TIP3    H150336   5.719   2.234   0.594  1.2507  0.8465  0.3091
 9615TIP3    H250337   5.835   2.171   0.520 -1.2073 -0.9222 -2.2434
 9616TIP3   OH250338   2.423   3.785   1.414 -0.2630  0.4227  0.3348
 9616TIP3    H150339   2.339   3.822   1.441 -0.2467  2.7964 -2.3551
 9616TIP3    H250340   2.482   3.860   1.412  1.3046 -0.7778 -0.0608
 9617TIP3   OH250341   1.386   0.423  11.047  0.4864 -0.7089  0.3972
 9617TIP3    H150342   1.296   0.455  11.043  1.0635  0.9717  0.1930
 9617TIP3    H250343   1.398   0.377  10.963  0.2377  0.2605 -0.1850
 9618TIP3   OH250344   4.455   5.380  15.071 -0.1596 -0.4171  0.2425
 9618TIP3    H150345   4.475   5.389  14.978 -0.7643 -0.1492  0.1330
 9618TIP3    H250346   4.527   5.424  15.116  0.1888 -0.6456 -0.0956
 9619TIP3   OH250347   1.833   2.834  12.266  0.3765 -0.1014  0.2354
 9619TIP3    H150348   1.747   2.858  12.232 -0.2343  0.8340  2.3006
 9619TIP3    H250349   1.863   2.913  12.312  1.5965 -0.9795  0.9852
 9620TIP3   OH250350   4.928   1.008   3.276  0.3147  0.3892 -0.4208
 9620TIP3    H150351   4.854   1.009   3.216  1.4114  0.5175 -1.8104
 9620TIP3    H250352   4.917   0.927   3.326 -1.7829  1.3341  0.7811
 9621TIP3   OH250353   0.742   5.702  11.978  0.1051  0.5120  0.0906
 9621TIP3    H150354   0.837   5.713  11.977  0.0609  1.0105  0.8148
 9621TIP3    H250355   0.727   5.622  12.028  0.1878 -0.2598 -1.0688
 9622TIP3   OH250356   3.273   1.346  14.661 -0.8625 -0.1175 -0.4204
 9622TIP3    H150357   3.321   1.409  14.714  0.0346 -1.1277 -0.0003
 9622TIP3    H250358   3.222   1.295  14.724 -3.1425  1.3736 -0.8897
 9623TIP3   OH250359   6.233   0.043   1.805  0.3392  0.4385  0.1382
 9623TIP3    H150360   6.188   0.106   1.860  0.9819  1.3708 -0.3655
 9623TIP3    H250361   6.313   0.021   1.854  0.6017  0.7822 -0.1352
 9624TIP3   OH250362   1.973   3.927  15.429 -0.4321  0.1546  0.0073
 9624TIP3    H150363   1.992   3.892  15.342 -0.4591 -1.4297  0.6073
 9624TIP3    H250364   2.059   3.938  15.470 -0.2900  2.4709 -0.7365
 9625TIP3   OH250365   1.877   1.551   0.074 -0.1488  0.0473 -0.7827
 9625TIP3    H150366   1.833   1.472   0.043  0.7021 -0.5650 -0.4639
 9625TIP3    H250367   1.805   1.610   0.098 -0.7986 -0.9852 -0.1109
 9626TIP3   OH250368   0.715   4.514   4.959  0.0704  0.1262 -0.4498
 9626TIP3    H150369   0.802   4.482   4.933 -0.5496 -0.4242 -1.9999
 9626TIP3    H250370   0.729   4.606   4.980  1.0506  0.0346 -0.6481
 9627TIP3   OH250371   3.678   6.275  14.501  0.3021 -0.0777 -0.1462
 9627TIP3    H150372   3.704   6.192  14.542 -0.1341 -0.7864 -1.2444
 9627TIP3    H250373   3.583   6.270  14.493  0.0199  1.4418  1.6186
 9628TIP3   OH250374   2.041   6.431   2.284  0.2829 -0.6440  0.1749
 9628TIP3    H150375   2.038   6.456   2.192 -1.4595  1.6233  0.7388
 9628TIP3    H250376   2.014   6.339   2.285 -2.5001  0.0534 -1.3962
 9629TIP3   OH250377   0.981   0.536  17.428  0.9404  0.7040  0.0410
 9629TIP3    H150378   0.941   0.620  17.451 -2.0391 -0.8502  0.9850
 9629TIP3    H250379   0.953   0.476  17.496  1.7276 -1.4405 -1.4099
 9630TIP3   OH250380   2.854   5.877  17.159 -0.6838  0.5978 -0.6934
 9630TIP3    H150381   2.809   5.905  17.239  0.2312 -0.5088  0.2361
 9630TIP3    H250382   2.788   5.827  17.111 -0.3927 -1.4197  0.8719
 9631TIP3   OH250383   5.378   2.951  13.315 -0.2321 -0.6880 -0.0239
 9631TIP3    H150384   5.331   2.911  13.242 -1.4098  2.8886 -1.4224
 9631TIP3    H250385   5.329   2.923  13.393 -0.4673 -2.5432 -0.7932
 9632TIP3   OH250386   5.521   0.749   5.982 -0.2073  0.3082 -0.0713
 9632TIP3    H150387   5.467   0.669   5.982 -0.7242  0.6002  1.9775
 9632TIP3    H250388   5.492   0.797   5.904 -0.8052 -0.8967 -0.6271
 9633TIP3   OH250389   1.468   6.059   1.772 -0.5485 -0.1666  0.0056
 9633TIP3    H150390   1.443   6.082   1.682  0.2593  2.0870  0.2943
 9633TIP3    H250391   1.452   6.138   1.822  0.1523 -1.0131  1.6332
 9634TIP3   OH250392   6.126   0.621  14.096 -0.1272  0.1545 -0.3660
 9634TIP3    H150393   6.147   0.654  14.009  0.7751 -2.0139 -1.0588
 9634TIP3    H250394   6.030   0.620  14.099 -0.1674  0.4958 -1.2451
 9635TIP3   OH250395   3.169   2.636  16.151  0.2086  0.0198 -0.4922
 9635TIP3    H150396   3.187   2.717  16.199 -0.3832 -0.6897  0.9923
 9635TIP3    H250397   3.227   2.639  16.075 -0.4470  2.2510 -0.9586
 9636TIP3   OH250398   3.988   4.242   0.617  0.2188  0.1071  0.7440
 9636TIP3    H150399   3.989   4.321   0.671 -1.7253  0.2107  0.6990
 9636TIP3    H250400   3.905   4.246   0.570  0.6406 -1.3609 -0.2058
 9637TIP3   OH250401   1.417   4.060  11.761  0.2837  0.5023 -0.3829
 9637TIP3    H150402   1.333   4.049  11.715 -0.1144 -0.6054  0.5843
 9637TIP3    H250403   1.413   4.000  11.835  0.8113  2.4075  1.2856
 9638TIP3   OH250404   1.667   5.332  15.627 -0.1847  0.0645 -0.1873
 9638TIP3    H150405   1.760   5.351  15.638  0.1166  0.1174 -2.5199
 9638TIP3    H250406   1.623   5.395  15.685  1.1721  0.5413  0.3685
 9639TIP3   OH250407   3.259   1.305  15.588  0.1272 -0.1395  0.1491
 9639TIP3    H150408   3.208   1.226  15.571 -0.2230  0.2134 -0.4624
 9639TIP3    H250409   3.320   1.310  15.515 -1.2412  1.2685 -0.9699
 9640TIP3   OH250410   6.671   6.701   2.840 -0.2591 -0.2119 -0.0489
 9640TIP3    H150411   6.734   6.650   2.891 -1.4273 -1.6688 -0.0068
 9640TIP3    H250412   6.691   6.792   2.862  0.4732 -0.7220  1.5620
 9641TIP3   OH250413   1.854   4.367   5.102  0.4741  0.4178 -0.2627
 9641TIP3    H150414   1.804   4.343   5.024 -0.9171  0.2446  0.6532
 9641TIP3    H250415   1.939   4.324   5.090  0.2085  0.2127 -1.5686
 9642TIP3   OH250416   5.169   2.341   0.205 -0.1680  0.0304 -0.4825
 9642TIP3    H150417   5.184   2.396   0.282 -0.2486 -0.4336 -0.1363
 9642TIP3    H250418   5.194   2.397   0.131  1.3389 -0.0147 -0.0401
 9643TIP3   OH250419   1.212   2.445   3.643  0.2659  0.2337 -0.2661
 9643TIP3    H150420   1.123   2.478   3.636  0.3972  0.7288  0.3875
 9643TIP3    H250421   1.251   2.464   3.558  0.4082  1.9661  0.1642
 9644TIP3   OH250422   5.782   5.765   6.184 -0.2832 -0.4484  0.3234
 9644TIP3    H150423   5.862   5.758   6.132 -0.3660  1.9311 -0.2276
 9644TIP3    H250424   5.750   5.675   6.190  0.5669 -1.0555 -2.4625
 9645TIP3   OH250425   5.322   6.735  16.785  0.3013  0.0899  0.2244
 9645TIP3    H150426   5.231   6.706  16.782  0.1758  0.5460 -0.8605
 9645TIP3    H250427   5.361   6.683  16.855 -0.3382 -1.4112 -0.4800
 9646TIP3   OH250428   3.183   0.106  13.889  0.4225 -0.3425 -0.2910
 9646TIP3    H150429   3.182   0.064  13.803  0.0952 -0.2274 -0.3442
 9646TIP3    H250430   3.118   0.176  13.883  1.2122  0.4067 -0.3127
 9647TIP3   OH250431   5.878   6.723   6.542  0.7039  0.2805  0.0937
 9647TIP3    H150432   5.954   6.732   6.601  0.3308  1.7949  0.3926
 9647TIP3    H250433   5.843   6.812   6.536 -0.4755 -0.2332 -0.8195
 9648TIP3   OH250434   3.969   5.253  15.280  0.4744 -0.0486 -0.2477
 9648TIP3    H150435   4.000   5.343  15.266 -1.0311  0.4381 -0.6353
 9648TIP3    H250436   3.890   5.247  15.227 -0.7669 -0.8581  1.6058
 9649TIP3   OH250437   5.608   6.155   1.293 -0.4360  0.0052  0.3126
 9649TIP3    H150438   5.583   6.119   1.208 -0.7682  1.0764 -0.0643
 9649TIP3    H250439   5.527   6.157   1.343 -0.6243  1.0796 -0.0059
 9650TIP3   OH250440   6.467   0.874   3.843 -0.4810  0.1788  0.3460
 9650TIP3    H150441   6.541   0.831   3.887 -1.8431 -1.6874  0.9665
 9650TIP3    H250442   6.397   0.874   3.908 -2.1496 -1.4746 -1.3131
 9651TIP3   OH250443   6.118   5.505  16.466 -0.1230 -0.2567  0.1921
 9651TIP3    H150444   6.022   5.508  16.470 -0.1312 -0.3887  0.0902
 9651TIP3    H250445   6.142   5.587  16.421 -0.1792 -0.1488  0.3569
 9652TIP3   OH250446   5.922   0.558   5.448  1.1149  0.2737  0.4118
 9652TIP3    H150447   5.924   0.613   5.526 -2.4192 -0.2705  1.0567
 9652TIP3    H250448   5.915   0.620   5.375  1.9161  0.7211  0.7002
 9653TIP3   OH250449   3.868   5.414  11.700 -0.0723  0.0928  0.4023
 9653TIP3    H150450   3.906   5.341  11.747 -0.8059 -0.4482  0.1643
 9653TIP3    H250451   3.774   5.408  11.717 -0.0245  1.7460  1.4511
 9654TIP3   OH250452   3.614   3.869  12.464  0.8471  0.1028  0.4306
 9654TIP3    H150453   3.643   3.894  12.552  1.0042  0.5856  0.2475
 9654TIP3    H250454   3.694   3.872  12.411  1.2487 -2.5726  0.7448
 9655TIP3   OH250455   5.010   6.577   5.586 -0.0186 -0.0782  0.1471
 9655TIP3    H150456   4.916   6.576   5.571 -0.2188 -2.0391  1.1987
 9655TIP3    H250457   5.021   6.624   5.669 -0.2104 -0.8949  0.6459
 9656TIP3   OH250458   3.309   2.271  16.904 -0.8533 -0.5035  0.8115
 9656TIP3    H150459   3.238   2.324  16.941  0.6287  2.3213 -0.0393
 9656TIP3    H250460   3.314   2.299  16.812  1.0461 -0.9310  0.7373
 9657TIP3   OH250461   4.980   6.600  13.905 -0.1106 -0.2506 -0.0280
 9657TIP3    H150462   5.049   6.637  13.850  0.9538 -1.2092  0.6191
 9657TIP3    H250463   5.003   6.507  13.911 -2.2727 -0.8996 -0.9862
 9658TIP3   OH250464   2.285   1.876  11.019  0.0095  0.2304 -0.2814
 9658TIP3    H150465   2.251   1.790  11.043  1.3254 -0.4676 -0.7823
 9658TIP3    H250466   2.338   1.859  10.940  0.5231  1.4460 -0.2142
 9659TIP3   OH250467   3.384   0.871   3.248  0.0302  0.3603 -0.6929
 9659TIP3    H150468   3.297   0.909   3.261 -1.5488 -2.8434 -0.9965
 9659TIP3    H250469   3.371   0.777   3.256  3.5354 -0.2559 -0.6555
 9660TIP3   OH250470   0.574   4.923   5.812  0.3766  0.1940  0.3046
 9660TIP3    H150471   0.557   4.831   5.793 -0.8463  0.7090 -1.3045
 9660TIP3    H250472   0.490   4.966   5.796  0.5584  1.4410  2.3168
 9661TIP3   OH250473   4.479   1.004   0.376 -0.3501 -0.5766  0.0228
 9661TIP3    H150474   4.400   1.027   0.327 -0.2801 -0.9086 -0.2473
 9661TIP3    H250475   4.475   1.060   0.454 -0.4246  0.0035 -0.3888
 9662TIP3   OH250476   1.455   0.759   5.407  0.0397  0.3420  0.1404
 9662TIP3    H150477   1.441   0.851   5.383  1.0579  0.5523  0.2914
 9662TIP3    H250478   1.408   0.709   5.340  0.9124  0.9529 -0.9588
 9663TIP3   OH250479   0.604   5.461  12.980  0.5984  0.3741  0.2053
 9663TIP3    H150480   0.652   5.417  12.910 -2.0276  0.0681 -1.5268
 9663TIP3    H250481   0.542   5.396  13.013 -0.6433  1.5616  0.3280
 9664TIP3   OH250482   5.541   1.722  11.227  0.0719 -0.4049 -0.1251
 9664TIP3    H150483   5.505   1.735  11.139 -0.4208 -0.3967  0.0727
 9664TIP3    H250484   5.597   1.644  11.219  0.2683 -0.2249 -0.5133
 9665TIP3   OH250485   1.897   0.790   2.694  0.3655  0.3399 -0.5428
 9665TIP3    H150486   1.861   0.724   2.636  0.5053  0.6104 -0.9411
 9665TIP3    H250487   1.823   0.819   2.748  0.9608 -2.8115  2.3068
 9666TIP3   OH250488   1.194   2.237   1.950 -0.4924 -0.1389 -0.3379
 9666TIP3    H150489   1.261   2.277   1.894  0.2930  0.7164  1.1498
 9666TIP3    H250490   1.161   2.163   1.898  2.4094 -1.3172 -0.7146
 9667TIP3   OH250491   0.108   5.264   6.546 -0.0321  0.0476  0.0944
 9667TIP3    H150492   0.140   5.354   6.542 -1.9560  0.7450 -1.2963
 9667TIP3    H250493   0.023   5.272   6.589 -0.5804 -0.9647 -0.7688
 9668TIP3   OH250494   6.369   2.459   5.153 -0.5954 -0.0003 -0.1084
 9668TIP3    H150495   6.320   2.513   5.214  1.8508  1.2171  0.8945
 9668TIP3    H250496   6.421   2.401   5.208  0.3232 -0.1355 -1.0760
 9669TIP3   OH250497   5.622   4.468  10.982  0.5063 -0.1408 -0.3189
 9669TIP3    H150498   5.575   4.537  11.029  1.0813  0.4687 -0.6240
 9669TIP3    H250499   5.566   4.446  10.908  1.5801  2.0402 -1.8663
 9670TIP3   OH250500   3.698   3.746   0.877  0.6055 -0.0488 -0.0600
 9670TIP3    H150501   3.620   3.800   0.868  0.4852 -0.1985  0.0720
 9670TIP3    H250502   3.664   3.656   0.884  0.7935 -0.1247 -0.1107
 9671TIP3   OH250503   3.253   3.674  17.379 -0.1786 -0.0795  0.1970
 9671TIP3    H150504   3.252   3.614  17.305 -0.5532 -1.4226  1.2427
 9671TIP3    H250505   3.321   3.738  17.357  2.3769 -2.5395  0.2349
 9672TIP3   OH250506   4.573   3.472  16.989  0.1532  0.3590 -0.4086
 9672TIP3    H150507   4.558   3.556  16.947  1.8895  1.2858  0.6938
 9672TIP3    H250508   4.544   3.485  17.079  1.8130  0.3123  0.1719
 9673TIP3   OH250509   0.700   3.561  10.911  0.2061  0.3002  0.2683
 9673TIP3    H150510   0.636   3.629  10.933  1.1891  0.7558  1.9266
 9673TIP3    H250511   0.777   3.609  10.881 -0.0190 -0.2257 -1.2239
 9674TIP3   OH250512   0.591   3.397  12.491 -0.0466 -0.5276 -0.1682
 9674TIP3    H150513   0.658   3.445  12.540 -0.3025 -0.4834  0.1365
 9674TIP3    H250514   0.558   3.460  12.427  2.1339 -1.3121 -2.2231
 9675TIP3   OH250515   1.895   6.548  16.970  0.3574  0.3318 -0.2364
 9675TIP3    H150516   1.956   6.622  16.966 -0.5034  1.0314 -0.7198
 9675TIP3    H250517   1.809   6.587  16.954 -0.2748 -0.5745  0.8570
 9676TIP3   OH250518   6.671   3.863  15.969 -0.1121  0.3331  0.2047
 9676TIP3    H150519   6.601   3.828  16.023 -0.7180  0.1327 -0.6920
 9676TIP3    H250520   6.733   3.901  16.032 -0.3379 -0.7025  1.0888
 9677TIP3   OH250521   4.705   1.639  12.982  0.1341 -0.4490 -0.1773
 9677TIP3    H150522   4.639   1.683  13.036  1.7399  1.0572  0.6703
 9677TIP3    H250523   4.662   1.559  12.952 -2.0326  0.4242  0.3887
 9678TIP3   OH250524   4.749   6.354  10.955 -0.5552  0.4613 -0.3315
 9678TIP3    H150525   4.819   6.296  10.925  1.1272  2.2373 -0.0105
 9678TIP3    H250526   4.678   6.294  10.979  0.7894 -1.4102 -0.7497
 9679TIP3   OH250527   3.527   3.624   1.118  0.3236 -0.1269 -0.1784
 9679TIP3    H150528   3.535   3.598   1.210  0.0114 -1.5474 -0.5232
 9679TIP3    H250529   3.527   3.719   1.120 -0.2678 -0.1242  1.3449
 9680TIP3   OH250530   3.445   3.674  17.122  0.1414 -0.0920 -0.1322
 9680TIP3    H150531   3.524   3.623  17.137  0.7741  0.6067 -0.9947
 9680TIP3    H250532   3.450   3.745  17.186  0.9763  0.7873 -1.1370
 9681TIP3   OH250533   0.594   4.381   1.250 -0.3565  0.7434 -0.1375
 9681TIP3    H150534   0.674   4.332   1.268  0.2983  2.0784  0.7595
 9681TIP3    H250535   0.617   4.437   1.176 -0.1715  1.7060  0.6237
 9682TIP3   OH250536   4.761   6.333  11.602  0.1198  0.6966 -0.1742
 9682TIP3    H150537   4.770   6.281  11.681 -1.9451  0.8279  0.2147
 9682TIP3    H250538   4.807   6.284  11.534  1.2709  0.2077  0.9280
 9683TIP3   OH250539   3.956   4.741  15.537  0.6834 -0.1346  0.4340
 9683TIP3    H150540   3.905   4.722  15.458  0.4196  0.9140  0.3299
 9683TIP3    H250541   3.984   4.832  15.526 -0.2664  0.4096  2.0101
 9684TIP3   OH250542   5.790   5.125   4.804  0.8737  0.3011 -0.0221
 9684TIP3    H150543   5.855   5.194   4.796  1.2647  0.0022  0.4773
 9684TIP3    H250544   5.836   5.054   4.849  0.2871 -0.0238  0.0791
 9685TIP3   OH250545   4.741   4.967  12.934  0.0424 -0.1750  0.2364
 9685TIP3    H150546   4.760   4.874  12.921 -1.1792 -0.4628  0.3608
 9685TIP3    H250547   4.812   5.013  12.890  0.4131 -1.1688 -0.2258
 9686TIP3   OH250548   1.295   5.833   1.635 -0.1061 -0.0351 -0.1157
 9686TIP3    H150549   1.335   5.854   1.719  0.7335  1.2990 -0.8208
 9686TIP3    H250550   1.217   5.888   1.630  0.3616  0.5949 -0.6055
 9687TIP3   OH250551   2.869   4.828  11.655  0.2606 -0.0194  0.3487
 9687TIP3    H150552   2.921   4.792  11.583  0.9343  1.0959  0.2593
 9687TIP3    H250553   2.794   4.869  11.612  0.0595 -0.3604  0.3718
 9688TIP3   OH250554   4.669   0.569  16.939  0.1684  0.0829 -0.0008
 9688TIP3    H150555   4.718   0.651  16.939  1.2400 -0.5115 -1.7790
 9688TIP3    H250556   4.732   0.502  16.964 -0.5347 -0.3044  0.7914
 9689TIP3   OH250557   3.863   1.620  17.107  0.2897  0.2946 -0.1016
 9689TIP3    H150558   3.880   1.540  17.158  1.4477  0.3175 -0.4266
 9689TIP3    H250559   3.803   1.671  17.162 -1.6412 -1.4175 -0.5080
 9690TIP3   OH250560   6.156   0.727  16.526  0.2530  0.1054  0.3011
 9690TIP3    H150561   6.153   0.801  16.465 -0.4576 -0.3881 -0.2810
 9690TIP3    H250562   6.221   0.668  16.489 -0.6686 -0.5095 -0.3596
 9691TIP3   OH250563   2.559   0.710  15.473 -0.2981  0.0879  0.2427
 9691TIP3    H150564   2.515   0.780  15.424  0.3165  0.2858 -0.0384
 9691TIP3    H250565   2.490   0.647  15.493 -0.7488  0.5068  0.0060
 9692TIP3   OH250566   2.144   5.611  17.394 -0.3950  0.1324 -0.3297
 9692TIP3    H150567   2.232   5.629  17.429  0.2760  0.6078 -2.1575
 9692TIP3    H250568   2.094   5.581  17.470  1.1155  0.6450  0.9204
 9693TIP3   OH250569   4.832   0.789  15.257  0.3586  0.1063  0.0310
 9693TIP3    H150570   4.902   0.850  15.235  1.8141 -1.7006 -0.6567
 9693TIP3    H250571   4.791   0.767  15.173 -1.8096  1.9094  0.5128
 9694TIP3   OH250572   1.493   6.177  13.653 -0.2702 -0.3669  0.2098
 9694TIP3    H150573   1.574   6.219  13.680 -0.1894 -1.2898  1.5131
 9694TIP3    H250574   1.464   6.226  13.576  1.4398  0.0572 -0.1876
 9695TIP3   OH250575   5.915   1.282  12.279 -0.1254 -0.3066  0.1556
 9695TIP3    H150576   5.823   1.295  12.302  0.0931  0.2497  0.7767
 9695TIP3    H250577   5.963   1.332  12.346  0.6572 -1.3995  0.4266
 9696TIP3   OH250578   1.443   3.777   6.316 -0.3128 -0.1335  0.3410
 9696TIP3    H150579   1.358   3.787   6.360 -1.6442  0.6812 -2.1719
 9696TIP3    H250580   1.498   3.844   6.356 -0.7120 -0.8944  2.2559
 9697TIP3   OH250581   2.936   3.123  11.422  0.1090  0.3052  0.1181
 9697TIP3    H150582   2.921   3.075  11.341  1.7914  1.0607 -0.6904
 9697TIP3    H250583   2.856   3.109  11.474 -0.9714 -0.2441 -1.6226
 9698TIP3   OH250584   3.088   5.206  15.770  0.2070  0.2063 -0.2798
 9698TIP3    H150585   3.039   5.270  15.822 -0.2044 -0.8586  0.6872
 9698TIP3    H250586   3.045   5.123  15.788  0.4097 -0.2869 -1.9197
 9699TIP3   OH250587   1.709   2.893   0.748  0.1613 -0.3195  0.9932
 9699TIP3    H150588   1.755   2.822   0.794 -0.0763 -1.4782 -0.4829
 9699TIP3    H250589   1.626   2.854   0.722  0.0471  0.4937  0.1028
 9700TIP3   OH250590   0.977   1.278   1.642 -0.0479  0.0967 -0.5878
 9700TIP3    H150591   1.011   1.346   1.583  1.3610  0.7558  0.8936
 9700TIP3    H250592   1.053   1.254   1.695 -0.9765 -1.3826  0.1024
 9701TIP3   OH250593   3.769   3.572  14.701  0.1876  0.2650 -0.7879
 9701TIP3    H150594   3.843   3.605  14.651 -0.6954  1.5136 -1.3110
 9701TIP3    H250595   3.748   3.643  14.762 -0.2493 -0.2884 -0.2828
 9702TIP3   OH250596   5.064   1.230  14.632  0.0357  0.0227 -0.1953
 9702TIP3    H150597   5.088   1.293  14.565 -0.7558 -1.1235 -1.6268
 9702TIP3    H250598   5.148   1.203  14.671  0.4473  1.2267 -0.2192
 9703TIP3   OH250599   5.960   1.000   3.163 -0.4399 -0.3988  0.0111
 9703TIP3    H150600   5.911   1.030   3.087 -1.1757  0.9728  0.9848
 9703TIP3    H250601   5.947   0.905   3.165 -1.3021 -0.3118 -0.9421
 9704TIP3   OH250602   1.410   1.203  11.373 -0.2798 -0.2111 -0.2355
 9704TIP3    H150603   1.361   1.265  11.426  1.6014  0.9728  0.1838
 9704TIP3    H250604   1.485   1.179  11.427  0.8909 -0.1180 -1.7608
 9705TIP3   OH250605   0.064   5.409   4.689 -0.3555 -0.4836 -0.6879
 9705TIP3    H150606   0.019   5.407   4.604 -0.7648 -1.1995 -0.4582
 9705TIP3    H250607   0.117   5.330   4.690 -0.6388 -0.6684 -0.1256
 9706TIP3   OH250608   2.730   1.379  14.589  0.1875  0.1677 -0.2606
 9706TIP3    H150609   2.685   1.294  14.598 -0.3086  0.5670  1.5152
 9706TIP3    H250610   2.659   1.441  14.569 -0.0078  0.6710  1.7715
 9707TIP3   OH250611   3.535   0.245   5.310  0.2809  0.3864  0.3584
 9707TIP3    H150612   3.619   0.227   5.267  1.0332  1.7952  1.1792
 9707TIP3    H250613   3.471   0.241   5.239  1.3152  1.3674 -0.6731
 9708TIP3   OH250614   5.626   4.046  17.246 -0.1560 -0.3738 -0.2944
 9708TIP3    H150615   5.624   3.963  17.293  1.0782  0.4304  1.2498
 9708TIP3    H250616   5.564   4.034  17.174 -1.0198 -2.1520  0.6881
 9709TIP3   OH250617   4.578   1.717   4.464  0.2737 -0.0179 -0.4109
 9709TIP3    H150618   4.511   1.692   4.528  0.5845 -0.4131 -0.2351
 9709TIP3    H250619   4.534   1.711   4.379  0.6226 -2.2832 -0.4943
 9710TIP3   OH250620   4.026   1.410  16.241 -0.5394 -0.4645 -0.0569
 9710TIP3    H150621   4.048   1.333  16.188 -0.1099  0.1799 -0.8387
 9710TIP3    H250622   3.961   1.458  16.188 -1.8495 -0.9631  1.0240
 9711TIP3   OH250623   2.194   3.361   1.003  0.0714  0.1286  0.3114
 9711TIP3    H150624   2.281   3.395   0.981 -0.1360  0.2893 -0.2961
 9711TIP3    H250625   2.198   3.268   0.979  0.1207  0.1040  0.4160
 9712TIP3   OH250626   3.718   6.727  14.418 -0.2634 -0.7824  0.0029
 9712TIP3    H150627   3.694   6.686  14.335  0.8658 -1.9103  0.2138
 9712TIP3    H250628   3.754   6.813  14.393  1.8164 -1.8386 -0.8752
 9713TIP3   OH250629   3.332   4.760  16.467  0.2572  0.4338 -0.1535
 9713TIP3    H150630   3.280   4.680  16.460  2.6918 -1.2129 -0.5605
 9713TIP3    H250631   3.400   4.740  16.531  1.3729  1.9163 -0.8041
 9714TIP3   OH250632   0.257   4.735   0.934 -0.0235  0.4451  0.4144
 9714TIP3    H150633   0.174   4.755   0.975  0.2098  1.0781  0.5910
 9714TIP3    H250634   0.259   4.791   0.856  0.2528  0.4565  0.4290
 9715TIP3   OH250635   6.202   1.233  15.337  0.1664  0.3934  0.1523
 9715TIP3    H150636   6.118   1.202  15.372  1.3033  0.2432  3.0376
 9715TIP3    H250637   6.215   1.183  15.256 -1.8610 -0.5913  0.3788
 9716TIP3   OH250638   6.521   6.160   1.975  0.4398  0.5584  0.0440
 9716TIP3    H150639   6.492   6.118   2.055  0.0170  0.5986 -0.0825
 9716TIP3    H250640   6.443   6.205   1.942  0.6542  0.6927 -0.2923
 9717TIP3   OH250641   0.994   4.362   5.351 -0.4487  0.7794 -0.6534
 9717TIP3    H150642   0.928   4.432   5.352 -2.6770 -1.0732  3.1469
 9717TIP3    H250643   1.056   4.386   5.420  0.0682  0.1215 -0.8797
 9718TIP3   OH250644   5.424   0.395   1.225  0.0959 -0.1755  0.1750
 9718TIP3    H150645   5.406   0.328   1.158 -3.5969  1.1462 -0.4192
 9718TIP3    H250646   5.366   0.371   1.297  0.0650  1.3623  0.6750
 9719TIP3   OH250647   0.200   6.755  14.721  0.7646  0.0965 -0.1600
 9719TIP3    H150648   0.249   6.680  14.687 -0.5408 -0.5115 -0.7622
 9719TIP3    H250649   0.151   6.720  14.795  0.5474  0.4886 -0.1156
 9720TIP3   OH250650   6.315   2.906   3.033 -0.0491  0.5767  0.2621
 9720TIP3    H150651   6.231   2.897   2.990 -0.1778 -0.7666  0.7372
 9720TIP3    H250652   6.331   2.820   3.073  1.9606  0.5093 -0.5750
 9721TIP3   OH250653   1.719   4.197  12.792  0.2356  0.2873  0.7286
 9721TIP3    H150654   1.648   4.261  12.785  1.5819  1.6417 -2.0535
 9721TIP3    H250655   1.679   4.114  12.766 -0.3920  1.0412 -0.8738
 9722TIP3   OH250656   0.073   3.597   2.067  0.1045 -0.1855  0.4691
 9722TIP3    H150657   0.014   3.664   2.100  1.0778 -0.3645  2.7174
 9722TIP3    H250658   0.141   3.590   2.133  1.0385 -2.0899 -0.6149
 9723TIP3   OH250659   6.054   1.035   2.616 -0.0587  0.1120  0.6350
 9723TIP3    H150660   6.054   0.940   2.609 -2.0773  0.0088  1.3916
 9723TIP3    H250661   6.140   1.062   2.585  0.8540 -2.0154  1.1986
 9724TIP3   OH250662   3.035   6.537   1.558  0.4804  0.1270 -0.5799
 9724TIP3    H150663   3.106   6.494   1.605  0.5841  0.7968 -0.1127
 9724TIP3    H250664   3.026   6.487   1.477  0.6524 -0.7201 -0.0879
 9725TIP3   OH250665   2.384   0.884  14.678  0.1912 -0.3763  0.0328
 9725TIP3    H150666   2.431   0.888  14.762  1.3825  0.8666 -0.6511
 9725TIP3    H250667   2.295   0.914  14.699 -0.3038 -2.4949  1.2975
 9726TIP3   OH250668   5.961   5.086   5.387 -0.0966 -0.1161  0.1239
 9726TIP3    H150669   6.028   5.154   5.391 -1.4010  1.1641  1.5298
 9726TIP3    H250670   5.882   5.132   5.357 -0.8133 -1.1657  0.3505
 9727TIP3   OH250671   0.129   6.574  14.934 -0.1624 -0.1437 -0.1990
 9727TIP3    H150672   0.058   6.539  14.880 -0.6871 -1.2340  1.1505
 9727TIP3    H250673   0.087   6.636  14.993  0.2204  0.1485 -0.2236
 9728TIP3   OH250674   2.287   3.112   1.046  0.3243 -0.0228 -0.3633
 9728TIP3    H150675   2.365   3.150   1.087  1.2476 -1.1900 -0.9694
 9728TIP3    H250676   2.251   3.053   1.113 -0.7577  1.3991  0.3536
 9729TIP3   OH250677   1.398   5.608   5.531 -0.0938  0.2975 -0.2214
 9729TIP3    H150678   1.309   5.601   5.565  0.4837 -0.7144  1.1405
 9729TIP3    H250679   1.394   5.682   5.470 -1.1855  2.3164  2.0949
 9730TIP3   OH250680   3.635   4.217   1.228 -0.1582 -0.7770  0.1322
 9730TIP3    H150681   3.636   4.244   1.319 -0.6813 -0.7215  0.1268
 9730TIP3    H250682   3.721   4.242   1.194  0.3160 -1.4646  0.7992
 9731TIP3   OH250683   3.986   4.187  14.043  0.1896  0.1259  0.3395
 9731TIP3    H150684   4.001   4.093  14.043 -0.5550 -0.0292 -1.4517
 9731TIP3    H250685   4.013   4.216  13.955 -0.3749  1.4487  0.5751
 9732TIP3   OH250686   1.045   6.021   3.935  0.2520 -0.4759  0.1590
 9732TIP3    H150687   0.965   6.042   3.886 -0.0136  1.3057  1.2682
 9732TIP3    H250688   1.115   6.064   3.885  0.4547 -1.4731 -0.4446
 9733TIP3   OH250689   2.248   5.583  12.648  0.2954  0.0893  0.1131
 9733TIP3    H150690   2.232   5.507  12.704  0.3568  0.4339  0.6034
 9733TIP3    H250691   2.161   5.614  12.623  0.2596  0.1075  0.2574
 9734TIP3   OH250692   1.978   1.616  13.224 -0.0617 -0.1863 -0.2320
 9734TIP3    H150693   1.983   1.549  13.293  1.8974  1.2552  1.1210
 9734TIP3    H250694   1.887   1.613  13.196 -0.3273 -2.6059  0.5879
 9735TIP3   OH250695   0.655   3.095   5.098 -0.1951  0.5800  0.1488
 9735TIP3    H150696   0.711   3.123   5.026  0.9600  0.2077  0.8922
 9735TIP3    H250697   0.623   3.177   5.136 -0.0005  0.7992 -0.1498
 9736TIP3   OH250698   4.805   4.179   4.895  0.5260  0.1377 -0.3669
 9736TIP3    H150699   4.801   4.228   4.977  0.1029  0.6474 -0.6858
 9736TIP3    H250700   4.877   4.117   4.908 -0.4047 -0.7336  0.8988
 9737TIP3   OH250701   1.837   5.369   3.360  0.0139 -0.3341 -0.4913
 9737TIP3    H150702   1.776   5.301   3.389 -0.5289  0.4369  0.2306
 9737TIP3    H250703   1.917   5.322   3.338 -0.2336 -1.1715  0.3477
 9738TIP3   OH250704   2.968   4.013  15.686  0.1286 -0.6579 -0.3656
 9738TIP3    H150705   2.972   3.995  15.592 -0.4771 -1.8934 -0.1815
 9738TIP3    H250706   2.953   4.107  15.692 -1.5244 -0.7904 -1.5682
 9739TIP3   OH250707   6.608   3.903   4.620  0.2853 -0.9395  0.0223
 9739TIP3    H150708   6.694   3.863   4.635 -0.2530 -1.9546  0.4792
 9739TIP3    H250709   6.546   3.846   4.665 -0.7159 -0.6315 -0.9017
 9740TIP3   OH250710   1.442   0.126  16.540 -0.1572  0.6107  0.0535
 9740TIP3    H150711   1.370   0.188  16.557 -0.4671  0.5814 -1.0497
 9740TIP3    H250712   1.397   0.045  16.513  0.2184 -0.3597  2.1768
 9741TIP3   OH250713   2.444   0.424   5.306 -0.0461  0.6175 -0.0871
 9741TIP3    H150714   2.413   0.347   5.257 -0.0316 -0.0889  0.9723
 9741TIP3    H250715   2.453   0.392   5.396 -0.1091  1.8946  0.3836
 9742TIP3   OH250716   1.179   3.948  15.794 -0.3272 -0.6942 -0.1424
 9742TIP3    H150717   1.158   3.936  15.701  0.8000  1.2504 -0.6963
 9742TIP3    H250718   1.194   4.042  15.804 -1.5343 -0.6808  2.2849
 9743TIP3   OH250719   3.623   5.350  11.802  0.2037  0.3392  0.0735
 9743TIP3    H150720   3.586   5.349  11.890 -0.2388  0.7826 -0.1032
 9743TIP3    H250721   3.547   5.346  11.744  0.4901  0.1045 -0.2911
 9744TIP3   OH250722   2.498   2.221   0.800  0.1362  0.1368  0.1326
 9744TIP3    H150723   2.488   2.308   0.839 -0.1243 -0.1682  0.7659
 9744TIP3    H250724   2.409   2.192   0.783  0.1624 -0.4244  0.8925
 9745TIP3   OH250725   2.348   2.063   4.231 -0.1444 -0.1073 -0.1340
 9745TIP3    H150726   2.424   2.088   4.178  0.1122  0.0645  0.3154
 9745TIP3    H250727   2.312   1.987   4.186  0.9610 -0.8948  0.2732
 9746TIP3   OH250728   3.106   4.693  12.739  0.6786  0.0658  0.5722
 9746TIP3    H150729   3.056   4.677  12.820  1.0095 -1.5122  0.4969
 9746TIP3    H250730   3.048   4.746  12.686 -0.7638 -1.3034  0.6927
 9747TIP3   OH250731   0.456   3.513   1.619  0.4117 -0.1279  0.1754
 9747TIP3    H150732   0.440   3.495   1.527  2.3750  0.1109 -0.2503
 9747TIP3    H250733   0.503   3.436   1.651  1.7191  0.7185  0.3735
 9748TIP3   OH250734   1.861   5.449   4.158 -0.4645 -0.0225 -0.0677
 9748TIP3    H150735   1.779   5.402   4.174 -0.6691  0.5062  0.4372
 9748TIP3    H250736   1.883   5.427   4.067 -2.8296  2.3387 -1.3442
 9749TIP3   OH250737   3.474   1.429  15.084 -0.2245 -0.0695 -0.6858
 9749TIP3    H150738   3.426   1.347  15.100 -0.4238  0.2734  0.6039
 9749TIP3    H250739   3.566   1.403  15.083 -0.2755 -0.2830 -0.0908
 9750TIP3   OH250740   5.260   0.135   5.486  0.1408  0.4086  0.6280
 9750TIP3    H150741   5.181   0.109   5.439 -0.6781  1.8489  1.1312
 9750TIP3    H250742   5.323   0.065   5.468 -0.8490 -0.1756 -0.7809
 9751TIP3   OH250743   5.887   2.210  11.219 -0.5038 -0.3814 -0.3886
 9751TIP3    H150744   5.913   2.258  11.298  0.3812 -1.1895 -0.1808
 9751TIP3    H250745   5.960   2.222  11.158 -0.6937 -0.7006 -0.6805
 9752TIP3   OH250746   2.686   5.336   5.429 -0.2577 -0.3503  0.2465
 9752TIP3    H150747   2.685   5.430   5.408 -0.3830 -0.2827  0.5560
 9752TIP3    H250748   2.741   5.298   5.361  0.8176  0.1215  0.8190
 9753TIP3   OH250749   0.028   4.186  14.484 -0.6556  0.2995 -0.4040
 9753TIP3    H150750  -0.044   4.186  14.547 -1.0387  0.0436 -0.8318
 9753TIP3    H250751   0.020   4.271  14.440  0.3659  1.0118  0.7153
 9754TIP3   OH250752   5.797   2.223   2.736 -0.0463  0.5074 -0.1125
 9754TIP3    H150753   5.780   2.162   2.808  0.5743  0.7776  0.2611
 9754TIP3    H250754   5.812   2.307   2.779 -1.3253  1.0319 -0.6455
 9755TIP3   OH250755   3.548   1.268   3.590 -0.5781 -0.2741  0.0832
 9755TIP3    H150756   3.617   1.331   3.609  0.4515 -1.4764  0.5175
 9755TIP3    H250757   3.522   1.234   3.675 -1.1384 -0.4087 -0.1407
 9756TIP3   OH250758   1.378   4.703  14.726  0.7071  0.6496 -0.8043
 9756TIP3    H150759   1.376   4.765  14.653  1.4426  0.8441 -0.6737
 9756TIP3    H250760   1.333   4.626  14.694  0.9051  0.7854 -1.4232
 9757TIP3   OH250761   2.386   0.589  13.125 -0.4629 -0.1137  0.5142
 9757TIP3    H150762   2.459   0.560  13.180  0.8367 -0.7433 -1.4315
 9757TIP3    H250763   2.336   0.510  13.106  0.4015 -0.3422 -0.9875
 9758TIP3   OH250764   0.255   3.736   5.055 -0.0847 -0.6344  0.0583
 9758TIP3    H150765   0.252   3.674   4.982 -0.0984  0.1725 -0.6431
 9758TIP3    H250766   0.342   3.725   5.093 -0.1080 -1.1193 -0.0276
 9759TIP3   OH250767   3.554   2.236  12.465  0.1074  0.2179  0.4455
 9759TIP3    H150768   3.598   2.157  12.495 -1.6286 -0.2295  2.0036
 9759TIP3    H250769   3.562   2.234  12.370  2.4031 -0.3999  0.5941
 9760TIP3   OH250770   0.797   6.198   4.848  0.0002  0.1967 -0.7493
 9760TIP3    H150771   0.768   6.107   4.854  1.7910 -0.3368  0.5653
 9760TIP3    H250772   0.809   6.214   4.755  1.5123 -1.5606 -0.8983
 9761TIP3   OH250773   6.023   0.456   4.077  0.1339 -0.8573 -0.1671
 9761TIP3    H150774   6.117   0.447   4.095  0.7974  1.6179 -1.7537
 9761TIP3    H250775   5.995   0.369   4.048  2.1365 -1.4758 -0.3866
 9762TIP3   OH250776   0.251   5.798   5.169  0.3802  0.0547 -0.3179
 9762TIP3    H150777   0.188   5.765   5.104  1.2106 -0.3904 -0.9128
 9762TIP3    H250778   0.265   5.724   5.228  1.0115 -0.1499 -0.7100
 9763TIP3   OH250779   2.954   0.504  14.758  0.1491 -0.5795 -0.2994
 9763TIP3    H150780   2.932   0.578  14.702  3.9575  0.1734 -1.0801
 9763TIP3    H250781   2.913   0.429  14.716  0.4334  0.4023 -2.4318
 9764TIP3   OH250782   3.770   6.004  14.566 -0.1348 -0.2149 -0.3587
 9764TIP3    H150783   3.840   6.004  14.631  0.3543 -1.2648 -0.8636
 9764TIP3    H250784   3.815   6.002  14.482 -0.7571  1.5641 -0.7673
 9765TIP3   OH250785   5.643   2.449  15.861 -0.9087  0.0390  0.3271
 9765TIP3    H150786   5.681   2.373  15.904  0.9921  1.1491  0.7322
 9765TIP3    H250787   5.558   2.460  15.901 -0.4935 -0.8523  1.4967
 9766TIP3   OH250788   6.061   1.671  11.520  0.9340  0.5402 -0.0003
 9766TIP3    H150789   6.074   1.629  11.605  1.1154 -0.2328 -0.3943
 9766TIP3    H250790   5.990   1.734  11.534  0.3478 -0.2176  0.5109
 9767TIP3   OH250791   3.067   1.596  13.207  0.3835  0.5116 -0.4426
 9767TIP3    H150792   3.072   1.507  13.173 -0.3940  0.5830 -0.7543
 9767TIP3    H250793   3.134   1.644  13.158  0.5690  0.1840 -0.5135
 9768TIP3   OH250794   2.582   6.202  15.779  0.3892 -0.6477  0.0970
 9768TIP3    H150795   2.631   6.231  15.702  0.2931  0.4991  0.4413
 9768TIP3    H250796   2.618   6.254  15.851  0.4218 -1.6381  0.8249
 9769TIP3   OH250797   6.530   2.675  15.247  0.4893  0.3649  0.0631
 9769TIP3    H150798   6.482   2.754  15.271 -1.4457 -0.3747 -1.1052
 9769TIP3    H250799   6.493   2.650  15.162  2.1141 -0.9659 -0.3046
 9770TIP3   OH250800   2.057   6.018  14.189 -0.3441 -0.0040  0.2880
 9770TIP3    H150801   2.133   6.040  14.243  0.1814 -0.3399 -0.3096
 9770TIP3    H250802   1.997   5.975  14.250  0.7469 -1.4936  0.3654
 9771TIP3   OH250803   3.843   0.605   3.869  0.4022  0.1047  0.5961
 9771TIP3    H150804   3.874   0.520   3.902  0.3202  0.2868  1.1531
 9771TIP3    H250805   3.752   0.588   3.843  0.7357 -0.2565 -0.3857
 9772TIP3   OH250806   1.267   3.064  13.922  0.2545  0.4867  0.0543
 9772TIP3    H150807   1.292   3.139  13.976  1.3467  0.6368 -0.6299
 9772TIP3    H250808   1.331   3.064  13.851 -2.1565  1.3761 -2.2690
 9773TIP3   OH250809   2.877   3.979   4.945  0.0664 -0.1798 -0.0897
 9773TIP3    H150810   2.909   4.063   4.912  1.3024 -1.1829 -1.6191
 9773TIP3    H250811   2.806   3.955   4.885 -0.4801 -0.1125  0.5155
 9774TIP3   OH250812   3.119   6.257  14.680 -0.6115 -0.4630 -0.3899
 9774TIP3    H150813   3.029   6.251  14.647 -0.3421  1.1489 -1.5512
 9774TIP3    H250814   3.113   6.317  14.754 -0.4176  0.2152 -0.9083
 9775TIP3   OH250815   5.130   1.307  12.627  0.1835  0.1821 -0.0321
 9775TIP3    H150816   5.117   1.395  12.590 -0.4864 -0.0875 -0.4417
 9775TIP3    H250817   5.084   1.248  12.568  1.5889 -0.5935 -0.3957
 9776TIP3   OH250818   4.399   0.249   4.885 -0.2649  0.3909 -0.4181
 9776TIP3    H150819   4.384   0.164   4.845  0.5344  0.4157 -0.7944
 9776TIP3    H250820   4.462   0.292   4.827 -2.2299  2.0857 -1.4253
 9777TIP3   OH250821   2.633   4.744   4.917 -0.4271  0.2284  0.0277
 9777TIP3    H150822   2.593   4.820   4.959 -1.0620 -0.6884  1.1276
 9777TIP3    H250823   2.587   4.737   4.833  1.4665  2.6049 -1.3187
 9778TIP3   OH250824   4.171   3.400   4.771 -0.3941 -0.1862 -0.4825
 9778TIP3    H150825   4.214   3.485   4.766 -0.2228 -0.2298  0.2277
 9778TIP3    H250826   4.081   3.421   4.798 -0.1062 -0.2851  0.6202
 9779TIP3   OH250827   1.268   3.736   3.922  0.0237 -0.1944  0.1894
 9779TIP3    H150828   1.182   3.696   3.916 -0.3907  0.5363  1.0520
 9779TIP3    H250829   1.297   3.744   3.831 -0.6337 -0.8178 -0.0814
 9780TIP3   OH250830   6.211   1.931   1.336  0.3308 -0.2046 -0.3304
 9780TIP3    H150831   6.172   1.861   1.389 -0.1069 -0.0887 -0.5000
 9780TIP3    H250832   6.261   1.983   1.400 -0.2213 -0.0471 -0.0224
 9781TIP3   OH250833   6.575   2.788  16.651 -0.1675  0.0712  0.3446
 9781TIP3    H150834   6.530   2.705  16.637  0.6471 -0.4741  0.8297
 9781TIP3    H250835   6.657   2.780  16.602  0.2321  0.3058  0.9560
 9782TIP3   OH250836   0.892   1.297   2.291  0.6708 -0.4605 -0.0397
 9782TIP3    H150837   0.837   1.355   2.239  0.0277 -0.2124  0.9082
 9782TIP3    H250838   0.838   1.272   2.366  0.5945 -2.9991 -0.8405
 9783TIP3   OH250839   6.352   3.530  15.425  0.4573 -0.7125 -0.2265
 9783TIP3    H150840   6.380   3.601  15.368  1.6019 -0.2865  0.8346
 9783TIP3    H250841   6.348   3.453  15.368 -1.8085  0.3496 -1.6209
 9784TIP3   OH250842   6.007   5.375  12.315 -1.0086  0.3696 -0.5181
 9784TIP3    H150843   6.065   5.445  12.285  0.2162 -0.6933 -0.7123
 9784TIP3    H250844   5.945   5.419  12.373  0.8391  1.3270  0.8179
 9785TIP3   OH250845   3.514   4.138  12.460 -0.6354  0.5059 -0.2834
 9785TIP3    H150846   3.446   4.162  12.397 -1.4858 -0.2606  0.3182
 9785TIP3    H250847   3.524   4.043  12.449 -0.3771  0.4566  0.3433
 9786TIP3   OH250848   0.686   0.289  13.677 -0.4303 -0.9609  0.2018
 9786TIP3    H150849   0.678   0.369  13.728 -0.7968 -2.0887  2.0004
 9786TIP3    H250850   0.682   0.218  13.742 -0.7615 -2.4669 -1.3789
 9787TIP3   OH250851   2.025   0.858  13.131  0.7145 -0.8110 -0.1093
 9787TIP3    H150852   2.074   0.811  13.064  0.2381 -1.7200  0.1654
 9787TIP3    H250853   1.992   0.936  13.086  2.0364 -0.3889 -0.4044
 9788TIP3   OH250854   4.474   5.955  16.731 -0.1484 -0.4482 -0.0360
 9788TIP3    H150855   4.545   6.007  16.693 -0.4562 -0.7002 -0.9713
 9788TIP3    H250856   4.437   6.012  16.798  1.4860 -0.6339  1.0971
 9789TIP3   OH250857   1.288   4.039   2.508 -0.0533 -0.0022 -0.1476
 9789TIP3    H150858   1.382   4.052   2.522  0.0293 -0.8519  0.1633
 9789TIP3    H250859   1.282   3.993   2.424 -0.2668  0.9686 -0.6824
 9790TIP3   OH250860   5.794   5.294   0.128 -0.4588  0.4775 -0.2518
 9790TIP3    H150861   5.842   5.212   0.118  2.2953  2.1474 -2.3410
 9790TIP3    H250862   5.768   5.318   0.039 -1.2600  1.8249  0.3149
 9791TIP3   OH250863   3.901   4.779  16.116  0.3102  0.4105  0.0303
 9791TIP3    H150864   3.843   4.728  16.059 -0.7209  1.9925 -0.4195
 9791TIP3    H250865   3.941   4.843  16.057 -0.1258  1.5252  0.9056
 9792TIP3   OH250866   2.560   5.997   6.224 -0.1903 -0.1629  0.2651
 9792TIP3    H150867   2.575   6.024   6.315 -1.2820 -1.9160  1.0278
 9792TIP3    H250868   2.500   5.923   6.231  1.1085 -1.4987 -1.7937
 9793TIP3   OH250869   1.525   1.269  16.421  0.0058 -0.0492 -0.4099
 9793TIP3    H150870   1.607   1.226  16.445  0.1376  0.9100  0.9811
 9793TIP3    H250871   1.504   1.235  16.334  0.8884 -1.7334  0.0047
 9794TIP3   OH250872   6.251   2.848   1.534 -0.2513  0.3008  0.0572
 9794TIP3    H150873   6.188   2.909   1.495 -0.1203  0.1887 -0.3365
 9794TIP3    H250874   6.197   2.777   1.569 -0.3626  0.3397 -0.0336
 9795TIP3   OH250875   5.478   0.591   1.035 -0.0725  0.3901  0.5766
 9795TIP3    H150876   5.568   0.608   1.064  0.6256 -0.0461 -1.1982
 9795TIP3    H250877   5.435   0.554   1.112  0.5391  2.8027  2.2060
 9796TIP3   OH250878   6.407   6.448   2.296 -0.4011  0.1924 -0.4122
 9796TIP3    H150879   6.379   6.519   2.354  0.0715  0.2764 -0.2856
 9796TIP3    H250880   6.326   6.418   2.255 -0.7464  0.1405  0.2816
 9797TIP3   OH250881   2.326   6.342   2.126  0.0555 -0.8040  0.2620
 9797TIP3    H150882   2.316   6.433   2.153 -2.5473 -0.7695 -0.6082
 9797TIP3    H250883   2.325   6.292   2.208 -1.9840 -0.2728  0.6091
 9798TIP3   OH250884   6.429   4.561  15.084  0.2047  0.0520  0.4520
 9798TIP3    H150885   6.344   4.519  15.093  0.0291  0.2966  0.0049
 9798TIP3    H250886   6.434   4.584  14.991  1.7713 -2.1063 -0.0869
 9799TIP3   OH250887   2.711   5.575   2.535 -0.5776 -0.3470  0.1404
 9799TIP3    H150888   2.727   5.597   2.444  1.6958 -1.4673  0.2154
 9799TIP3    H250889   2.647   5.503   2.531 -0.0206 -0.8165 -0.6184
 9800TIP3   OH250890   1.315   5.111  12.107 -0.1664  0.0162 -0.4826
 9800TIP3    H150891   1.328   5.064  12.024 -0.1986 -0.7307 -0.0677
 9800TIP3    H250892   1.221   5.123  12.113 -0.1184  0.6541 -0.8638
 9801TIP3   OH250893   6.515   6.309  14.262  0.0002  1.2283 -0.2613
 9801TIP3    H150894   6.466   6.245  14.210  2.7571 -0.1540 -1.3710
 9801TIP3    H250895   6.496   6.285  14.353 -2.6991  1.9046 -0.5788
 9802TIP3   OH250896   0.614   5.413  16.381  0.1034 -0.5106 -0.1150
 9802TIP3    H150897   0.553   5.455  16.321  0.4455  0.5039  0.2341
 9802TIP3    H250898   0.690   5.471  16.382  0.1009 -0.4986  1.2956
 9803TIP3   OH250899   0.700   1.311  12.499  0.3126 -0.3129  0.6587
 9803TIP3    H150900   0.713   1.375  12.429 -1.3114  0.2771  0.8509
 9803TIP3    H250901   0.660   1.361  12.570  0.1262 -1.3038  1.2749
 9804TIP3   OH250902   5.480   1.070  15.455 -0.1514  0.4729  0.2210
 9804TIP3    H150903   5.546   1.005  15.483  2.1625  2.1326 -1.0263
 9804TIP3    H250904   5.421   1.020  15.399  0.7989 -0.8454  0.3293
 9805TIP3   OH250905   1.573   2.821  13.646 -0.2225 -0.0871  0.1790
 9805TIP3    H150906   1.625   2.789  13.720  1.2954  1.2688 -0.2266
 9805TIP3    H250907   1.521   2.892  13.682  0.6535  0.6958 -0.0496
 9806TIP3   OH250908   4.453   3.087   1.075  0.6647 -0.2523  0.5545
 9806TIP3    H150909   4.412   3.017   1.024  0.6837  0.4262 -0.4037
 9806TIP3    H250910   4.380   3.135   1.113  0.6605 -1.4035  2.0976
 9807TIP3   OH250911   1.732   3.178  16.255 -0.4149 -0.2345  0.0804
 9807TIP3    H150912   1.784   3.128  16.319 -1.0695 -1.9406 -0.6505
 9807TIP3    H250913   1.654   3.124  16.242 -0.7620  0.5979 -1.3830
 9808TIP3   OH250914   6.353   2.999   6.330  0.0016  0.4824 -0.0665
 9808TIP3    H150915   6.284   3.005   6.397 -0.2154  0.0922 -0.2566
 9808TIP3    H250916   6.335   3.072   6.271 -1.6693 -0.9471 -1.4476
 9809TIP3   OH250917   1.998   0.409  13.818  0.1510  0.4406 -0.3113
 9809TIP3    H150918   2.048   0.432  13.897 -0.6013  0.8665  0.0565
 9809TIP3    H250919   2.044   0.453  13.747  2.3498 -1.9753 -0.5545
 9810TIP3   OH250920   0.488   5.884  13.982  0.9391  0.1197 -0.2978
 9810TIP3    H150921   0.443   5.956  13.938  0.6906 -0.8617 -1.7381
 9810TIP3    H250922   0.452   5.805  13.942 -0.3303 -0.9610  2.6669
 9811TIP3   OH250923   5.701   0.410  12.550  0.1487  0.3542 -0.2776
 9811TIP3    H150924   5.627   0.435  12.605 -0.7346 -1.1169 -0.7565
 9811TIP3    H250925   5.758   0.360  12.608 -0.8941 -1.3940 -0.7054
 9812TIP3   OH250926   6.323   6.555  15.787 -0.3150 -0.1095 -0.0961
 9812TIP3    H150927   6.358   6.642  15.768 -2.0428  0.5220 -0.6079
 9812TIP3    H250928   6.313   6.554  15.882  1.1776 -0.3642  0.0784
 9813TIP3   OH250929   6.071   3.700  12.905  0.1395  0.2944  0.0526
 9813TIP3    H150930   6.009   3.709  12.978  0.2899  2.2444 -0.0163
 9813TIP3    H250931   6.105   3.611  12.914 -1.2676 -0.1725  1.2094
 9814TIP3   OH250932   2.917   0.304  12.072  0.0438 -0.3558 -0.1239
 9814TIP3    H150933   3.003   0.319  12.033 -0.1395  2.2570  0.3336
 9814TIP3    H250934   2.862   0.274  12.000  0.6528  0.6771 -1.0436
 9815TIP3   OH250935   4.557   4.017   1.187 -0.1188  0.0100  0.6955
 9815TIP3    H150936   4.473   4.053   1.214 -0.6624  0.8064 -1.8472
 9815TIP3    H250937   4.535   3.947   1.125  1.0740 -0.4107  0.7060
 9816TIP3   OH250938   5.550   4.665   3.973 -0.0341  0.1026  0.6310
 9816TIP3    H150939   5.580   4.728   4.038 -0.8516  0.2368  0.8925
 9816TIP3    H250940   5.482   4.711   3.925  0.3825 -0.0823 -0.1602
 9817TIP3   OH250941   4.971   6.270  11.988 -0.4187 -0.5024 -0.0734
 9817TIP3    H150942   4.921   6.255  12.068 -3.5239  0.8475 -1.6180
 9817TIP3    H250943   4.916   6.236  11.918  1.2343  0.2924 -1.8575
 9818TIP3   OH250944   6.214   4.532  16.453  0.1993  0.1650  0.0260
 9818TIP3    H150945   6.250   4.584  16.381  2.2751  1.2402  1.7261
 9818TIP3    H250946   6.122   4.558  16.457  0.0208  0.0886 -2.1629
 9819TIP3   OH250947   0.062   5.127   0.721  0.0826  0.4146 -0.1573
 9819TIP3    H150948   0.084   5.164   0.807 -0.6021 -0.4935  0.4299
 9819TIP3    H250949  -0.011   5.181   0.690 -1.1778 -0.6336  0.8762
 9820TIP3   OH250950   4.741   5.687   6.151  0.6036 -0.1335  0.5790
 9820TIP3    H150951   4.658   5.664   6.193 -0.4047  1.4868 -0.4055
 9820TIP3    H250952   4.804   5.626   6.188 -0.6876 -0.3254  2.6441
 9821TIP3   OH250953   5.725   1.945  15.469  0.3333  0.2918  0.2170
 9821TIP3    H150954   5.689   1.958  15.557  1.8115  0.4065  0.8304
 9821TIP3    H250955   5.818   1.927  15.483  0.9371  1.8687 -1.4157
 9822TIP3   OH250956   0.058   5.322  14.179 -0.5204 -0.2455 -0.8456
 9822TIP3    H150957   0.090   5.396  14.127  0.8895 -0.5126 -0.4235
 9822TIP3    H250958   0.108   5.247  14.146  0.3809 -0.4266  0.8286
 9823TIP3   OH250959   0.154   3.035  14.601 -0.1802 -0.0994 -0.4729
 9823TIP3    H150960   0.188   3.106  14.546 -1.1499 -0.4167 -1.5210
 9823TIP3    H250961   0.114   3.079  14.675  1.1679  0.3358  0.0266
 9824TIP3   OH250962   3.074   6.327  12.052 -0.1034 -0.1261 -0.5871
 9824TIP3    H150963   3.042   6.397  11.995 -0.4437 -0.7272 -1.1526
 9824TIP3    H250964   3.041   6.247  12.012  1.0301 -0.6806 -0.4538
 9825TIP3   OH250965   2.592   4.987  16.320 -0.2063  0.3033 -0.3117
 9825TIP3    H150966   2.542   4.934  16.383 -0.6475  0.0285 -0.8886
 9825TIP3    H250967   2.682   4.956  16.330 -0.4682 -0.6187 -0.6971
 9826TIP3   OH250968   3.375   5.319  11.706 -0.8739  0.6659  0.0698
 9826TIP3    H150969   3.354   5.229  11.680 -1.1064  0.7309  0.0304
 9826TIP3    H250970   3.294   5.352  11.747 -1.7153  1.7449 -2.2853
 9827TIP3   OH250971   5.417   4.099  13.001 -0.5381  0.6523 -0.0938
 9827TIP3    H150972   5.451   4.011  13.011 -0.0237  0.9691  1.0753
 9827TIP3    H250973   5.493   4.152  12.975 -0.5250  1.0138  0.6561
 9828TIP3   OH250974   1.883   3.686  14.477 -0.1777 -0.2532  0.2839
 9828TIP3    H150975   1.908   3.729  14.559 -0.1472  0.1330  0.0720
 9828TIP3    H250976   1.895   3.753  14.410 -2.0102  0.0205  0.1912
 9829TIP3   OH250977   1.063   5.663  14.298 -0.0121  0.4413  0.4440
 9829TIP3    H150978   1.070   5.580  14.249  1.5033 -0.0850  1.4768
 9829TIP3    H250979   1.049   5.729  14.230  1.1023 -0.3786 -0.6344
 9830TIP3   OH250980   5.801   2.808  11.939  0.0140 -0.2601 -0.3105
 9830TIP3    H150981   5.860   2.874  11.976 -0.9109  0.6391 -0.4158
 9830TIP3    H250982   5.796   2.830  11.846 -2.1687  1.0486  0.0404
 9831TIP3   OH250983   0.515   0.408   6.107  0.2654 -0.0501  0.6546
 9831TIP3    H150984   0.608   0.389   6.096  0.2395  0.6767 -1.1887
 9831TIP3    H250985   0.472   0.323   6.104  0.5473 -0.2236 -2.9073
 9832TIP3   OH250986   5.267   2.748   3.090  0.0634 -0.2566  0.0259
 9832TIP3    H150987   5.190   2.785   3.046 -1.6345 -2.4034  0.9760
 9832TIP3    H250988   5.285   2.807   3.162 -0.5451  0.4085 -0.3557
 9833TIP3   OH250989   3.450   5.831  14.049 -0.0189  0.4070 -0.2766
 9833TIP3    H150990   3.356   5.837  14.065 -0.3195 -0.1188 -1.6714
 9833TIP3    H250991   3.457   5.785  13.965  1.3836  2.4084 -1.3527
 9834TIP3   OH250992   6.026   3.352   3.321  0.4033  0.1216 -0.2432
 9834TIP3    H150993   6.074   3.330   3.401 -0.4361  0.9949  0.5184
 9834TIP3    H250994   6.065   3.434   3.291 -0.7516  0.9816  0.5307
 9835TIP3   OH250995   6.311   1.465  15.261 -0.0845 -0.3122  0.4886
 9835TIP3    H150996   6.251   1.499  15.195  0.8932  1.6259  0.5500
 9835TIP3    H250997   6.270   1.383  15.290 -1.7785  0.0527 -0.7277
 9836TIP3   OH250998   5.549   1.792  11.492 -0.1528 -0.1919  0.8813
 9836TIP3    H150999   5.464   1.830  11.513  0.3862  0.7451  1.4078
 9836TIP3    H251000   5.537   1.754  11.405 -1.0348  0.1590  0.8388
 9837TIP3   OH251001   5.556   5.607   4.475  0.0668  0.4785 -0.1758
 9837TIP3    H151002   5.585   5.517   4.488  0.6466  0.7875  0.7069
 9837TIP3    H251003   5.634   5.654   4.446 -0.7448  0.2202 -3.1827
 9838TIP3   OH251004   4.344   6.166  16.873  0.8028 -0.8824 -0.5037
 9838TIP3    H151005   4.382   6.178  16.960  2.2628 -0.2611 -1.1872
 9838TIP3    H251006   4.288   6.244  16.860 -0.6505 -1.7211  0.4406
 9839TIP3   OH251007   3.896   2.422  11.745  0.0827  0.4817 -0.0215
 9839TIP3    H151008   3.923   2.512  11.765 -0.5099 -0.0009  3.5228
 9839TIP3    H251009   3.813   2.431  11.699 -0.2793  1.7441  0.8402
 9840TIP3   OH251010   6.070   5.875  15.175  0.7598  0.1354 -0.4799
 9840TIP3    H151011   5.988   5.838  15.141  0.1037  1.4522 -0.3997
 9840TIP3    H251012   6.126   5.883  15.098  0.1448  0.9087 -0.8560
 9841TIP3   OH251013   2.762   0.347   4.159 -0.3491 -0.7722 -0.1985
 9841TIP3    H151014   2.773   0.422   4.218  2.8633 -0.3251 -1.1610
 9841TIP3    H251015   2.704   0.379   4.090 -2.5726 -0.6827  1.5764
 9842TIP3   OH251016   1.107   3.440   4.068 -0.1883 -0.3170 -0.9288
 9842TIP3    H151017   1.084   3.489   3.989 -0.4783 -0.7589 -1.1220
 9842TIP3    H251018   1.180   3.489   4.106 -0.9641  0.6937 -0.7060
 9843TIP3   OH251019   0.336   0.243   1.539 -0.3584 -0.3979  0.4098
 9843TIP3    H151020   0.407   0.286   1.491 -2.2629 -0.2258 -2.4449
 9843TIP3    H251021   0.346   0.275   1.629  1.8018  1.3911 -0.3751
 9844TIP3   OH251022   4.645   6.434  11.244 -0.1797  0.0249  0.0035
 9844TIP3    H151023   4.560   6.429  11.287  0.7513  0.7643  2.0924
 9844TIP3    H251024   4.641   6.513  11.191 -0.5322  0.5149  0.7457
 9845TIP3   OH251025   0.687   2.691   3.230 -0.2418  0.3688 -0.7251
 9845TIP3    H151026   0.690   2.758   3.299 -2.8042  0.3750 -0.5458
 9845TIP3    H251027   0.756   2.718   3.169  2.0689  0.4238  1.6999
 9846TIP3   OH251028   2.283   0.389   4.599 -0.3199 -0.3244  0.1101
 9846TIP3    H151029   2.344   0.369   4.528 -0.2709 -0.1088  0.0887
 9846TIP3    H251030   2.331   0.367   4.679 -0.5409 -0.9972  0.0634
 9847TIP3   OH251031   3.796   3.353   6.127  0.0443  0.6199 -0.6832
 9847TIP3    H151032   3.775   3.306   6.046  2.4164  1.0239 -1.5947
 9847TIP3    H251033   3.748   3.305   6.195  0.4354 -1.6607 -1.9061
 9848TIP3   OH251034   1.643   0.959  11.112  0.4892 -0.0129 -0.1753
 9848TIP3    H151035   1.692   0.895  11.062  0.8264  1.1748 -1.4297
 9848TIP3    H251036   1.578   0.993  11.051 -0.3196  0.1562  0.7491
 9849TIP3   OH251037   2.152   2.669  13.546 -0.2073 -0.1255 -0.2248
 9849TIP3    H151038   2.172   2.716  13.627 -0.1744  0.7394 -0.7316
 9849TIP3    H251039   2.165   2.733  13.476 -1.0360 -0.6260 -0.8590
 9850TIP3   OH251040   1.974   6.598   1.767 -0.4377 -0.2509 -0.2885
 9850TIP3    H151041   1.882   6.590   1.742 -0.2296 -2.4594 -0.5632
 9850TIP3    H251042   1.991   6.522   1.823  1.6076 -0.8502 -1.5943
 9851TIP3   OH251043   1.952   3.863  11.015 -0.2400 -0.4038 -0.7461
 9851TIP3    H151044   1.897   3.935  10.985 -2.1086 -0.1447  2.7778
 9851TIP3    H251045   1.901   3.784  10.995  0.0082 -0.4776 -1.1004
 9852TIP3   OH251046   2.439   4.760  16.354  0.1960 -0.1617  0.0843
 9852TIP3    H151047   2.351   4.727  16.334  0.0610 -0.4429  1.0752
 9852TIP3    H251048   2.486   4.683  16.386  1.0874 -0.2047 -1.2780
 9853TIP3   OH251049   5.278   0.702   4.479  0.2100  0.4686 -0.5508
 9853TIP3    H151050   5.338   0.767   4.443  1.1867  0.3489  0.7668
 9853TIP3    H251051   5.305   0.693   4.571 -1.1390 -0.3904 -0.2076
 9854TIP3   OH251052   1.382   3.989   1.511 -0.3285 -0.5865  0.3732
 9854TIP3    H151053   1.449   3.988   1.442 -0.5230 -0.1517  0.1749
 9854TIP3    H251054   1.430   4.014   1.589 -0.2001 -0.5883  0.2959
 9855TIP3   OH251055   0.237   3.740  15.703 -0.1414  0.2845 -0.0466
 9855TIP3    H151056   0.274   3.825  15.728 -0.8320  0.5015  0.2428
 9855TIP3    H251057   0.314   3.683  15.693  0.1914  0.1417  2.6222
 9856TIP3   OH251058   2.758   6.000   0.331  0.0049  0.0177 -0.0918
 9856TIP3    H151059   2.800   5.981   0.248  1.1167  1.7499  0.0327
 9856TIP3    H251060   2.820   5.969   0.397 -0.6661 -0.9299  0.1112
 9857TIP3   OH251061   0.018   2.600  16.082 -0.5911  0.3290 -0.1184
 9857TIP3    H151062   0.052   2.578  15.995  0.0691 -1.9256  0.6457
 9857TIP3    H251063  -0.039   2.527  16.104 -0.6299  0.7909  1.3980
 9858TIP3   OH251064   0.719   4.562   6.731 -0.0632  0.4910 -0.0368
 9858TIP3    H151065   0.788   4.562   6.665  0.4737  0.2075  0.5101
 9858TIP3    H251066   0.764   4.588   6.812 -0.2206 -1.3138  0.6890
 9859TIP3   OH251067   3.814   1.707   0.677  0.2148 -0.2014 -0.3810
 9859TIP3    H151068   3.848   1.737   0.761  1.7712 -0.5805 -0.8332
 9859TIP3    H251069   3.737   1.655   0.699  1.3834 -1.4733  0.9453
 9860TIP3   OH251070   3.807   4.980   5.998 -0.2988  0.4449  0.0921
 9860TIP3    H151071   3.742   4.938   5.940 -0.8665 -1.0155  1.7023
 9860TIP3    H251072   3.835   4.910   6.057 -1.6533  2.3573  3.2656
 9861TIP3   OH251073   2.729   4.120  13.951 -0.5423 -0.5608 -0.0255
 9861TIP3    H151074   2.813   4.144  13.991 -0.7242 -2.2856  1.5090
 9861TIP3    H251075   2.703   4.199  13.903  1.2514  0.5143  0.6344
 9862TIP3   OH251076   4.745   2.696  11.972  0.4516 -0.0520  0.5307
 9862TIP3    H151077   4.786   2.682  12.058  0.6242 -2.2178  0.1378
 9862TIP3    H251078   4.796   2.642  11.912  0.8624  2.0591 -1.1540
 9863TIP3   OH251079   4.074   3.028  11.085  0.5413  0.3605  0.2822
 9863TIP3    H151080   4.020   3.100  11.053 -0.2781 -0.7816 -1.0396
 9863TIP3    H251081   4.032   2.949  11.049  1.7217 -0.7306  1.2215
 9864TIP3   OH251082   3.439   0.684  15.868  0.2791 -0.4342  0.4834
 9864TIP3    H151083   3.421   0.672  15.775 -2.0619  0.6429  0.7293
 9864TIP3    H251084   3.384   0.620  15.912 -2.1958  1.9805  1.2128
 9865TIP3   OH251085   3.002   3.065   1.792 -0.5331 -0.1330  0.0707
 9865TIP3    H151086   3.060   2.999   1.830  1.2695  0.7972 -0.9198
 9865TIP3    H251087   2.925   3.064   1.848  1.1814 -0.1500  2.6216
 9866TIP3   OH251088   3.644   2.255  17.434 -0.1100  0.5087  0.4722
 9866TIP3    H151089   3.706   2.319  17.401 -0.8091  0.5339 -0.8868
 9866TIP3    H251090   3.560   2.301  17.436 -1.0584 -0.8179 -2.4981
 9867TIP3   OH251091   0.996   1.902  15.942  0.1261 -0.1050 -0.1213
 9867TIP3    H151092   0.924   1.849  15.977  0.3759 -0.6163 -0.3601
 9867TIP3    H251093   0.954   1.971  15.893 -0.2114 -0.0168  0.2859
 9868TIP3   OH251094   1.546   2.792  16.778  0.8838  0.7526 -0.6868
 9868TIP3    H151095   1.569   2.809  16.870  1.5500 -0.9984 -0.4816
 9868TIP3    H251096   1.454   2.818  16.771  0.8140  0.8981  0.4790
 9869TIP3   OH251097   6.765   0.218   4.975 -0.4145 -0.5391  0.2804
 9869TIP3    H151098   6.835   0.200   4.912 -1.5951  0.1340 -1.2779
 9869TIP3    H251099   6.686   0.228   4.921 -1.4330  0.2505  1.8552
 9870TIP3   OH251100   3.483   3.772  12.190  0.0283 -0.8489  0.0122
 9870TIP3    H151101   3.411   3.835  12.200  1.8904  1.2186  1.2484
 9870TIP3    H251102   3.499   3.769  12.096 -2.1681 -2.0298 -0.4001
 9871TIP3   OH251103   1.594   2.594   1.585  0.1991 -0.3404 -0.4617
 9871TIP3    H151104   1.499   2.599   1.596  0.3463  1.0941  0.3970
 9871TIP3    H251105   1.629   2.601   1.674  1.1372 -0.2312 -0.8226
 9872TIP3   OH251106   5.955   2.831   1.622  0.5595  0.0353  0.2515
 9872TIP3    H151107   5.864   2.804   1.626 -0.2436  2.1822 -1.4474
 9872TIP3    H251108   5.987   2.822   1.712 -1.5024 -0.1721  1.0141
 9873TIP3   OH251109   3.035   0.013  12.510  0.6509 -0.0684 -0.2225
 9873TIP3    H151110   2.974   0.023  12.437 -0.6410  0.1177  0.8595
 9873TIP3    H251111   3.120   0.036  12.473  0.3645 -1.8555 -2.1914
 9874TIP3   OH251112   5.066   3.545   5.654  0.2964 -0.3094 -0.0130
 9874TIP3    H151113   5.058   3.449   5.649 -1.6423 -0.1516 -1.0186
 9874TIP3    H251114   5.129   3.568   5.586 -1.1732 -0.7298 -1.5918
 9875TIP3   OH251115   5.566   0.361  13.201 -0.5617 -0.3224  0.0426
 9875TIP3    H151116   5.617   0.291  13.241  0.3680  0.3630  0.0663
 9875TIP3    H251117   5.488   0.369  13.257 -1.2327 -2.0552 -0.5679
 9876TIP3   OH251118   0.723   1.607   3.520 -0.4467  0.5527 -0.5471
 9876TIP3    H151119   0.662   1.626   3.591 -0.1520  0.2002 -0.1902
 9876TIP3    H251120   0.805   1.585   3.565 -0.5467 -0.7344 -0.9534
 9877TIP3   OH251121   5.694   1.988  13.273  0.0266  0.1960  0.3547
 9877TIP3    H151122   5.654   1.908  13.241 -0.2190  0.8235 -0.9883
 9877TIP3    H251123   5.683   1.984  13.368  0.5704 -1.6243  0.3804
 9878TIP3   OH251124   6.007   5.984  15.631 -0.0485  0.2252 -0.0989
 9878TIP3    H151125   5.934   5.945  15.584  1.0798 -1.3926 -0.5846
 9878TIP3    H251126   6.064   6.019  15.563  0.4333  0.0164  0.1938
 9879TIP3   OH251127   4.026   4.852  14.335 -0.2227 -0.2040 -0.2293
 9879TIP3    H151128   4.019   4.919  14.404 -2.6020  0.1334 -0.7323
 9879TIP3    H251129   4.050   4.901  14.257 -0.0525 -0.2176 -0.1861
 9880TIP3   OH251130   0.830   4.300   6.429 -0.4672 -0.3385 -0.5654
 9880TIP3    H151131   0.920   4.299   6.461 -1.1968 -1.2162  1.6796
 9880TIP3    H251132   0.837   4.272   6.337  1.5651  0.1895 -0.6282
 9881TIP3   OH251133   5.143   3.461  12.759 -0.4024 -0.1148 -0.7859
 9881TIP3    H151134   5.232   3.427  12.764 -1.1044 -1.9831 -0.0735
 9881TIP3    H251135   5.131   3.485  12.667  0.5632 -0.6567 -1.0595
 9882TIP3   OH251136   5.443   2.168  13.500  0.0540  0.1553  0.5262
 9882TIP3    H151137   5.430   2.251  13.456  0.2233  1.0319  2.0576
 9882TIP3    H251138   5.471   2.192  13.588 -0.8413 -1.5076  1.3074
 9883TIP3   OH251139   3.993   2.500  16.214 -0.0568  0.0747 -0.0114
 9883TIP3    H151140   3.913   2.538  16.176  2.1281  2.2311 -2.9291
 9883TIP3    H251141   3.977   2.406  16.212 -2.7846  0.4330  0.2319
 9884TIP3   OH251142   1.380   0.324  14.238  0.6366 -0.1579 -0.3117
 9884TIP3    H151143   1.437   0.397  14.215  0.2906 -0.0403 -0.8000
 9884TIP3    H251144   1.294   0.349  14.205  0.5015 -0.7564 -0.4299
 9885TIP3   OH251145   1.256   2.208  10.978 -0.2604  0.2334  0.2616
 9885TIP3    H151146   1.215   2.210  10.891  0.0887  0.9078  0.1079
 9885TIP3    H251147   1.310   2.287  10.981  2.6518 -1.5654 -0.3131
 9886TIP3   OH251148   1.292   4.474  11.922 -0.0075  0.2731 -0.0663
 9886TIP3    H151149   1.357   4.489  11.854 -0.7492 -0.3797 -0.9364
 9886TIP3    H251150   1.319   4.392  11.963  1.3900  1.4678  1.5932
 9887TIP3   OH251151   1.937   5.955   0.076 -0.0135 -0.0185 -0.0057
 9887TIP3    H151152   1.882   6.032   0.057  0.9081  0.3387 -1.3410
 9887TIP3    H251153   1.910   5.928   0.164 -3.3503 -0.7283 -1.0926
 9888TIP3   OH251154   3.537   3.853   1.461 -0.3534 -0.6515 -0.3238
 9888TIP3    H151155   3.614   3.908   1.476 -0.2895 -0.9700  0.5363
 9888TIP3    H251156   3.547   3.780   1.521  0.4422 -2.5578 -2.6481
 9889TIP3   OH251157   4.804   1.029   0.550 -0.0735  0.4134 -0.1380
 9889TIP3    H151158   4.891   1.008   0.584 -0.6151 -0.6578  0.6504
 9889TIP3    H251159   4.794   1.122   0.568  0.4854  0.3167  0.7544
 9890TIP3   OH251160   2.756   5.569  14.520 -0.2367 -0.2652  0.2758
 9890TIP3    H151161   2.824   5.572  14.453 -0.5382 -1.0443 -0.0872
 9890TIP3    H251162   2.675   5.587  14.473 -0.5252 -1.4042  0.2930
 9891TIP3   OH251163   4.093   2.347   3.493 -0.0617 -0.0530  0.4242
 9891TIP3    H151164   4.108   2.441   3.485  2.6256 -0.2480  1.9575
 9891TIP3    H251165   4.077   2.333   3.586  0.4187 -1.1910  0.3545
 9892TIP3   OH251166   1.972   5.250  15.490 -0.1425  0.1527  0.5408
 9892TIP3    H151167   2.042   5.269  15.552 -0.9685 -1.1675  1.9510
 9892TIP3    H251168   1.975   5.155  15.479 -1.9408  0.0119  0.9392
 9893TIP3   OH251169   1.597   1.596  13.911  0.5481 -0.0561 -0.6913
 9893TIP3    H151170   1.549   1.524  13.953  1.3073 -0.2443 -0.1261
 9893TIP3    H251171   1.540   1.624  13.839 -0.5930 -0.0229  0.1907
 9894TIP3   OH251172   3.018   5.877  13.883 -0.3633 -0.0446 -0.5950
 9894TIP3    H151173   3.023   5.960  13.836  0.9024  0.6581  0.7229
 9894TIP3    H251174   3.032   5.810  13.815  1.8756  0.9586 -1.2266
 9895TIP3   OH251175   6.066   1.287  12.509  0.4112 -0.1145  0.1832
 9895TIP3    H151176   5.983   1.332  12.521  0.1630 -0.7877  1.1731
 9895TIP3    H251177   6.116   1.306  12.589  1.1168  0.0909 -0.2956
 9896TIP3   OH251178   5.260   4.073   4.358 -0.8217  0.1289 -0.2871
 9896TIP3    H151179   5.190   4.011   4.380  0.0806 -0.5098  0.8859
 9896TIP3    H251180   5.262   4.135   4.432 -0.3039  0.2844 -0.4242
 9897TIP3   OH251181   0.864   1.701  12.581  0.1101  0.1435 -0.5904
 9897TIP3    H151182   0.923   1.667  12.514  1.1073  0.0527  0.3015
 9897TIP3    H251183   0.870   1.637  12.652 -1.0104  0.1856 -0.4415
 9898TIP3   OH251184   2.297   0.220  14.810  0.2688  0.1687  0.4855
 9898TIP3    H151185   2.326   0.135  14.844 -1.0287  0.1549  1.6310
 9898TIP3    H251186   2.287   0.275  14.887  1.2798  1.4605 -0.2560
 9899TIP3   OH251187   0.289   4.376   4.078 -0.3125 -0.2029  0.3488
 9899TIP3    H151188   0.304   4.287   4.048 -2.5854 -0.8914  1.0663
 9899TIP3    H251189   0.195   4.380   4.097 -0.0228  1.9189  1.7277
 9900TIP3   OH251190   0.462   3.325  16.788 -0.2308 -0.0010 -0.1385
 9900TIP3    H151191   0.391   3.388  16.775  0.5226  0.6435 -1.2561
 9900TIP3    H251192   0.499   3.311  16.701  1.5718  0.3560  0.5107
 9901TIP3   OH251193   0.441   6.241  14.092 -0.5486  0.2313  0.9398
 9901TIP3    H151194   0.479   6.234  14.179  1.4374 -0.0272  0.1114
 9901TIP3    H251195   0.499   6.302  14.046 -1.9589  0.8997 -0.0110
 9902TIP3   OH251196   1.742   1.276  13.651  0.6373 -0.2867 -0.0260
 9902TIP3    H151197   1.680   1.247  13.718 -0.1874 -0.1771 -0.7276
 9902TIP3    H251198   1.819   1.220  13.663  0.5527 -0.1809  1.0842
 9903TIP3   OH251199   1.715   0.957  13.569 -0.5257  0.8004 -0.2299
 9903TIP3    H151200   1.693   1.032  13.514 -0.6329 -0.1083 -1.4823
 9903TIP3    H251201   1.788   0.915  13.524 -0.9960 -0.3040  0.0043
 9904TIP3   OH251202   6.693   3.513   4.422  0.3974 -0.1590  0.0555
 9904TIP3    H151203   6.657   3.532   4.509 -0.4055 -1.1422 -0.0339
 9904TIP3    H251204   6.672   3.590   4.369  2.9952  1.5420  1.2728
 9905TIP3   OH251205   3.981   5.528   5.047  0.0831 -0.2103 -0.3616
 9905TIP3    H151206   3.915   5.459   5.041 -0.2850  0.1026  0.0170
 9905TIP3    H251207   4.020   5.516   5.134  0.6414 -0.4942 -0.6459
 9906TIP3   OH251208   2.285   6.745  16.377  0.4365 -0.4515  1.0472
 9906TIP3    H151209   2.206   6.736  16.432 -0.7022 -0.7185 -0.5681
 9906TIP3    H251210   2.268   6.824  16.325  0.4966 -1.3964 -0.4487
 9907TIP3   OH251211   5.323   3.536  14.918  0.1009  0.2995 -0.3176
 9907TIP3    H151212   5.289   3.622  14.945  1.0578  0.2423  1.2363
 9907TIP3    H251213   5.404   3.555  14.872  2.1928  0.2427  2.9683
 9908TIP3   OH251214   6.565   4.736  11.675 -0.0921  0.5776  0.2486
 9908TIP3    H151215   6.625   4.714  11.604 -0.3719  0.3068  0.0985
 9908TIP3    H251216   6.483   4.758  11.631 -0.7190 -1.0313  0.5524
 9909TIP3   OH251217   1.799   6.360  17.203 -0.6079 -0.1603 -0.2020
 9909TIP3    H151218   1.847   6.420  17.146 -1.1652  2.1965  1.6083
 9909TIP3    H251219   1.860   6.289  17.220  0.8772  0.8873 -0.9174
 9910TIP3   OH251220   2.654   6.069   2.498 -0.1346  0.2415 -0.1049
 9910TIP3    H151221   2.746   6.041   2.498 -0.3818 -0.6326 -0.9012
 9910TIP3    H251222   2.611   6.009   2.437 -1.2046  0.7554  0.1221
 9911TIP3   OH251223   3.025   4.154  12.392 -0.3337 -0.1922  1.0040
 9911TIP3    H151224   3.009   4.157  12.487 -0.0773  2.5426  1.0631
 9911TIP3    H251225   2.975   4.229  12.358 -0.1988 -0.9708 -1.0010
 9912TIP3   OH251226   5.847   4.940   4.375  0.3259  0.1272 -0.0315
 9912TIP3    H151227   5.786   4.962   4.446 -0.0005  0.2428 -0.3418
 9912TIP3    H251228   5.930   4.980   4.401 -0.1651  1.4533 -0.4073
 9913TIP3   OH251229   0.834   0.958   3.484 -0.2622 -0.0537  0.4992
 9913TIP3    H151230   0.780   0.969   3.562  0.1058 -0.2601  0.7838
 9913TIP3    H251231   0.909   1.015   3.498 -1.4825  2.0213 -0.9136
 9914TIP3   OH251232   0.198   4.836  16.059  0.1654  0.1723  0.8825
 9914TIP3    H151233   0.113   4.791  16.056  0.1906  0.1891 -0.4460
 9914TIP3    H251234   0.176   4.926  16.086 -0.2032  0.0945  0.8550
 9915TIP3   OH251235   3.762   6.029   5.624 -0.2782  0.3788  0.2185
 9915TIP3    H151236   3.679   6.069   5.653  0.2578 -0.6935  3.6610
 9915TIP3    H251237   3.760   5.941   5.660  1.9636 -0.0124 -0.4590
 9916TIP3   OH251238   5.920   5.095   3.054  0.2007 -0.5385  0.1421
 9916TIP3    H151239   5.916   5.152   3.130  0.7354 -0.3311  0.0166
 9916TIP3    H251240   5.842   5.039   3.061 -0.7557  0.7174 -0.1487
 9917TIP3   OH251241   1.773   3.053  13.746 -0.1399 -0.7447  0.0025
 9917TIP3    H151242   1.711   3.118  13.712  0.1526 -1.1872 -1.4154
 9917TIP3    H251243   1.811   3.013  13.669  1.0181 -1.3592  0.8628
 9918TIP3   OH251244   6.007   5.643  15.705 -0.1981  0.1170 -0.7472
 9918TIP3    H151245   6.088   5.612  15.745 -0.2940 -0.0155 -0.6539
 9918TIP3    H251246   6.031   5.666  15.615 -0.4942 -1.8926 -1.3873
 9919TIP3   OH251247   2.817   0.976   2.305  0.0650 -0.5659 -0.2279
 9919TIP3    H151248   2.740   1.023   2.336  1.2099  0.3214  1.4503
 9919TIP3    H251249   2.830   1.006   2.215 -0.5166  0.6487  0.0745
 9920TIP3   OH251250   3.679   1.125  16.793  0.4683  0.2197  0.3070
 9920TIP3    H151251   3.731   1.046  16.808 -1.2653 -0.7265  1.7912
 9920TIP3    H251252   3.679   1.169  16.878 -1.1597  0.1357  0.3834
 9921TIP3   OH251253   4.872   6.543  12.945  0.2315  0.2191 -0.3186
 9921TIP3    H151254   4.962   6.560  12.972  0.2458  0.2130 -0.3628
 9921TIP3    H251255   4.832   6.629  12.937 -0.6083  0.2036  2.5237
 9922TIP3   OH251256   5.222   3.063  17.007  0.0833  0.0076 -0.1563
 9922TIP3    H151257   5.226   3.087  16.915 -2.1964 -0.0957 -0.3376
 9922TIP3    H251258   5.224   3.146  17.054  0.8688  0.0775 -0.3064
 9923TIP3   OH251259   6.516   2.910  12.640 -0.0501 -0.3860  0.0520
 9923TIP3    H151260   6.445   2.937  12.697  1.4639  0.4486  1.6530
 9923TIP3    H251261   6.576   2.861  12.698  1.4347  0.3016 -0.8397
 9924TIP3   OH251262   6.072   3.384  12.859 -0.6600  0.3383  0.4213
 9924TIP3    H151263   6.065   3.317  12.790 -2.5569  1.0012 -0.0826
 9924TIP3    H251264   6.136   3.347  12.920  0.2599 -0.7706 -1.1179
 9925TIP3   OH251265   1.272   2.221   4.390  0.5419 -0.3121  0.4726
 9925TIP3    H151266   1.219   2.291   4.427 -1.9820 -1.6602 -0.3163
 9925TIP3    H251267   1.275   2.240   4.296  0.0544 -1.0782  0.2904
 9926TIP3   OH251268   1.357   5.940   4.972  0.4019  0.2408  0.1453
 9926TIP3    H151269   1.350   5.977   4.884 -1.4163  0.6767  0.4210
 9926TIP3    H251270   1.447   5.957   4.999  1.5158 -1.4004 -2.2481
 9927TIP3   OH251271   4.013   1.349  10.973  0.3599  0.7583  0.1894
 9927TIP3    H151272   4.088   1.325  10.919  0.8175 -0.8734  1.4820
 9927TIP3    H251273   3.946   1.285  10.951  0.7633 -0.3197  1.9532
 9928TIP3   OH251274   1.424   6.578   1.793 -0.1083  0.0341 -0.0554
 9928TIP3    H151275   1.328   6.572   1.798 -0.0313 -0.1551  1.5303
 9928TIP3    H251276   1.441   6.672   1.783 -0.4572  0.0397 -0.6708
 9929TIP3   OH251277   4.754   5.018   4.649  0.3932 -0.1943 -0.1271
 9929TIP3    H151278   4.824   5.074   4.616 -1.1672  1.3867 -0.8985
 9929TIP3    H251279   4.718   5.066   4.723 -0.2972 -0.6975 -0.1239
 9930TIP3   OH251280   1.802   0.300  13.685 -0.8943 -0.2164 -0.3890
 9930TIP3    H151281   1.854   0.276  13.609  0.6755 -0.6981  0.7746
 9930TIP3    H251282   1.866   0.333  13.748 -2.1424  0.1754  0.7223
 9931TIP3   OH251283   0.691   1.949  10.754 -0.1987 -0.2629  0.2630
 9931TIP3    H151284   0.663   1.931  10.665 -1.0117 -0.1583  0.4867
 9931TIP3    H251285   0.724   2.039  10.751  0.4816 -0.5175 -0.0825
 9932TIP3   OH251286   3.117   2.708  15.000  0.3605 -0.5680  0.2733
 9932TIP3    H151287   3.030   2.744  14.985  0.5965 -0.3539 -0.6733
 9932TIP3    H251288   3.105   2.644  15.070 -0.3471  0.2566  0.9271
 9933TIP3   OH251289   6.747   2.665  12.367  0.2248 -0.0952 -0.0748
 9933TIP3    H151290   6.795   2.619  12.436 -1.4066 -2.0463 -0.1596
 9933TIP3    H251291   6.726   2.750  12.404  1.0698 -0.3676  1.0774
 9934TIP3   OH251292   6.348   2.965   5.959 -0.1752  0.0556  0.1100
 9934TIP3    H151293   6.278   3.030   5.953  0.4532  0.5922 -2.1402
 9934TIP3    H251294   6.307   2.883   5.933 -0.6480 -0.2449  1.6910
 9935TIP3   OH251295   4.470   2.312  17.328 -0.0224  0.4637 -0.3201
 9935TIP3    H151296   4.431   2.369  17.395 -0.5612  2.2975 -2.0900
 9935TIP3    H251297   4.563   2.309  17.350 -0.4185 -0.4150  1.4604
 9936TIP3   OH251298   4.122   4.476   5.719 -0.0871 -0.1607 -0.0335
 9936TIP3    H151299   4.100   4.562   5.755  0.7740 -0.7289  1.9950
 9936TIP3    H251300   4.040   4.427   5.721 -0.5358  0.5059 -0.9971
 9937TIP3   OH251301   1.977   5.040   3.547  0.1627 -0.1724  0.5136
 9937TIP3    H151302   1.905   5.072   3.600  0.8385  0.3180  1.1647
 9937TIP3    H251303   1.938   4.976   3.488 -0.6369 -0.5985  1.4898
 9938TIP3   OH251304   2.778   5.549   0.161 -0.5675 -0.0952  0.0869
 9938TIP3    H151305   2.688   5.533   0.189  0.0082 -1.7887  1.1127
 9938TIP3    H251306   2.777   5.535   0.066 -1.3580 -0.2383  0.1149
 9939TIP3   OH251307   1.436   1.983  11.015  0.9036 -0.6818 -0.4620
 9939TIP3    H151308   1.427   1.924  10.940  1.6564 -0.4690 -0.7288
 9939TIP3    H251309   1.368   2.050  11.002 -1.2526 -2.4804  0.8286
 9940TIP3   OH251310   2.976   5.047   0.862 -0.1262  0.3717 -0.1199
 9940TIP3    H151311   2.905   5.035   0.798  0.5492 -1.3647 -0.5877
 9940TIP3    H251312   2.931   5.075   0.942 -1.5364 -1.8754 -0.0368
 9941TIP3   OH251313   1.937   2.942  13.542  0.1517 -0.2230  0.8412
 9941TIP3    H151314   1.927   2.858  13.497 -0.7528  0.7965 -0.9631
 9941TIP3    H251315   1.994   2.993  13.484  1.9438 -0.0315  2.6339
 9942TIP3   OH251316   1.020   3.975  14.641  0.2521  0.4527 -0.1042
 9942TIP3    H151317   0.951   3.939  14.585  2.0851  0.2420 -2.3773
 9942TIP3    H251318   1.063   3.898  14.678 -0.0372  0.5491  0.4409
 9943TIP3   OH251319   3.282   6.434   1.335 -0.1054  0.5763  0.1017
 9943TIP3    H151320   3.239   6.516   1.359 -0.7107  0.1552  0.4787
 9943TIP3    H251321   3.345   6.459   1.268 -1.2967  1.1417 -0.8517
 9944TIP3   OH251322   1.282   4.672  11.340  0.2499 -0.1920 -0.1147
 9944TIP3    H151323   1.342   4.747  11.342  1.8044 -1.3351 -1.3373
 9944TIP3    H251324   1.330   4.602  11.383 -0.5352 -0.9301 -0.4236
 9945TIP3   OH251325   3.943   4.183  12.160 -0.3971  0.0241 -0.5321
 9945TIP3    H151326   3.863   4.235  12.156 -1.4705 -1.5711 -1.0043
 9945TIP3    H251327   3.983   4.194  12.074  0.1194  1.1241 -0.1702
 9946TIP3   OH251328   6.079   6.727  15.191  0.2479 -0.4332  0.1064
 9946TIP3    H151329   6.125   6.725  15.275 -1.1442 -0.4517  0.8850
 9946TIP3    H251330   6.124   6.662  15.137  0.7831 -0.8457  1.0327
 9947TIP3   OH251331   3.617   6.096   3.710 -0.2070  0.3522  0.1348
 9947TIP3    H151332   3.682   6.066   3.774 -0.5946  0.1109  0.4249
 9947TIP3    H251333   3.646   6.058   3.627  0.4767  0.9311  0.1038
 9948TIP3   OH251334   0.241   6.246  14.345  0.2687  0.2363  0.0157
 9948TIP3    H151335   0.173   6.226  14.281  0.6130  0.6110 -0.4722
 9948TIP3    H251336   0.194   6.255  14.428 -0.1708 -0.3227 -0.1649
 9949TIP3   OH251337   0.847   1.558  15.698  0.0025 -0.0171  0.6135
 9949TIP3    H151338   0.881   1.633  15.648  2.3136 -1.6553 -0.4595
 9949TIP3    H251339   0.763   1.538  15.657 -1.1072  2.4408  1.4799
 9950TIP3   OH251340   2.413   4.779   2.203  0.7628  0.5249 -0.6313
 9950TIP3    H151341   2.362   4.846   2.249 -1.9267 -1.8752  0.1687
 9950TIP3    H251342   2.483   4.756   2.263 -0.3137  0.2815  0.5701
 9951TIP3   OH251343   3.859   6.318   4.899  0.3827  0.0735 -0.1585
 9951TIP3    H151344   3.949   6.286   4.908  0.4882  0.9950  4.2991
 9951TIP3    H251345   3.867   6.398   4.847  2.3681  0.7188  1.0253
 9952TIP3   OH251346   4.752   0.581  11.820  0.6877  0.3175  0.3074
 9952TIP3    H151347   4.749   0.640  11.746  0.2842  0.4179  0.4047
 9952TIP3    H251348   4.792   0.501  11.785 -0.1077  0.1263 -0.1842
 9953TIP3   OH251349   4.769   2.608  14.137  0.5392 -0.4523  0.3516
 9953TIP3    H151350   4.796   2.542  14.201 -0.2902 -0.8079  0.3484
 9953TIP3    H251351   4.846   2.620  14.081  0.3801 -2.2300 -0.3225
 9954TIP3   OH251352   3.195   2.497   4.848  0.2719  0.1003 -0.3212
 9954TIP3    H151353   3.247   2.496   4.929  0.8062  1.7036 -0.6056
 9954TIP3    H251354   3.109   2.529   4.875  0.0450 -0.5996 -0.1902
 9955TIP3   OH251355   4.748   3.839  15.062  0.0190 -0.4943  0.3255
 9955TIP3    H151356   4.770   3.887  14.983 -0.8285 -0.9514 -0.2004
 9955TIP3    H251357   4.798   3.758  15.057  0.9329  0.0186  0.8865
 9956TIP3   OH251358   5.618   5.791  15.665 -0.2733 -0.5333 -0.1310
 9956TIP3    H151359   5.555   5.720  15.675  0.1285 -0.8492  0.1776
 9956TIP3    H251360   5.686   5.772  15.730  1.0579 -1.1816 -1.6482
 9957TIP3   OH251361   3.705   2.681  11.932  0.1055 -0.2874  0.0315
 9957TIP3    H151362   3.799   2.673  11.918 -0.0672 -0.0080 -1.5186
 9957TIP3    H251363   3.669   2.596  11.907 -0.2270  0.2563 -1.4864
 9958TIP3   OH251364   3.416   1.924  13.131 -0.3117 -0.1026 -0.6334
 9958TIP3    H151365   3.321   1.920  13.119 -0.1940  0.7175 -2.0103
 9958TIP3    H251366   3.452   1.878  13.056  0.3904 -1.4031  0.4679
 9959TIP3   OH251367   1.042   3.181   1.627 -0.0747  0.4230 -0.3318
 9959TIP3    H151368   1.061   3.266   1.666 -1.1832 -0.1731  1.6462
 9959TIP3    H251369   1.021   3.200   1.535  0.2236  2.1924 -0.0650
 9960TIP3   OH251370   4.766   4.302   2.552  0.5021 -0.2978 -0.9163
 9960TIP3    H151371   4.753   4.377   2.494 -1.3620  1.5370  1.6185
 9960TIP3    H251372   4.829   4.333   2.618 -0.4055 -0.8401  0.2485
 9961TIP3   OH251373   2.689   1.050   2.864 -0.1658 -0.0482  0.3994
 9961TIP3    H151374   2.739   1.059   2.946  1.1933 -0.5043 -0.3377
 9961TIP3    H251375   2.753   1.071   2.796 -1.6830  1.8840 -0.5030
 9962TIP3   OH251376   1.194   0.327  16.305  0.0528  0.0364 -0.2455
 9962TIP3    H151377   1.113   0.362  16.269  0.8644  0.2797 -1.8876
 9962TIP3    H251378   1.237   0.402  16.347 -0.3521 -0.0075  0.2642
 9963TIP3   OH251379   5.577   6.694   0.439 -0.5396  0.0394 -0.1671
 9963TIP3    H151380   5.547   6.721   0.525 -0.5328 -0.0896 -0.1242
 9963TIP3    H251381   5.497   6.683   0.388 -0.5653 -0.3197 -0.0484
 9964TIP3   OH251382   3.157   4.444  13.050 -0.1807  0.3030 -0.1153
 9964TIP3    H151383   3.210   4.365  13.046 -2.1898 -1.0642 -1.9198
 9964TIP3    H251384   3.183   4.486  13.132  2.1904 -1.2923  0.0432
 9965TIP3   OH251385   3.004   6.598   3.457 -0.4946  0.0445 -0.0152
 9965TIP3    H151386   2.911   6.590   3.475 -0.1683 -0.0327  1.9264
 9965TIP3    H251387   3.020   6.541   3.382 -1.9587 -0.1147 -0.2288
 9966TIP3   OH251388   5.415   2.771  14.528 -0.6791 -0.2912  0.3870
 9966TIP3    H151389   5.476   2.725  14.470  0.2985  0.8040  0.5034
 9966TIP3    H251390   5.344   2.798  14.470 -0.9136 -1.3057  0.1847
 9967TIP3   OH251391   2.913   4.857   3.158  0.1415  0.5364 -0.0518
 9967TIP3    H151392   2.835   4.810   3.188  0.5115 -0.4210 -0.5713
 9967TIP3    H251393   2.880   4.916   3.090 -0.2441  0.6725  0.2449
 9968TIP3   OH251394   1.141   4.789  12.096  0.4273  0.4837  0.1448
 9968TIP3    H151395   1.124   4.883  12.088 -0.4190  0.3028 -0.3214
 9968TIP3    H251396   1.065   4.748  12.055 -0.5767 -0.4364  2.7650
 9969TIP3   OH251397   2.965   4.695  14.616 -0.2855  0.2214 -0.3669
 9969TIP3    H151398   2.916   4.697  14.698 -1.1372 -1.7278 -0.7773
 9969TIP3    H251399   3.024   4.620  14.626  2.0319  1.9280 -0.2659
 9970TIP3   OH251400   1.168   6.612   0.939 -0.4139  0.0430  0.1161
 9970TIP3    H151401   1.123   6.659   1.009 -0.1242 -1.4370  1.3646
 9970TIP3    H251402   1.123   6.527   0.935  0.2233 -0.2678 -0.8228
 9971TIP3   OH251403   4.064   4.030   4.953 -0.3968 -0.7128  0.2472
 9971TIP3    H151404   4.132   3.989   4.899 -0.9949 -1.0988 -0.2316
 9971TIP3    H251405   3.991   3.967   4.952  0.3562 -1.7950  3.3833
 9972TIP3   OH251406   6.013   2.869  17.396  0.2150  0.3174  0.4689
 9972TIP3    H151407   5.935   2.924  17.402 -0.2521 -0.2826 -0.0275
 9972TIP3    H251408   6.039   2.873  17.304  1.3280  1.2511  0.7945
 9973TIP3   OH251409   6.245   4.363   3.647 -0.0304 -0.3971 -0.3156
 9973TIP3    H151410   6.179   4.430   3.660  0.4582  0.1975 -0.8596
 9973TIP3    H251411   6.321   4.394   3.696 -0.3462 -1.4153  0.8996
 9974TIP3   OH251412   3.271   3.126  16.571 -0.0936 -0.1609  0.1369
 9974TIP3    H151413   3.192   3.143  16.521 -0.1856 -0.3070  0.2314
 9974TIP3    H251414   3.293   3.211  16.610  0.5028  0.1677 -0.8899
 9975TIP3   OH251415   4.211   2.832   5.623  0.4553 -0.2628 -0.2010
 9975TIP3    H151416   4.174   2.861   5.706  2.5032  1.1915  0.2819
 9975TIP3    H251417   4.297   2.875   5.619  0.0386  0.5193 -3.5057
 9976TIP3   OH251418   3.064   4.463  14.132 -0.5238  0.0064  0.6385
 9976TIP3    H151419   3.086   4.553  14.155  0.5669  0.1803 -0.9555
 9976TIP3    H251420   3.066   4.415  14.215 -1.7529  1.5453  1.6109
 9977TIP3   OH251421   1.802   5.442  12.809 -0.4435  0.1463  0.9426
 9977TIP3    H151422   1.852   5.435  12.728  0.0226  2.7683  0.9162
 9977TIP3    H251423   1.717   5.401  12.789  0.2325 -0.7132 -0.2970
 9978TIP3   OH251424   0.849   1.322   5.910  0.2505 -0.2858  0.2259
 9978TIP3    H151425   0.768   1.364   5.880  0.0998 -1.0267 -0.4251
 9978TIP3    H251426   0.915   1.390   5.903 -0.3780  0.4413  1.1120
 9979TIP3   OH251427   0.522   1.766   1.457  0.4703 -0.0201  0.2858
 9979TIP3    H151428   0.540   1.675   1.476  0.5193 -0.0608  0.0459
 9979TIP3    H251429   0.543   1.813   1.538  0.4442 -0.2206  0.4075
 9980TIP3   OH251430   5.408   6.717   1.580  0.1895 -1.2699 -0.1013
 9980TIP3    H151431   5.487   6.759   1.545 -0.4408 -0.6121 -0.7664
 9980TIP3    H251432   5.368   6.785   1.635  1.0179 -2.1955  1.7356
 9981TIP3   OH251433   0.506   6.074  13.518  0.3500 -0.0160  0.0705
 9981TIP3    H151434   0.535   6.004  13.577  4.0171  1.7565  0.6578
 9981TIP3    H251435   0.477   6.028  13.439 -1.4533 -2.2979  1.9029
 9982TIP3   OH251436   0.099   2.893  14.994  0.2598  0.5807  0.2099
 9982TIP3    H151437   0.016   2.939  15.004  0.0564  0.0845  0.9183
 9982TIP3    H251438   0.166   2.959  15.013  0.0240  0.9399 -0.1992
 9983TIP3   OH251439   4.496   3.995  10.576  0.7605  0.0521 -0.0344
 9983TIP3    H151440   4.410   3.954  10.574  1.3918 -1.4405  1.3668
 9983TIP3    H251441   4.497   4.044  10.659  0.6380  1.6057 -0.8974
 9984TIP3   OH251442   6.569   5.575   3.552 -0.0212  0.5485 -0.1288
 9984TIP3    H151443   6.664   5.559   3.557  0.0567  0.4356 -1.4962
 9984TIP3    H251444   6.546   5.549   3.463 -1.8042 -1.6743  0.8898
 9985TIP3   OH251445   1.424   3.534  14.624 -0.3913 -0.2237 -0.2649
 9985TIP3    H151446   1.481   3.579  14.562  1.4168  0.0544  1.4903
 9985TIP3    H251447   1.459   3.445  14.630 -0.0790 -0.0472  0.8469
 9986TIP3   OH251448   5.147   0.866   6.072 -0.3285 -0.3097 -0.2910
 9986TIP3    H151449   5.154   0.947   6.021 -1.8748 -0.6034 -1.0387
 9986TIP3    H251450   5.225   0.866   6.128  1.5663 -0.0238 -2.7233
 9987TIP3   OH251451   0.214   2.982  13.471  0.2124 -0.3438  0.3088
 9987TIP3    H151452   0.204   3.028  13.554  0.5737  0.9633 -0.3409
 9987TIP3    H251453   0.245   3.049  13.410 -0.0172 -1.2770 -0.8763
 9988TIP3   OH251454   1.361   2.863   1.590 -0.0672 -0.0843 -0.1768
 9988TIP3    H151455   1.320   2.841   1.506 -1.4671  2.1767 -0.1828
 9988TIP3    H251456   1.436   2.917   1.566  1.2484 -1.7777 -0.0351
 9989TIP3   OH251457   5.492   1.230   5.860 -0.2185 -0.2678 -0.1965
 9989TIP3    H151458   5.452   1.302   5.810  0.2306 -0.0569 -0.2619
 9989TIP3    H251459   5.496   1.263   5.949 -0.0161 -0.2107 -0.2260
 9990TIP3   OH251460   6.175   0.081  12.781  0.2213  0.1823  0.1250
 9990TIP3    H151461   6.123   0.161  12.776 -0.1986 -0.1175 -0.6332
 9990TIP3    H251462   6.129   0.026  12.844 -0.1426  0.0860 -0.2240
 9991TIP3   OH251463   4.995   4.160   3.662  0.1552  0.3430 -0.0583
 9991TIP3    H151464   4.939   4.232   3.633  0.7676  0.4376 -1.0507
 9991TIP3    H251465   4.944   4.081   3.644 -0.2727  0.4996  0.4673
 9992TIP3   OH251466   5.696   4.597  15.585 -0.0520 -0.7391  0.2178
 9992TIP3    H151467   5.700   4.663  15.654  0.0161  0.1697 -0.6299
 9992TIP3    H251468   5.664   4.644  15.508  0.3622 -1.6078 -0.5157
 9993TIP3   OH251469   5.299   1.540  13.588  0.0502 -0.5278  0.3915
 9993TIP3    H151470   5.289   1.492  13.506  0.4120 -0.2567  0.1878
 9993TIP3    H251471   5.231   1.607  13.585  1.2955  0.7610 -0.6028
 9994TIP3   OH251472   5.292   3.843   0.778  0.2743 -0.4172 -0.2220
 9994TIP3    H151473   5.372   3.877   0.817  0.6165 -0.2576 -1.0569
 9994TIP3    H251474   5.223   3.904   0.806  0.6063 -0.0000 -0.3113
 9995TIP3   OH251475   4.621   1.092   1.145  0.3744 -0.4958 -0.1860
 9995TIP3    H151476   4.589   1.178   1.171  0.0914 -0.6809  0.0890
 9995TIP3    H251477   4.562   1.065   1.075  1.9165  0.5581 -1.9705
 9996TIP3   OH251478   1.332   6.765   2.338  0.6356 -0.3963  0.0750
 9996TIP3    H151479   1.392   6.695   2.312  1.6409  0.8087 -0.9344
 9996TIP3    H251480   1.365   6.843   2.294 -1.7550  0.2932 -0.6399
 9997TIP3   OH251481   1.709   3.006  13.314  0.3129  0.3426 -0.1107
 9997TIP3    H151482   1.732   3.099  13.312  0.5863  0.2892  0.3213
 9997TIP3    H251483   1.786   2.962  13.277 -0.5302  0.4051 -2.0149
 9998TIP3   OH251484   1.938   4.062  12.919  1.0531  0.0444 -0.6880
 9998TIP3    H151485   2.005   4.087  12.855 -0.8109  1.8349 -2.0758
 9998TIP3    H251486   1.866   4.123  12.903 -0.3503 -0.8649  1.7136
 9999TIP3   OH251487   6.651   2.762  16.284 -0.0434  0.1031  0.2453
 9999TIP3    H151488   6.709   2.729  16.215 -0.1271  1.1365 -0.3304
 9999TIP3    H251489   6.695   2.738  16.366  0.1504 -0.9663 -0.1556
10000TIP3   OH251490   4.299   1.941   5.387 -0.0233 -0.4907  0.8804
10000TIP3    H151491   4.231   1.909   5.446 -0.8114 -0.6600 -0.1032
10000TIP3    H251492   4.377   1.890   5.410 -0.5355 -1.1427  1.1945
10001TIP3   OH251493   0.897   3.640   3.616 -0.3598 -0.1606  0.5168
10001TIP3    H151494   0.944   3.716   3.584 -0.6660 -0.4135 -0.5773
10001TIP3    H251495   0.811   3.673   3.642  0.4080  0.3237  2.6345
10002TIP3   OH251496   2.130   1.134  10.568 -0.0218  0.3342  0.0835
10002TIP3    H151497   2.105   1.059  10.515 -0.6197 -0.7070  1.7636
10002TIP3    H251498   2.225   1.124  10.581 -0.1134 -0.1988  0.3706
10003TIP3   OH251499   1.909   0.996   2.458  0.4815  0.1151 -0.1113
10003TIP3    H151500   1.872   0.985   2.546  0.8167  0.5453  0.0897
10003TIP3    H251501   1.867   1.075   2.424 -0.5994 -0.7670 -0.8458
10004TIP3   OH251502   6.197   5.399  12.722  0.0569 -0.2962  0.1441
10004TIP3    H151503   6.190   5.308  12.692 -1.3876  0.1769 -1.0968
10004TIP3    H251504   6.254   5.441  12.657  1.9080 -0.5861  1.5022
10005TIP3   OH251505   3.473   0.579   1.613 -0.2543  0.2744  0.2824
10005TIP3    H151506   3.508   0.668   1.612 -0.6184  0.4172 -0.0220
10005TIP3    H251507   3.498   0.544   1.699 -0.4221  0.7946  0.5453
10006TIP3   OH251508   6.450   0.904   4.650 -0.7050  0.3388 -0.3010
10006TIP3    H151509   6.498   0.834   4.694  0.1701 -0.8635 -2.9789
10006TIP3    H251510   6.502   0.983   4.667 -1.3935  0.3418  2.2659
10007TIP3   OH251511   1.621   3.930  17.119  0.4161  0.5129 -0.1721
10007TIP3    H151512   1.605   3.837  17.102 -1.4042  0.6256  0.7512
10007TIP3    H251513   1.712   3.943  17.093  0.6468 -1.4742 -0.5351
10008TIP3   OH251514   6.692   5.906  12.021 -0.0696  0.2118 -0.6778
10008TIP3    H151515   6.705   5.851  11.943  0.5220  0.8971 -1.0755
10008TIP3    H251516   6.609   5.951  12.004 -1.6026 -1.9490  0.5226
10009TIP3   OH251517   0.011   0.193  14.145 -0.1882  0.2683  0.3353
10009TIP3    H151518   0.104   0.197  14.123 -0.2152  2.1452  0.4039
10009TIP3    H251519  -0.014   0.102  14.129  1.9238 -0.5744  1.4768
10010TIP3   OH251520   1.093   6.013  13.890 -0.1180  0.0612  0.1894
10010TIP3    H151521   1.179   6.017  13.932  0.5171  0.9070 -1.0990
10010TIP3    H251522   1.034   6.058  13.949 -0.0746 -2.0212  1.9249
10011TIP3   OH251523   3.365   0.443  11.604 -0.4419 -0.5828 -0.3204
10011TIP3    H151524   3.388   0.437  11.697  0.6754 -1.1418 -0.6109
10011TIP3    H251525   3.313   0.365  11.587 -2.4404  0.5395  0.2727
10012TIP3   OH251526   2.368   6.508   5.088  0.0607  0.1694 -0.5189
10012TIP3    H151527   2.297   6.555   5.043  0.1639 -0.1341 -1.0041
10012TIP3    H251528   2.390   6.436   5.030 -1.0329 -1.3351  0.8377
10013TIP3   OH251529   6.073   5.795   2.997 -0.0181 -0.6014  0.2521
10013TIP3    H151530   6.142   5.834   3.051 -1.7731  1.0176  1.4527
10013TIP3    H251531   6.076   5.702   3.019  1.7617 -0.5890  0.2476
10014TIP3   OH251532   0.778   2.819  15.822 -0.4930 -0.0530 -0.3870
10014TIP3    H151533   0.711   2.823  15.891  0.5630  1.0448  0.6325
10014TIP3    H251534   0.728   2.821  15.740 -1.7166  0.6902  0.3342
10015TIP3   OH251535   1.370   0.853  12.027  0.2823  0.1588 -0.6754
10015TIP3    H151536   1.457   0.891  12.012 -0.3027  2.8359  1.8427
10015TIP3    H251537   1.383   0.795  12.102 -0.4275  2.8043  1.7050
10016TIP3   OH251538   4.222   1.885  16.037  0.6145 -0.0987  0.5084
10016TIP3    H151539   4.282   1.929  15.978 -1.5594  1.7862 -0.4802
10016TIP3    H251540   4.193   1.807  15.990  0.2486  0.4521 -0.2012
10017TIP3   OH251541   5.566   3.740  16.911  0.0632  0.0527 -0.1460
10017TIP3    H151542   5.573   3.834  16.896  2.1521  0.4956  2.9261
10017TIP3    H251543   5.642   3.702  16.867 -0.4271 -0.1722 -0.8285
10018TIP3   OH251544   0.599   0.669  14.095  0.3643  0.1679 -0.0437
10018TIP3    H151545   0.532   0.647  14.030 -0.4161  0.1306  0.7610
10018TIP3    H251546   0.679   0.629  14.061 -0.1486 -0.3282 -0.6942
10019TIP3   OH251547   4.100   4.188   0.384 -0.1833  0.2090 -0.7905
10019TIP3    H151548   4.170   4.132   0.418 -1.2305 -1.4765 -1.2557
10019TIP3    H251549   4.046   4.208   0.460  0.1625  0.5226 -0.6295
10020TIP3   OH251550   6.039   4.097   2.517 -0.7017  0.4566  0.0813
10020TIP3    H151551   6.088   4.162   2.465  0.2500  0.2049  0.6377
10020TIP3    H251552   5.948   4.121   2.505 -0.3642  2.0170  0.4180
10021TIP3   OH251553   0.876   5.091   4.285 -0.4000  0.0137  0.2822
10021TIP3    H151554   0.878   4.998   4.310  2.0957 -0.0789 -0.0199
10021TIP3    H251555   0.932   5.096   4.208 -0.2603  1.8362  0.4683
10022TIP3   OH251556   2.622   4.406  16.917 -0.2023  0.6876  0.3971
10022TIP3    H151557   2.569   4.467  16.865  0.4983  0.0485 -1.1076
10022TIP3    H251558   2.585   4.320  16.897  0.0713  0.4325  0.9748
10023TIP3   OH251559   5.494   6.626   3.120  0.0206  0.1748  0.5038
10023TIP3    H151560   5.428   6.678   3.167  1.0490  1.2521  0.8236
10023TIP3    H251561   5.487   6.655   3.029 -0.3764 -0.1903  0.4140
10024TIP3   OH251562   2.309   0.239  15.511 -0.2247  0.3089  0.5005
10024TIP3    H151563   2.307   0.211  15.603 -0.2983 -0.6869  0.2067
10024TIP3    H251564   2.382   0.190  15.473 -0.8439 -0.0861 -0.2167
10025TIP3   OH251565   6.537   2.482  15.434  0.3927 -0.2587  0.2013
10025TIP3    H151566   6.491   2.529  15.504  1.3585 -0.4401  0.9971
10025TIP3    H251567   6.547   2.546  15.364  0.2274  0.2145  0.6036
10026TIP3   OH251568   5.011   4.971  11.449  0.0991  0.0970 -0.1588
10026TIP3    H151569   5.022   4.876  11.440  0.2116 -0.0563  1.3721
10026TIP3    H251570   4.936   4.982  11.507 -1.0394  0.9986 -1.7353
10027TIP3   OH251571   4.631   6.492  16.115  0.0622  0.1508  0.6459
10027TIP3    H151572   4.721   6.498  16.082 -0.3584  2.5653 -0.3298
10027TIP3    H251573   4.622   6.567  16.174 -0.9356 -0.8539  1.8236
10028TIP3   OH251574   1.490   3.373  14.281 -0.1259  0.0030  0.3743
10028TIP3    H151575   1.421   3.402  14.222  2.7729  0.2352 -3.2558
10028TIP3    H251576   1.543   3.451  14.296  1.5579 -0.9833 -0.2508
10029TIP3   OH251577   6.704   4.687   5.703  0.2590 -0.2081  0.1684
10029TIP3    H151578   6.685   4.687   5.797  0.2486 -0.5546  0.1670
10029TIP3    H251579   6.671   4.602   5.672  1.0706 -0.4789  0.0171
10030TIP3   OH251580   5.817   1.582  10.997 -0.6182 -0.0775 -0.1844
10030TIP3    H151581   5.910   1.585  11.020 -0.7568  1.5840  0.3308
10030TIP3    H251582   5.784   1.503  11.039  0.4151 -0.3247  0.1974
10031TIP3   OH251583   4.959   4.335  14.872 -0.7823  0.1818  0.2220
10031TIP3    H151584   4.912   4.299  14.797  1.3474 -0.9199 -0.6833
10031TIP3    H251585   4.917   4.296  14.948 -0.6553 -1.6358 -0.5909
10032TIP3   OH251586   5.302   1.196  14.028  0.1907 -0.0093  0.3657
10032TIP3    H151587   5.300   1.249  13.948  0.1570  0.3744  0.6175
10032TIP3    H251588   5.370   1.237  14.081  0.6430 -0.6391  0.2773
10033TIP3   OH251589   5.575   2.179   3.673  0.1587  0.6759 -0.2012
10033TIP3    H151590   5.578   2.104   3.613 -3.4287  1.3405 -1.5342
10033TIP3    H251591   5.555   2.141   3.758  1.5916 -0.0456 -0.1627
10034TIP3   OH251592   1.792   1.261  13.059 -0.1428 -0.2990  0.2839
10034TIP3    H151593   1.727   1.192  13.048 -0.1301 -0.1164 -1.0822
10034TIP3    H251594   1.765   1.307  13.138 -1.1611 -0.7650  0.2173
10035TIP3   OH251595   1.099   6.572  13.337  0.2923  0.3080  0.4880
10035TIP3    H151596   1.134   6.489  13.370 -0.0553 -0.3095 -0.6628
10035TIP3    H251597   1.008   6.573  13.368  0.1566  0.0335  0.0999
10036TIP3   OH251598   1.046   2.368  15.345 -0.2695 -0.9077  0.7958
10036TIP3    H151599   0.965   2.355  15.394 -0.2575 -0.7249  0.8669
10036TIP3    H251600   1.026   2.340  15.256 -0.3447 -1.0740  0.8659
10037TIP3   OH251601   2.900   5.198   3.257 -0.1326  0.6150  0.0944
10037TIP3    H151602   2.823   5.201   3.314 -1.4419  1.8250 -1.6416
10037TIP3    H251603   2.868   5.227   3.172  1.2799 -3.0255 -1.8709
10038TIP3   OH251604   6.076   5.532   3.174 -0.2370  0.3730 -0.0142
10038TIP3    H151605   6.160   5.527   3.220  0.4022  0.5313 -1.1244
10038TIP3    H251606   6.092   5.488   3.090 -1.3519  0.1372 -0.1185
10039TIP3   OH251607   2.466   3.742   5.380 -0.6093 -0.8034  0.7166
10039TIP3    H151608   2.491   3.685   5.307  0.0878  1.4850 -0.9566
10039TIP3    H251609   2.538   3.734   5.443  0.8517  0.1949 -0.7393
10040TIP3   OH251610   0.749   5.746   6.816 -0.0798  0.9957 -0.7172
10040TIP3    H151611   0.738   5.774   6.725  0.0286  0.9530 -0.7441
10040TIP3    H251612   0.673   5.782   6.862 -0.4515  0.4985 -0.9458
10041TIP3   OH251613   2.546   4.065  12.101  0.3213 -0.5125  0.4874
10041TIP3    H151614   2.619   4.123  12.122  0.1591 -0.1679  0.1007
10041TIP3    H251615   2.482   4.121  12.058  0.5268 -1.1475 -0.6768
10042TIP3   OH251616   3.865   5.594   2.764  0.0814 -1.1419  0.0681
10042TIP3    H151617   3.922   5.602   2.688  0.3254 -0.1743  0.3429
10042TIP3    H251618   3.778   5.618   2.732  0.1109 -1.1132  0.0096
10043TIP3   OH251619   4.297   4.087   0.166  0.5530  0.1488 -0.1455
10043TIP3    H151620   4.209   4.049   0.168  0.0353  1.1266 -1.8870
10043TIP3    H251621   4.324   4.090   0.257 -1.2387 -0.1625  0.4412
10044TIP3   OH251622   1.127   5.970  13.472  0.0024 -0.7228  0.4055
10044TIP3    H151623   1.196   6.017  13.426 -1.2152 -0.4489 -1.2524
10044TIP3    H251624   1.091   6.033  13.534  1.8440 -1.1759  2.0221
10045TIP3   OH251625   5.270   0.677  13.891  0.3672 -0.1981 -0.1587
10045TIP3    H151626   5.279   0.764  13.930 -0.1209 -0.4274  0.4760
10045TIP3    H251627   5.360   0.653  13.867  0.5591  0.3121  0.0336
10046TIP3   OH251628   1.197   0.979   2.227 -0.3586  0.4978  0.0863
10046TIP3    H151629   1.108   1.011   2.215 -0.4408  0.6928  1.1169
10046TIP3    H251630   1.244   1.007   2.149 -0.7860  1.8688  0.3018
10047TIP3   OH251631   1.043   3.061   4.734 -0.5057  0.1453 -0.1538
10047TIP3    H151632   1.137   3.046   4.722 -0.6524 -0.5705 -0.4612
10047TIP3    H251633   1.012   2.983   4.780 -1.0951  0.0067 -0.7725
10048TIP3   OH251634   0.161   0.849  16.815  0.3330  0.0452  0.2399
10048TIP3    H151635   0.188   0.840  16.906 -0.4550 -0.1477  0.4589
10048TIP3    H251636   0.069   0.873  16.819  0.2132 -0.2549 -0.5147
10049TIP3   OH251637   6.754   4.888  14.828 -0.1773  0.0936  0.0096
10049TIP3    H151638   6.776   4.939  14.906 -1.5064 -1.5522  1.5443
10049TIP3    H251639   6.814   4.813  14.831  1.0563  0.9508 -1.6520
10050TIP3   OH251640   3.608   2.617  16.896 -0.4865 -0.1541 -0.4866
10050TIP3    H151641   3.632   2.652  16.982  0.9916 -2.5079  0.1490
10050TIP3    H251642   3.512   2.620  16.895 -0.4965  3.2821 -0.3308
10051TIP3   OH251643   6.356   0.431  13.296 -0.2298 -0.7322  0.1111
10051TIP3    H151644   6.392   0.347  13.324 -1.2080 -0.5856  1.9741
10051TIP3    H251645   6.319   0.469  13.376 -0.4868  1.1302 -0.8388
10052TIP3   OH251646   1.653   3.965  12.649  0.5949  0.0640 -0.6601
10052TIP3    H151647   1.683   3.921  12.728  3.4984  1.6359 -0.7477
10052TIP3    H251648   1.575   3.917  12.623  0.5887 -1.6425  2.1093
10053TIP3   OH251649   0.971   4.609   2.859  0.0418 -0.5866 -0.2350
10053TIP3    H151650   0.962   4.624   2.953  1.4224 -0.2631 -0.1366
10053TIP3    H251651   0.967   4.514   2.850 -2.6872 -0.5739 -0.1856
10054TIP3   OH251652   6.259   4.912   4.935 -0.7702 -0.1591 -0.6662
10054TIP3    H151653   6.273   4.869   5.019 -0.4077  0.2842 -0.4990
10054TIP3    H251654   6.252   4.840   4.872 -0.8190 -0.4823 -0.2936
10055TIP3   OH251655   5.538   2.073  12.612 -0.0291  0.3279  1.0164
10055TIP3    H151656   5.545   2.149  12.669 -0.1082  1.0451  0.0994
10055TIP3    H251657   5.566   2.105  12.526  3.4266 -1.5316  1.2613
10056TIP3   OH251658   3.149   3.634   3.565  0.6150 -0.2169 -0.6047
10056TIP3    H151659   3.224   3.691   3.585  0.8116 -1.0961  1.3359
10056TIP3    H251660   3.074   3.679   3.603  0.1939  0.3683 -2.0400
10057TIP3   OH251661   0.617   5.097   3.768 -1.1283 -0.0017  0.1890
10057TIP3    H151662   0.544   5.042   3.740 -2.5835  2.0596 -0.2965
10057TIP3    H251663   0.665   5.042   3.830 -1.5663 -2.3517 -1.4203
10058TIP3   OH251664   1.301   1.290  10.722 -0.1517  0.3066  0.7446
10058TIP3    H151665   1.220   1.327  10.686 -0.2332 -1.7091 -1.3947
10058TIP3    H251666   1.272   1.217  10.776  0.1828 -1.0937 -0.8728
10059TIP3   OH251667   3.036   0.346  14.438 -0.0270 -0.2033  0.1425
10059TIP3    H151668   3.010   0.283  14.372 -1.0498  2.0349 -1.7247
10059TIP3    H251669   2.964   0.346  14.501 -0.7425  0.1481 -0.6577
10060TIP3   OH251670   4.201   0.970   0.054  0.2833 -0.2210 -0.3682
10060TIP3    H151671   4.285   0.992   0.016  0.5136  0.4642  0.4852
10060TIP3    H251672   4.140   1.033   0.015  0.4595  0.2660  0.1131
10061TIP3   OH251673   3.411   4.558  15.019  0.1135 -0.0446  0.2847
10061TIP3    H151674   3.499   4.577  14.985 -0.7044  0.2847 -1.8541
10061TIP3    H251675   3.364   4.523  14.943 -1.3394 -1.1411  1.6337
10062TIP3   OH251676   0.758   0.461   2.318  0.1221  0.2691  0.9263
10062TIP3    H151677   0.767   0.378   2.271 -1.5409 -0.8204  2.3645
10062TIP3    H251678   0.846   0.482   2.349  1.4163  1.3137 -2.9084
10063TIP3   OH251679   0.015   4.050  14.081 -0.1874  0.8885  0.0289
10063TIP3    H151680   0.017   4.144  14.061 -0.3070  0.8505 -0.1672
10063TIP3    H251681   0.095   4.035  14.132 -1.3330  1.5411  2.0903
10064TIP3   OH251682   0.670   1.855   0.740 -0.0540 -0.0183 -0.1008
10064TIP3    H151683   0.725   1.932   0.754 -0.5706  0.4388 -0.5239
10064TIP3    H251684   0.605   1.884   0.676 -2.0363  0.0969  1.8466
10065TIP3   OH251685   6.738   3.481  15.570  0.6537 -0.3463  0.1291
10065TIP3    H151686   6.669   3.433  15.616 -0.2765  2.0054  1.3264
10065TIP3    H251687   6.740   3.567  15.611  2.6867  0.4854 -1.4945
10066TIP3   OH251688   3.255   4.374  16.893 -0.0163 -0.3181  0.0725
10066TIP3    H151689   3.215   4.350  16.809 -0.2725  0.7146 -0.1141
10066TIP3    H251690   3.311   4.299  16.915 -1.1125 -1.2643 -0.2641
10067TIP3   OH251691   3.575   2.394   0.576  0.0581  0.0792  0.4214
10067TIP3    H151692   3.553   2.386   0.669 -2.1545  0.5399 -0.0160
10067TIP3    H251693   3.533   2.475   0.548 -0.4617 -0.7293 -1.2718
10068TIP3   OH251694   3.616   5.614   1.578  0.2914  0.7984 -0.2363
10068TIP3    H151695   3.542   5.592   1.635  1.3788 -0.8245  0.6288
10068TIP3    H251696   3.686   5.639   1.638  1.6101 -1.4096 -0.7707
10069TIP3   OH251697   0.043   0.124   4.536  0.2723  0.6484  0.1797
10069TIP3    H151698   0.097   0.184   4.486 -1.0900  1.5895 -0.2132
10069TIP3    H251699   0.092   0.042   4.537  1.5295  1.3743 -0.4354
10070TIP3   OH251700   3.190   5.508   3.082 -0.5338 -0.1831 -0.2757
10070TIP3    H151701   3.120   5.534   3.140 -1.3183 -1.5164 -0.5705
10070TIP3    H251702   3.213   5.419   3.110  2.0049  0.6865  0.7062
10071TIP3   OH251703   0.679   2.322  16.054  0.2403  0.0171  0.4680
10071TIP3    H151704   0.649   2.409  16.026 -0.4189 -0.2996  0.1687
10071TIP3    H251705   0.678   2.270  15.974 -0.8685 -0.6831  0.9188
10072TIP3   OH251706   3.650   3.359  13.086  0.0951  0.0121 -0.1049
10072TIP3    H151707   3.600   3.427  13.131 -1.0863 -1.1036  0.3512
10072TIP3    H251708   3.725   3.343  13.144  0.7660  1.3621 -0.5521
10073TIP3   OH251709   3.989   0.582   1.050  0.2505 -0.1128  0.0864
10073TIP3    H151710   4.005   0.649   1.117 -0.5929  0.0579  0.1311
10073TIP3    H251711   4.059   0.519   1.063  1.2902  0.9416 -0.2017
10074TIP3   OH251712   4.997   5.122  10.784 -0.1977  0.3752  0.3127
10074TIP3    H151713   4.975   5.179  10.711 -0.5563 -3.0310 -2.5155
10074TIP3    H251714   4.913   5.094  10.819 -0.0344  1.1133  1.3204
10075TIP3   OH251715   2.248   0.913   4.099 -0.3990 -0.0827  0.4307
10075TIP3    H151716   2.220   0.978   4.035 -0.7426 -1.7850 -1.2359
10075TIP3    H251717   2.326   0.874   4.061 -0.1398 -0.5859  1.4395
10076TIP3   OH251718   4.569   5.050   4.126  0.1590  0.8321  0.7799
10076TIP3    H151719   4.586   5.063   4.033 -0.7956 -0.2558  0.4306
10076TIP3    H251720   4.554   5.138   4.161 -4.0000  1.0368 -1.0267
10077TIP3   OH251721   3.438   3.908  17.246  0.3153  0.3688 -0.0719
10077TIP3    H151722   3.432   3.906  17.342 -1.0355 -0.4741 -0.1417
10077TIP3    H251723   3.432   4.001  17.224 -0.3266  0.5115  0.6366
10078TIP3   OH251724   4.857   4.701   0.324 -0.0152  0.3263 -0.5864
10078TIP3    H151725   4.862   4.635   0.256  2.2389 -0.8555  0.6114
10078TIP3    H251726   4.795   4.666   0.388  0.4194 -0.1632 -0.4318
10079TIP3   OH251727   1.967   4.599  14.119 -0.2434  0.3322 -0.2997
10079TIP3    H151728   1.930   4.614  14.032  0.7985  1.2839 -0.6035
10079TIP3    H251729   2.029   4.671  14.131 -0.0656 -0.0300  1.0600
10080TIP3   OH251730   0.072   0.359  12.906 -0.3700  0.2112 -0.1287
10080TIP3    H151731   0.122   0.439  12.888  1.0233 -0.1964  1.6067
10080TIP3    H251732   0.032   0.336  12.823  1.6819  1.0492 -1.4301
10081TIP3   OH251733   3.744   1.879  16.360 -0.0357 -0.2071  0.2730
10081TIP3    H151734   3.712   1.805  16.308  0.9488 -0.1047 -0.5138
10081TIP3    H251735   3.830   1.899  16.323 -0.0170  0.9348  0.8814
10082TIP3   OH251736   2.389   0.424  16.563  0.3883 -0.8511  0.2569
10082TIP3    H151737   2.468   0.459  16.605  0.2013 -1.1890  0.9116
10082TIP3    H251738   2.321   0.488  16.585  0.8260  0.4234 -1.8684
10083TIP3   OH251739   2.437   0.257  11.878  0.0840 -0.4415  0.2798
10083TIP3    H151740   2.356   0.275  11.830  1.5478  0.8623 -1.8453
10083TIP3    H251741   2.412   0.266  11.970 -2.5753 -1.9031 -0.2071
10084TIP3   OH251742   2.220   6.467  11.776  0.0404  0.7713 -1.1298
10084TIP3    H151743   2.283   6.405  11.814 -2.2836 -0.2420  1.4345
10084TIP3    H251744   2.203   6.433  11.689  0.5992 -0.8668 -0.6440
10085TIP3   OH251745   2.492   1.880   4.874 -0.1438 -0.0043 -0.3256
10085TIP3    H151746   2.410   1.917   4.842 -0.5129 -1.2628 -0.8885
10085TIP3    H251747   2.555   1.953   4.868 -1.4372  1.3092  1.1774
10086TIP3   OH251748   2.865   6.061   5.004 -0.0112 -0.3070  0.0891
10086TIP3    H151749   2.936   6.009   5.043  0.3714  0.0776 -0.0884
10086TIP3    H251750   2.790   6.046   5.062  0.7660  0.9146  1.5031
10087TIP3   OH251751   4.193   6.285   3.551  0.0400  0.9142  0.0114
10087TIP3    H151752   4.251   6.359   3.567  1.5522 -0.5909  2.1429
10087TIP3    H251753   4.134   6.284   3.626 -0.4821  0.4168 -0.3939
10088TIP3   OH251754   1.617   6.380  10.918  0.1871  0.0301  0.2056
10088TIP3    H151755   1.594   6.455  10.973  1.8696  0.9645 -0.2995
10088TIP3    H251756   1.664   6.418  10.844 -1.1704 -1.2950 -1.4257
10089TIP3   OH251757   0.791   2.090   0.571 -0.5352 -0.5037 -0.3063
10089TIP3    H151758   0.713   2.138   0.543 -0.2802  0.1373  0.0856
10089TIP3    H251759   0.862   2.125   0.516 -0.2558 -0.0744  0.3234
10090TIP3   OH251760   5.448   1.356   2.079  0.1223  0.2430  0.4749
10090TIP3    H151761   5.413   1.354   1.990  3.4219  1.1987 -1.0013
10090TIP3    H251762   5.454   1.264   2.104  0.8595 -0.1836 -1.1053
10091TIP3   OH251763   4.278   5.609  15.388 -0.4863 -0.3748 -0.2773
10091TIP3    H151764   4.313   5.532  15.433 -0.9681  0.4734  1.6211
10091TIP3    H251765   4.323   5.683  15.428  0.5564  0.3681 -2.6124
10092TIP3   OH251766   2.271   4.765  17.009 -0.5448 -0.1539 -0.5024
10092TIP3    H151767   2.332   4.824  17.052 -0.9152 -0.9125  1.1134
10092TIP3    H251768   2.200   4.822  16.979  0.9898  0.7706 -2.6181
10093TIP3   OH251769   1.669   1.313   6.348 -0.2678  0.6504  0.4248
10093TIP3    H151770   1.715   1.290   6.428 -1.4552  1.2155  1.3092
10093TIP3    H251771   1.581   1.338   6.377 -0.4991  1.6053 -0.9622
10094TIP3   OH251772   5.102   5.023  15.335  0.4155 -0.2089 -0.0549
10094TIP3    H151773   5.037   5.073  15.383  0.8883 -0.7781  1.2130
10094TIP3    H251774   5.051   4.976  15.268 -0.1163  1.3225 -0.7776
10095TIP3   OH251775   5.569   3.335  13.653  0.4665 -0.1415 -0.0635
10095TIP3    H151776   5.621   3.266  13.611  1.1187 -0.6007  1.4327
10095TIP3    H251777   5.552   3.302  13.741 -1.3239  0.5511 -0.0948
10096TIP3   OH251778   2.413   5.834  13.082 -0.0694 -0.1262 -0.2353
10096TIP3    H151779   2.506   5.854  13.082  0.2299 -1.4325 -0.4011
10096TIP3    H251780   2.370   5.919  13.084  1.1275  0.4853  1.3690
10097TIP3   OH251781   5.292   3.510   2.487 -0.1193  0.2519 -0.3871
10097TIP3    H151782   5.212   3.466   2.459  0.2333 -0.0624 -0.9049
10097TIP3    H251783   5.280   3.601   2.460 -0.1978  0.1567 -0.6741
10098TIP3   OH251784   4.755   4.951  11.950 -0.2767  0.2384 -0.0777
10098TIP3    H151785   4.722   4.932  12.038 -0.5455 -0.6398 -0.3532
10098TIP3    H251786   4.818   5.022  11.963  0.8827 -0.9262  1.0534
10099TIP3   OH251787   0.436   0.309   2.935  0.1308 -0.6319  0.1453
10099TIP3    H151788   0.459   0.393   2.896  0.6791 -0.2581  1.2316
10099TIP3    H251789   0.477   0.244   2.877  0.0441 -0.1442 -0.4753
10100TIP3   OH251790   2.407   6.444  11.320  0.5373 -0.3269  0.2742
10100TIP3    H151791   2.381   6.377  11.383 -1.3920  0.4077  0.3503
10100TIP3    H251792   2.479   6.491  11.363  0.6327 -1.1345  1.0323
10101TIP3   OH251793   0.374   1.447  15.737  0.1901  0.1981 -0.5669
10101TIP3    H151794   0.374   1.404  15.822 -0.7010  0.6495 -0.3218
10101TIP3    H251795   0.298   1.409  15.691  1.0751 -0.5722 -1.4485
10102TIP3   OH251796   3.342   4.192   1.505 -0.0434 -0.1467 -0.1943
10102TIP3    H151797   3.383   4.197   1.419  0.1091 -0.5737 -0.1452
10102TIP3    H251798   3.312   4.282   1.522 -2.0271 -0.4759 -1.6490
10103TIP3   OH251799   6.165   1.827   1.895  0.2969 -0.1458 -0.7973
10103TIP3    H151800   6.153   1.732   1.894 -2.1123  0.1205 -2.0263
10103TIP3    H251801   6.171   1.849   1.988  1.7304 -1.5331 -0.5067
10104TIP3   OH251802   2.511   1.163  13.808  0.3169 -0.4344  0.4767
10104TIP3    H151803   2.503   1.228  13.738 -1.1058 -1.2896 -0.1960
10104TIP3    H251804   2.440   1.184  13.868 -0.5425 -1.6952 -0.0582
10105TIP3   OH251805   4.808   3.003  15.218  0.0225 -0.4022  0.1102
10105TIP3    H151806   4.757   2.963  15.147  0.7069  0.6169 -0.9891
10105TIP3    H251807   4.744   3.054  15.267 -0.2107  0.0593 -0.6555
10106TIP3   OH251808   1.597   4.000   1.749  0.2125 -0.5588 -0.5199
10106TIP3    H151809   1.586   3.908   1.724 -0.6320 -0.4101 -0.7071
10106TIP3    H251810   1.656   4.036   1.682 -1.4467 -0.3493 -1.9180
10107TIP3   OH251811   2.390   1.717   1.969 -0.1097 -0.1217  0.2406
10107TIP3    H151812   2.306   1.687   2.004 -0.9314 -0.2975 -1.7650
10107TIP3    H251813   2.369   1.793   1.916  0.9244 -0.3718 -0.5708
10108TIP3   OH251814   2.191   1.840   5.459  0.2204  0.3596 -0.1820
10108TIP3    H151815   2.263   1.836   5.396  0.2631  0.5647 -0.1460
10108TIP3    H251816   2.204   1.764   5.515  0.2724  0.2632 -0.3242
10109TIP3   OH251817   2.482   5.361   3.517  0.3181 -0.3909 -0.3582
10109TIP3    H151818   2.434   5.283   3.544  0.6279 -1.2531 -2.1777
10109TIP3    H251819   2.416   5.419   3.480  0.2285 -0.1672  0.1376
10110TIP3   OH251820   1.246   0.881  14.479  0.6318 -0.3147  0.5473
10110TIP3    H151821   1.269   0.831  14.557  0.8945 -1.9195 -0.5184
10110TIP3    H251822   1.259   0.820  14.407 -2.0722  0.2816 -0.5566
10111TIP3   OH251823   3.563   6.525   2.642  0.0539  0.7458 -0.0445
10111TIP3    H151824   3.468   6.534   2.648  0.1335  1.6629  0.0119
10111TIP3    H251825   3.596   6.566   2.722  0.4498 -1.0243  0.7565
10112TIP3   OH251826   0.571   5.601  11.377  0.6479  0.1305 -0.1339
10112TIP3    H151827   0.598   5.674  11.433 -3.3429  1.1400  0.7732
10112TIP3    H251828   0.550   5.642  11.293  1.0089 -0.4600 -0.5216
10113TIP3   OH251829   1.222   1.453  14.157  0.1295  0.2997  0.4666
10113TIP3    H151830   1.139   1.408  14.175  0.6023 -0.6241  0.3962
10113TIP3    H251831   1.288   1.398  14.199  0.6566  1.3620  1.0550
10114TIP3   OH251832   3.121   6.197   0.622 -0.0364  0.4151  0.1190
10114TIP3    H151833   3.179   6.170   0.693 -0.7729  2.3251  1.5243
10114TIP3    H251834   3.161   6.160   0.543  2.7819  1.1476  1.0847
10115TIP3   OH251835   3.452   5.719  14.371 -0.9190 -0.0205 -0.0329
10115TIP3    H151836   3.429   5.766  14.451 -0.8894 -1.3989  0.8233
10115TIP3    H251837   3.452   5.786  14.303 -0.1892  1.3523  1.2419
10116TIP3   OH251838   5.973   4.631  13.057 -0.0580  0.0652  0.1427
10116TIP3    H151839   5.991   4.593  12.971 -2.5192 -0.4659 -0.1983
10116TIP3    H251840   6.040   4.592  13.115  1.8972  0.7463 -1.5413
10117TIP3   OH251841   2.926   2.159   5.045  0.1041  0.1913  0.6824
10117TIP3    H151842   2.908   2.122   4.959 -1.5077  1.2331  0.5404
10117TIP3    H251843   3.022   2.159   5.051  0.2388 -0.2507 -0.9454
10118TIP3   OH251844   2.819   2.468   0.511  0.4014  0.0328 -0.4739
10118TIP3    H151845   2.884   2.537   0.504  1.2214 -0.7560 -0.9184
10118TIP3    H251846   2.739   2.506   0.476  0.9275  0.6490 -1.0306
10119TIP3   OH251847   2.875   6.771  13.102 -0.6434 -0.2456 -0.8490
10119TIP3    H151848   2.954   6.786  13.051 -1.0399  1.0485 -1.1303
10119TIP3    H251849   2.898   6.701  13.164  1.2845  1.2880  0.2671
10120TIP3   OH251850   4.290   5.846   3.669 -0.0712 -0.4069 -0.3226
10120TIP3    H151851   4.300   5.860   3.763 -0.9784  0.1035 -0.2896
10120TIP3    H251852   4.296   5.751   3.658  1.6946 -0.3843  0.0239
10121TIP3   OH251853   2.981   0.256   3.185 -0.1817 -0.0647 -0.3918
10121TIP3    H151854   3.036   0.185   3.220 -0.3083  0.5331  1.0928
10121TIP3    H251855   2.976   0.319   3.257 -0.4108  1.2615 -1.5481
10122TIP3   OH251856   6.463   1.530   1.699  0.3218  0.3234  0.4759
10122TIP3    H151857   6.369   1.515   1.699  0.2193  0.9149  0.1527
10122TIP3    H251858   6.472   1.626   1.703  0.8257  0.6014 -3.5204
10123TIP3   OH251859   0.922   3.839  12.201  0.5053  0.5509  0.0154
10123TIP3    H151860   0.870   3.760  12.217 -0.1304  0.9010 -0.3205
10123TIP3    H251861   0.988   3.812  12.137  0.1357  0.3545 -0.2850
10124TIP3   OH251862   1.938   3.449   5.823  0.6905  0.0080 -0.1162
10124TIP3    H151863   1.859   3.441   5.769  0.7566  2.8682 -0.8101
10124TIP3    H251864   1.906   3.477   5.909  0.8351 -0.6756  0.1627
10125TIP3   OH251865   5.547   3.424  16.035 -0.3138  0.3367 -0.3984
10125TIP3    H151866   5.506   3.493  16.088 -1.1329  0.3721 -1.0583
10125TIP3    H251867   5.510   3.436  15.948  1.1784  0.4208 -1.0574
10126TIP3   OH251868   3.200   2.676  17.383  0.2331 -0.2802 -0.2581
10126TIP3    H151869   3.249   2.749  17.345  0.4709 -0.7527 -0.8793
10126TIP3    H251870   3.262   2.603  17.382  0.2278 -0.3289  1.0015
10127TIP3   OH251871   1.589   6.501   3.349 -0.1501  0.5146 -0.0498
10127TIP3    H151872   1.549   6.568   3.404 -2.5486 -1.6318  0.9973
10127TIP3    H251873   1.635   6.550   3.280 -1.7211  3.1882  0.6871
10128TIP3   OH251874   0.997   4.326   2.893  0.1102  0.9040 -0.9855
10128TIP3    H151875   1.052   4.289   2.823  0.8211 -0.3578  0.1995
10128TIP3    H251876   1.050   4.317   2.972 -1.1116  1.2984 -0.0995
10129TIP3   OH251877   1.165   4.211   3.457  0.0008  0.1558 -0.3244
10129TIP3    H151878   1.095   4.267   3.492 -0.0663 -0.0812 -0.0715
10129TIP3    H251879   1.229   4.272   3.421 -0.7686  0.3547 -1.4126
10130TIP3   OH251880   2.761   0.401  16.587  0.3095 -0.1615  0.2977
10130TIP3    H151881   2.713   0.473  16.627  2.4609  1.9507 -0.6795
10130TIP3    H251882   2.702   0.326  16.593 -3.0542  2.1889 -0.7536
10131TIP3   OH251883   2.394   0.917  12.647  0.5401 -0.9218  0.1741
10131TIP3    H151884   2.447   0.974  12.592 -2.6779  0.3311 -1.9451
10131TIP3    H251885   2.410   0.949  12.736  1.2714  1.1809 -0.6397
10132TIP3   OH251886   4.190   2.163  14.415  0.4330  0.5273  0.0364
10132TIP3    H151887   4.113   2.183  14.468 -0.3278 -1.1218 -0.3756
10132TIP3    H251888   4.264   2.195  14.467 -0.3514 -0.1086  1.6303
10133TIP3   OH251889   0.720   6.629  12.897 -0.2425 -0.0747  0.2063
10133TIP3    H151890   0.624   6.629  12.899 -0.3305  0.4977 -1.9045
10133TIP3    H251891   0.745   6.567  12.965 -2.1525 -0.9945  0.1308
10134TIP3   OH251892   1.551   5.248  11.820 -0.0554 -0.8177  0.5226
10134TIP3    H151893   1.599   5.224  11.899 -0.6328 -2.1748  0.4886
10134TIP3    H251894   1.602   5.212  11.748  0.8337  1.0000  0.1749
10135TIP3   OH251895   4.150   1.605  15.980  0.4003  0.2875 -0.5169
10135TIP3    H151896   4.085   1.569  16.041  0.1570  0.0136 -0.9320
10135TIP3    H251897   4.170   1.533  15.921  0.5006  0.6047 -0.8741
10136TIP3   OH251898   3.578   6.253  11.555  0.1903  0.5548  0.4886
10136TIP3    H151899   3.565   6.276  11.463  0.7657  1.3735  0.6010
10136TIP3    H251900   3.640   6.319  11.588 -0.0292  0.2914  1.4642
10137TIP3   OH251901   4.978   0.181  13.535 -0.2626 -0.1559  0.0781
10137TIP3    H151902   4.949   0.149  13.621 -0.5235  0.9791  0.4292
10137TIP3    H251903   4.978   0.276  13.544 -1.0080  0.0156 -1.4083
10138TIP3   OH251904   2.022   3.171  13.398 -0.0025  0.5481  0.4586
10138TIP3    H151905   1.941   3.215  13.372  0.1809  0.4045 -0.4145
10138TIP3    H251906   2.081   3.242  13.424 -0.9781  0.5538  2.9200
10139TIP3   OH251907   5.493   1.053  10.707  0.5026 -0.5432 -0.6224
10139TIP3    H151908   5.523   1.089  10.623 -0.1311  1.6420  0.0206
10139TIP3    H251909   5.544   1.100  10.773 -0.0067 -1.2194  0.2791
10140TIP3   OH251910   3.765   2.942   2.087 -0.3790  0.0602 -0.2925
10140TIP3    H151911   3.788   2.863   2.136  1.0161  0.0390 -0.9211
10140TIP3    H251912   3.832   2.947   2.018 -2.1778  0.1728 -2.1115
10141TIP3   OH251913   4.497   3.791   4.157 -0.2050  1.0483  0.4377
10141TIP3    H151914   4.479   3.699   4.175  1.8261  0.7153  1.0349
10141TIP3    H251915   4.504   3.796   4.061  0.7773  0.3428  0.4641
10142TIP3   OH251916   0.248   5.759  16.368 -0.0263 -0.0936  0.2390
10142TIP3    H151917   0.168   5.801  16.401  1.2846  2.3229  0.5910
10142TIP3    H251918   0.251   5.783  16.275  0.7130  0.5947  0.4300
10143TIP3   OH251919   1.107   1.938  13.073  0.2087  0.2794  0.2279
10143TIP3    H151920   1.030   1.995  13.068  0.4198  0.6534  1.1043
10143TIP3    H251921   1.079   1.856  13.032  0.0420  1.1461 -1.4657
10144TIP3   OH251922   5.759   6.369   1.721  0.2376  0.4572 -0.1601
10144TIP3    H151923   5.701   6.302   1.757  1.2344 -0.1735  0.3142
10144TIP3    H251924   5.760   6.352   1.627  1.1288 -0.7590  0.0393
10145TIP3   OH251925   4.154   2.433  17.232 -0.0248 -0.0804  0.4988
10145TIP3    H151926   4.140   2.484  17.312  0.7135  0.5035  0.2773
10145TIP3    H251927   4.181   2.347  17.263 -0.7167 -0.1676  0.8796
10146TIP3   OH251928   0.927   1.663  16.805 -0.8822  0.2740  0.6186
10146TIP3    H151929   0.945   1.590  16.865  1.9825  0.5770  0.3031
10146TIP3    H251930   0.889   1.730  16.861 -0.0648 -0.1426  1.7390
10147TIP3   OH251931   6.214   2.936   2.706 -0.0420 -0.3343 -0.4273
10147TIP3    H151932   6.221   2.841   2.703 -1.4798 -0.4733 -0.0365
10147TIP3    H251933   6.169   2.955   2.788  1.9076  0.8281  0.4614
10148TIP3   OH251934   4.998   5.477  15.473 -0.4059  0.2543  0.4923
10148TIP3    H151935   4.907   5.471  15.500 -0.6860  0.8468 -0.2734
10148TIP3    H251936   5.029   5.386  15.471 -1.0687  0.0273  0.4698
10149TIP3   OH251937   2.608   2.339  13.125  0.0143 -0.3403  0.3826
10149TIP3    H151938   2.571   2.406  13.067 -0.8586 -0.0303  1.2771
10149TIP3    H251939   2.672   2.293  13.070  0.9195  1.4522 -0.1464
10150TIP3   OH251940   5.116   5.292  12.678  0.4246 -0.7225 -0.2723
10150TIP3    H151941   5.047   5.314  12.741  0.6317  1.3085 -0.6787
10150TIP3    H251942   5.086   5.211  12.636 -0.6955 -0.9939  1.0048
10151TIP3   OH251943   0.249   4.311   6.174  0.0804 -0.0876  0.0653
10151TIP3    H151944   0.163   4.343   6.203  1.0699  2.4226  0.5004
10151TIP3    H251945   0.306   4.324   6.250  1.0614 -0.8174 -0.5286
10152TIP3   OH251946   3.764   4.207  13.356  0.6523  0.3694  0.5467
10152TIP3    H151947   3.778   4.160  13.274 -0.2041  3.5198 -1.6189
10152TIP3    H251948   3.675   4.183  13.382  0.7737 -0.3444  0.3289
10153TIP3   OH251949   1.103   4.514  17.121  0.0399 -0.6026 -0.0559
10153TIP3    H151950   1.028   4.476  17.074 -1.0973  0.6308  0.6822
10153TIP3    H251951   1.067   4.540  17.206  1.4506 -0.4422  0.5174
10154TIP3   OH251952   4.131   5.926   5.893  0.2257  0.1490  0.3711
10154TIP3    H151953   4.221   5.914   5.923 -0.2061 -0.1962  1.5781
10154TIP3    H251954   4.077   5.904   5.969 -0.9614 -1.7641 -0.9392
10155TIP3   OH251955   4.396   4.917  12.067 -0.0604  0.1577 -0.8257
10155TIP3    H151956   4.490   4.926  12.083  0.2045 -2.3778 -0.6344
10155TIP3    H251957   4.354   4.955  12.144  0.9304 -1.7458  0.7209
10156TIP3   OH251958   0.662   4.890   5.163  0.0405  0.1654 -0.0674
10156TIP3    H151959   0.708   4.829   5.105  1.1500  0.8037  0.1246
10156TIP3    H251960   0.730   4.947   5.197 -0.8488  0.9015  0.5201
10157TIP3   OH251961   1.522   5.511   0.140 -0.3271  0.7503 -0.0220
10157TIP3    H151962   1.607   5.526   0.100  0.0724 -0.9000  0.1589
10157TIP3    H251963   1.487   5.599   0.155  1.1781  1.4483 -0.4250
10158TIP3   OH251964   6.086   4.742   3.450  0.6788  0.0746  0.4851
10158TIP3    H151965   6.142   4.763   3.376 -0.2190  0.4656 -0.1101
10158TIP3    H251966   6.098   4.815   3.511  0.6644  0.2629  0.2653
10159TIP3   OH251967   6.245   5.706  16.757  0.1000  0.6190  0.2514
10159TIP3    H151968   6.250   5.632  16.817  0.1710  0.8495  0.5273
10159TIP3    H251969   6.158   5.699  16.717 -0.0561  0.6294  0.5889
10160TIP3   OH251970   5.582   5.222  11.223  0.6600  0.5143 -0.3300
10160TIP3    H151971   5.637   5.154  11.184  0.3396  1.2387 -2.1546
10160TIP3    H251972   5.497   5.212  11.181  0.3749  1.5374 -0.0400
10161TIP3   OH251973   1.814   3.478   4.341  0.2435 -0.0285  0.0143
10161TIP3    H151974   1.851   3.395   4.311 -1.9017 -0.3112 -2.1466
10161TIP3    H251975   1.848   3.543   4.281 -0.5758  0.1166 -0.3145
10162TIP3   OH251976   4.030   1.679  15.215 -0.4484 -0.4396 -0.1140
10162TIP3    H151977   4.059   1.758  15.261  0.9671 -0.8233 -0.3113
10162TIP3    H251978   3.971   1.712  15.147 -1.3059  0.2677  0.9299
10163TIP3   OH251979   3.891   4.739   1.796  0.1631  0.4848  0.6399
10163TIP3    H151980   3.806   4.712   1.761  0.7275 -0.8562  0.2180
10163TIP3    H251981   3.949   4.740   1.720  0.9291 -0.4307  1.1790
10164TIP3   OH251982   0.195   0.584  15.684  0.3308 -0.1995 -0.3247
10164TIP3    H151983   0.170   0.609  15.595 -0.0236 -1.6627 -0.6488
10164TIP3    H251984   0.136   0.635  15.740 -2.7657 -2.7192 -1.0329
10165TIP3   OH251985   4.983   1.078   1.613  0.1619 -0.1063 -0.0042
10165TIP3    H151986   4.898   1.114   1.588  0.5068  0.0507 -1.0100
10165TIP3    H251987   5.027   1.150   1.658 -0.0657 -0.0446  0.1226
10166TIP3   OH251988   3.988   6.264  13.886 -0.0179  0.2291 -0.6677
10166TIP3    H151989   3.970   6.334  13.823 -1.7122  1.3087  0.9114
10166TIP3    H251990   4.017   6.310  13.965 -0.2131 -0.9172  0.0992
10167TIP3   OH251991   3.581   6.214  17.272 -0.1474  0.2260 -0.1917
10167TIP3    H151992   3.656   6.188  17.325 -0.4058 -0.5540 -0.1947
10167TIP3    H251993   3.509   6.223  17.335  0.2519  2.3814  0.0195
10168TIP3   OH251994   2.783   0.685  15.625  0.5057  0.6376  0.0999
10168TIP3    H151995   2.853   0.647  15.572  0.7264 -1.4222  1.7399
10168TIP3    H251996   2.704   0.671  15.574  0.7901 -0.7547  0.0044
10169TIP3   OH251997   3.495   1.288  15.410 -0.3198 -0.1990  0.2171
10169TIP3    H151998   3.459   1.208  15.449 -2.6722  1.2360  1.1612
10169TIP3    H251999   3.587   1.287  15.436 -0.3966 -2.3220  0.6238
10170TIP3   OH252000   1.478   0.195  12.926  0.2493 -0.0389  0.1779
10170TIP3    H152001   1.459   0.116  12.976  1.1414 -0.2607  0.1840
10170TIP3    H252002   1.440   0.180  12.840  1.0282 -0.7736 -0.0443
10171TIP3   OH252003   2.532   1.832   0.944  0.0273 -0.1872 -0.3554
10171TIP3    H152004   2.479   1.846   1.023  0.0623  0.5752 -0.4525
10171TIP3    H252005   2.469   1.839   0.872  0.1647  0.1929 -0.4428
10172TIP3   OH252006   2.009   3.924   2.143  0.0353  0.0962  0.4835
10172TIP3    H152007   1.967   3.839   2.126  0.6880 -0.0766 -0.3897
10172TIP3    H252008   1.937   3.985   2.153 -0.4802 -0.0491 -1.7789
10173TIP3   OH252009   5.248   5.691  17.102  0.0725  0.1281  0.6112
10173TIP3    H152010   5.161   5.667  17.070  0.2378  0.8922 -0.4463
10173TIP3    H252011   5.258   5.641  17.183 -1.4933  0.3055  0.9454
10174TIP3   OH252012   5.505   6.498   3.449 -0.5992 -0.4917  0.4470
10174TIP3    H152013   5.452   6.441   3.505  1.3703 -1.2632  1.6434
10174TIP3    H252014   5.587   6.450   3.437  0.4970  1.3652  0.1022
10175TIP3   OH252015   3.654   1.552  16.303 -0.2374  0.5596  0.0526
10175TIP3    H152016   3.653   1.572  16.396 -0.1338 -0.9069  0.3968
10175TIP3    H252017   3.562   1.540  16.280 -0.1590 -1.2418  0.5082
10176TIP3   OH252018   5.734   0.695   4.216 -0.1848 -0.0243 -0.5567
10176TIP3    H152019   5.791   0.685   4.292  0.0761  0.9880 -0.6011
10176TIP3    H252020   5.793   0.716   4.144 -0.5283  0.1714 -0.7858
10177TIP3   OH252021   3.722   0.518   4.534 -0.2843  0.2707  0.1129
10177TIP3    H152022   3.642   0.559   4.567 -1.8144 -1.4014 -1.3072
10177TIP3    H252023   3.729   0.549   4.444  0.7053  0.4271  0.2368
10178TIP3   OH252024   0.495   2.583   2.112 -0.7004  0.1314  0.3493
10178TIP3    H152025   0.429   2.516   2.132  0.5106 -0.9699  0.8316
10178TIP3    H252026   0.572   2.533   2.084  0.4093  1.2827  1.2102
10179TIP3   OH252027   4.183   4.376   1.975 -0.5088 -0.2497  0.0977
10179TIP3    H152028   4.151   4.348   2.061  0.0351 -0.9576  0.0765
10179TIP3    H252029   4.220   4.297   1.936 -1.1794 -0.0373 -0.9926
10180TIP3   OH252030   5.317   6.573   5.591 -0.3624 -0.3214 -0.3994
10180TIP3    H152031   5.347   6.626   5.518 -0.0835 -0.6224 -0.5075
10180TIP3    H252032   5.222   6.580   5.590 -0.3191  0.3337 -0.2917
10181TIP3   OH252033   2.588   6.020  14.762 -0.2553  0.3934 -0.1254
10181TIP3    H152034   2.619   5.942  14.715 -0.8488  0.0954 -0.0199
10181TIP3    H252035   2.669   6.065  14.788  0.1616 -1.4037  1.8958
10182TIP3   OH252036   4.610   3.815  11.852  0.7248  0.8212  0.5521
10182TIP3    H152037   4.633   3.800  11.761  0.1062  2.0249  0.1784
10182TIP3    H252038   4.534   3.758  11.868 -0.4820  2.1118 -0.3196
10183TIP3   OH252039   4.174   3.869  17.403 -0.1110  0.0894  0.6714
10183TIP3    H152040   4.154   3.793  17.348  1.0021 -0.2236  0.6692
10183TIP3    H252041   4.116   3.860  17.478 -2.6052  1.2113 -0.9992
10184TIP3   OH252042   4.653   5.249  17.308  0.2809  0.3613  0.3568
10184TIP3    H152043   4.612   5.163  17.312  0.1689  0.2883 -1.3029
10184TIP3    H252044   4.651   5.282  17.397 -1.8121 -0.3728  0.6305
10185TIP3   OH252045   4.586   4.052  13.827 -0.2323 -0.5285  0.1311
10185TIP3    H152046   4.570   4.020  13.738  0.3084  1.7052 -0.8466
10185TIP3    H252047   4.655   3.994  13.861  0.2543 -0.8197 -1.2876
10186TIP3   OH252048   6.435   5.347  12.271 -0.0408  0.5260  0.3454
10186TIP3    H152049   6.526   5.337  12.245  0.3286  2.9835  0.3919
10186TIP3    H252050   6.401   5.417  12.215 -1.5535  0.4749  1.1301
10187TIP3   OH252051   6.675   4.688  15.532 -0.5284  0.7032  0.7978
10187TIP3    H152052   6.771   4.695  15.533 -0.2042 -1.9006 -0.6482
10187TIP3    H252053   6.649   4.734  15.452  0.0697 -2.0889 -1.1509
10188TIP3   OH252054   5.199   0.632   0.199  0.5362  0.3353  0.0453
10188TIP3    H152055   5.284   0.629   0.243  0.9154 -0.7461 -0.6993
10188TIP3    H252056   5.135   0.626   0.270  1.0134  2.5491  0.7330
10189TIP3   OH252057   2.850   5.601   0.523  0.5133 -0.1830 -0.3441
10189TIP3    H152058   2.764   5.644   0.529  0.5569 -0.0095 -0.8980
10189TIP3    H252059   2.832   5.509   0.543 -0.0493 -0.4195 -1.7602
10190TIP3   OH252060   2.195   0.455  14.016 -0.1872  0.1506 -0.2094
10190TIP3    H152061   2.240   0.377  14.050  0.0018  0.5006  0.3683
10190TIP3    H252062   2.245   0.528  14.053 -0.4036  0.5455 -0.6929
10191TIP3   OH252063   5.499   4.886  16.319  0.1941  0.0799  0.6428
10191TIP3    H152064   5.509   4.795  16.289  0.8056  0.4240 -0.2407
10191TIP3    H252065   5.585   4.926  16.302  0.2516  0.5614  1.9663
10192TIP3   OH252066   3.659   3.820  14.301 -0.1925  0.1634 -0.0706
10192TIP3    H152067   3.712   3.741  14.294 -0.8819 -0.1482 -2.7955
10192TIP3    H252068   3.575   3.790  14.336 -0.4785 -0.3535 -1.1763
10193TIP3   OH252069   6.484   3.547   4.631 -1.0180  0.1456 -0.1658
10193TIP3    H152070   6.493   3.463   4.675 -1.8717  0.0280 -0.1898
10193TIP3    H252071   6.444   3.604   4.696  1.5176  1.1769  0.5723
10194TIP3   OH252072   5.114   4.861   2.623  0.0650  0.5572  0.3332
10194TIP3    H152073   5.096   4.787   2.682 -0.6191  0.9623  0.6508
10194TIP3    H252074   5.047   4.926   2.645  0.1793  0.9654 -0.4707
10195TIP3   OH252075   4.444   6.219   5.800  0.3464 -0.4473 -0.4460
10195TIP3    H152076   4.516   6.268   5.760  1.0019 -2.0630 -1.3958
10195TIP3    H252077   4.416   6.159   5.730 -1.6018 -0.1843  0.0803
10196TIP3   OH252078   1.199   4.877  10.968 -0.3232 -0.1992  0.5007
10196TIP3    H152079   1.260   4.947  10.989  0.0721 -0.5250  0.4584
10196TIP3    H252080   1.241   4.829  10.896 -0.4272 -0.6733  0.7474
10197TIP3   OH252081   5.110   5.393  15.084  0.2035 -0.5498 -0.0860
10197TIP3    H152082   5.016   5.405  15.075  0.2485 -0.5011 -0.5032
10197TIP3    H252083   5.136   5.455  15.151 -0.8034 -3.7525  3.6547
10198TIP3   OH252084   6.204   6.678   2.822 -0.2389 -0.2543 -0.2117
10198TIP3    H152085   6.230   6.661   2.732 -2.0453  0.5544 -0.9257
10198TIP3    H252086   6.136   6.613   2.840  1.9156 -2.2094  1.5547
10199TIP3   OH252087   6.645   2.873  11.461  0.0378 -0.1262  0.4979
10199TIP3    H152088   6.591   2.797  11.441  1.3643 -1.0853  0.4230
10199TIP3    H252089   6.735   2.843  11.448  0.6457  1.1430  1.4817
10200TIP3   OH252090   0.297   0.423   5.759 -0.1229  0.4930  0.0476
10200TIP3    H152091   0.247   0.362   5.705  1.1485  0.8250 -1.5949
10200TIP3    H252092   0.333   0.486   5.697  0.2050  1.7637  1.4751
10201TIP3   OH252093   4.021   6.223   3.787  0.1696 -0.0475 -0.6305
10201TIP3    H152094   3.942   6.179   3.755 -0.4133  0.9218 -0.5818
10201TIP3    H252095   3.988   6.303   3.828  1.1384  0.0782 -0.0762
10202TIP3   OH252096   2.963   4.947  14.987  0.0025  0.0577 -0.0879
10202TIP3    H152097   2.913   4.922  15.065  0.1139  2.3633  0.7970
10202TIP3    H252098   3.014   4.869  14.965 -1.6048 -1.3357  0.8503
10203TIP3   OH252099   0.631   3.387  15.584 -0.3764  0.8923  0.3076
10203TIP3    H152100   0.714   3.340  15.583  0.0319  1.5259 -2.2151
10203TIP3    H252101   0.571   3.329  15.537 -0.9590  1.1330  0.7420
10204TIP3   OH252102   5.842   3.305  11.551  0.2483  0.2357 -0.8639
10204TIP3    H152103   5.811   3.350  11.473 -1.0185 -0.8783 -1.0550
10204TIP3    H252104   5.781   3.333  11.620  2.1463  2.2577  0.0976
10205TIP3   OH252105   3.156   0.287   1.525  0.7369 -0.8144 -0.4179
10205TIP3    H152106   3.245   0.254   1.512  1.0755 -0.2650  0.4222
10205TIP3    H252107   3.166   0.382   1.531 -0.0348 -0.6682 -1.3030
10206TIP3   OH252108   5.394   2.498   5.652  0.4961 -0.1584 -0.3571
10206TIP3    H152109   5.446   2.502   5.732  0.2288  2.9678 -0.2018
10206TIP3    H252110   5.311   2.458   5.679  1.3179 -1.4458  0.3224
10207TIP3   OH252111   6.644   6.002   0.039 -0.1647 -0.2085  0.3378
10207TIP3    H152112   6.618   5.944   0.110  1.3254 -1.9757 -0.4690
10207TIP3    H252113   6.600   5.966  -0.038  0.7299 -0.2574 -0.1622
10208TIP3   OH252114   4.373   4.585  13.116  0.1017 -0.3790 -0.1171
10208TIP3    H152115   4.284   4.564  13.086 -0.2268  1.0592 -0.2242
10208TIP3    H252116   4.412   4.500  13.136 -0.2218 -1.3052 -2.9976
10209TIP3   OH252117   0.899   4.504   4.297 -0.3034 -0.4841  0.3985
10209TIP3    H152118   0.943   4.588   4.314 -1.8094  0.4533 -0.1700
10209TIP3    H252119   0.898   4.460   4.382  0.9340 -0.1507  0.6050
10210TIP3   OH252120   0.060   2.419  13.410  0.1849 -0.6395  0.0936
10210TIP3    H152121   0.112   2.499  13.409  1.5505 -1.5071 -0.4931
10210TIP3    H252122   0.075   2.381  13.497  0.0837 -0.6203  0.1203
10211TIP3   OH252123   2.200   1.888  16.282  0.3141 -0.2453  0.0857
10211TIP3    H152124   2.106   1.898  16.301  0.4338  1.1902 -0.0219
10211TIP3    H252125   2.226   1.813  16.336 -0.6487  0.0621  1.0274
10212TIP3   OH252126   1.414   6.770  11.753  0.3636 -0.0643  0.5209
10212TIP3    H152127   1.455   6.829  11.815  1.5288  0.0899 -0.3645
10212TIP3    H252128   1.449   6.796  11.668 -1.5665  0.0582 -0.2970
10213TIP3   OH252129   5.832   2.973  11.635 -0.3837  0.2009  0.3832
10213TIP3    H152130   5.837   3.068  11.629 -1.6381  0.2273 -0.5609
10213TIP3    H252131   5.789   2.946  11.554 -1.5907 -1.0255  1.3887
10214TIP3   OH252132   5.279   4.227  16.456  0.2003  0.0919  0.0948
10214TIP3    H152133   5.226   4.246  16.378  1.0586 -0.7585 -0.7257
10214TIP3    H252134   5.352   4.174  16.423 -0.6137 -2.2694  1.8002
10215TIP3   OH252135   3.081   4.374  15.712 -0.3656  0.3549  0.7752
10215TIP3    H152136   3.157   4.422  15.744 -0.9013  1.0777  0.9871
10215TIP3    H252137   3.009   4.404  15.767 -1.3207  1.6760 -1.0985
10216TIP3   OH252138   1.504   2.764  15.596  0.1100 -0.1347 -0.5467
10216TIP3    H152139   1.548   2.846  15.618  0.7501 -0.6884  0.3369
10216TIP3    H252140   1.478   2.774  15.505 -0.6859  1.4189 -0.1760
10217TIP3   OH252141   6.351   5.418  12.969  0.1120  0.2115 -0.0969
10217TIP3    H152142   6.265   5.436  12.932 -0.1522  1.2734  0.9786
10217TIP3    H252143   6.401   5.381  12.896 -0.7196  1.2130 -1.2209
10218TIP3   OH252144   1.101   1.115   0.467 -0.4256 -0.0380  0.8907
10218TIP3    H152145   1.054   1.181   0.517 -1.0381 -0.1989  0.5393
10218TIP3    H252146   1.130   1.051   0.533 -0.2526  0.3262  1.1692
10219TIP3   OH252147   2.495   0.999   3.196 -0.5022 -0.0809 -0.2948
10219TIP3    H152148   2.450   0.953   3.267 -1.9603 -0.1165 -1.1865
10219TIP3    H252149   2.429   1.004   3.126  0.4862  1.0376 -1.1845
10220TIP3   OH252150   2.357   6.404  13.267  0.1892  0.0333  0.6692
10220TIP3    H152151   2.274   6.427  13.310  0.1732  0.9900  0.1421
10220TIP3    H252152   2.396   6.339  13.325  0.2143  1.3596  2.2225
10221TIP3   OH252153   1.821   3.012  11.866 -0.1847  0.0429 -0.2422
10221TIP3    H152154   1.738   2.970  11.887 -0.8794  1.2517 -0.4968
10221TIP3    H252155   1.877   2.993  11.941 -0.8342 -0.3918  0.1447
10222TIP3   OH252156   3.368   1.275   2.518  0.0331 -0.0529 -0.5957
10222TIP3    H152157   3.329   1.188   2.532 -1.3556  0.7558  0.8946
10222TIP3    H252158   3.390   1.306   2.606  0.7645  1.0115 -1.1291
10223TIP3   OH252159   5.429   5.405  16.861  0.2112 -0.3511 -0.5391
10223TIP3    H152160   5.482   5.381  16.785  0.6828  0.8303 -0.6021
10223TIP3    H252161   5.341   5.417  16.826  0.3938  0.0251 -0.8766
10224TIP3   OH252162   4.058   0.891  16.032  0.3363  0.9697 -0.4960
10224TIP3    H152163   3.976   0.930  16.002  0.3706  0.0831 -1.8221
10224TIP3    H252164   4.042   0.797  16.028  0.7203  0.7910  1.3120
10225TIP3   OH252165   1.451   2.104  14.658  1.0138  0.4927 -0.2558
10225TIP3    H152166   1.443   2.096  14.563  2.1262  0.9162 -0.4079
10225TIP3    H252167   1.378   2.159  14.685  0.6232  0.2636 -0.8507
10226TIP3   OH252168   3.896   1.146   0.825  0.1273  0.7593 -0.2843
10226TIP3    H152169   3.893   1.241   0.810 -0.0206  1.1369  1.8044
10226TIP3    H252170   3.885   1.137   0.920  1.1979 -1.3018 -0.3082
10227TIP3   OH252171   2.017   5.722  11.138 -0.3987  0.5452  0.4013
10227TIP3    H152172   2.002   5.632  11.108  2.2950 -0.2174  1.0558
10227TIP3    H252173   2.105   5.744  11.105  0.0244  2.0252  2.2983
10228TIP3   OH252174   1.210   1.446  15.120  0.2084 -0.0313 -0.3622
10228TIP3    H152175   1.228   1.531  15.081  0.4387  0.7612  1.3855
10228TIP3    H252176   1.203   1.464  15.213 -0.2648 -1.8569 -0.0179
10229TIP3   OH252177   2.591   4.332  16.182  0.0508 -0.3329  0.1121
10229TIP3    H152178   2.637   4.331  16.098  0.6251  1.3709  0.3758
10229TIP3    H252179   2.509   4.285  16.165  0.2415 -0.1809 -1.3487
10230TIP3   OH252180   4.991   0.379  16.275  0.0059  0.0196 -0.1740
10230TIP3    H152181   4.928   0.308  16.265  0.1734 -0.1543 -0.0132
10230TIP3    H252182   5.014   0.378  16.368  0.3146  0.0207 -0.2498
10231TIP3   OH252183   0.050   6.453   1.090 -0.7596 -0.0787 -0.1492
10231TIP3    H152184   0.067   6.360   1.106 -0.2254 -0.1187 -0.9052
10231TIP3    H252185  -0.044   6.463   1.104 -0.6610 -0.5301  0.8888
10232TIP3   OH252186   4.242   6.109   3.013 -0.0889 -0.0621 -0.1440
10232TIP3    H152187   4.208   6.034   3.062 -0.3022  0.9964  1.3970
10232TIP3    H252188   4.335   6.091   3.003  0.2475  0.3043  1.8950
10233TIP3   OH252189   6.406   3.714   3.222  0.5546  0.5123  0.2401
10233TIP3    H152190   6.328   3.660   3.206 -0.7633  2.0738  1.0530
10233TIP3    H252191   6.474   3.651   3.247 -0.4302 -0.9036 -0.5206
10234TIP3   OH252192   6.680   0.264  11.752  0.3420 -0.1510 -0.1397
10234TIP3    H152193   6.620   0.239  11.681 -0.8026 -0.7747  1.0157
10234TIP3    H252194   6.767   0.236  11.720  0.0335  0.6012 -1.7562
10235TIP3   OH252195   1.282   2.290  10.708  0.2526 -0.1976  0.0122
10235TIP3    H152196   1.318   2.239  10.636 -0.6190 -2.4975  1.1134
10235TIP3    H252197   1.357   2.315  10.761  0.8412  1.0451 -1.3184
10236TIP3   OH252198   4.394   2.750  15.877  0.4927  0.0770 -0.4387
10236TIP3    H152199   4.435   2.810  15.939 -1.5397  1.7694 -0.6157
10236TIP3    H252200   4.350   2.685  15.931 -0.0375  0.6771 -0.1450
10237TIP3   OH252201   6.084   2.358  10.554  0.4107 -0.2997 -0.4450
10237TIP3    H152202   6.122   2.291  10.612  0.6074  0.0218 -0.1986
10237TIP3    H252203   6.001   2.320  10.526  0.5345 -0.6643 -0.3339
10238TIP3   OH252204   3.796   3.966   0.008 -0.2668  0.2293  0.1098
10238TIP3    H152205   3.742   4.033   0.050  0.5168  0.4421  0.7870
10238TIP3    H252206   3.836   4.011  -0.067  1.5098  1.0179  1.4547
10239TIP3   OH252207   2.698   1.308  14.281  0.4957  0.2019 -0.4494
10239TIP3    H152208   2.703   1.369  14.207  2.3750 -0.9919 -1.3800
10239TIP3    H252209   2.788   1.299  14.311  0.0448 -0.9575  0.6524
10240TIP3   OH252210   3.929   3.110   0.793 -0.1828 -0.2053  0.3682
10240TIP3    H152211   3.989   3.045   0.756  1.3104  1.1568  0.2729
10240TIP3    H252212   3.906   3.075   0.879  1.0607 -0.6018  0.5561
10241TIP3   OH252213   1.805   3.980  14.574 -0.5655 -0.1907  0.0417
10241TIP3    H152214   1.869   4.030  14.524  0.5888  0.4940  2.1057
10241TIP3    H252215   1.720   4.015  14.545  0.1619  2.0778  0.4733
10242TIP3   OH252216   3.015   2.059  15.222 -0.4089  0.1471 -0.4675
10242TIP3    H152217   2.924   2.087  15.208 -1.3037 -2.3294 -0.2641
10242TIP3    H252218   3.011   2.005  15.301  1.3795  0.4216 -0.1417
10243TIP3   OH252219   6.251   2.164  15.837  0.3467  0.2471  0.2477
10243TIP3    H152220   6.307   2.218  15.781 -0.1392  2.0351  1.3964
10243TIP3    H252221   6.164   2.202  15.828  0.1770  0.2843  1.8267
10244TIP3   OH252222   2.346   6.210   5.323 -0.2250 -0.0260  0.2820
10244TIP3    H152223   2.295   6.133   5.343  2.4877 -1.8408  0.7852
10244TIP3    H252224   2.325   6.273   5.392 -3.4272  0.3067 -0.8494
10245TIP3   OH252225   3.582   1.051  17.087  0.2475 -0.0473  0.7183
10245TIP3    H152226   3.487   1.068  17.082  0.3986  0.7015  0.0598
10245TIP3    H252227   3.590   0.957  17.073 -0.2996  0.1285 -1.1600
10246TIP3   OH252228   6.460   1.069   2.028  0.1551  0.7455 -0.3965
10246TIP3    H152229   6.501   1.123   2.096  1.3176 -0.3424 -0.2024
10246TIP3    H252230   6.524   1.065   1.958  0.6737 -1.4230  0.1305
10247TIP3   OH252231   5.726   5.432   5.571  0.1023  0.5550  0.1884
10247TIP3    H152232   5.699   5.342   5.586 -2.3939  1.2135  0.1793
10247TIP3    H252233   5.790   5.450   5.640  0.2497 -1.0481  0.5086
10248TIP3   OH252234   3.047   4.326   0.907 -0.0040  0.5696 -0.3543
10248TIP3    H152235   3.108   4.253   0.916 -0.7659  0.0124  0.4332
10248TIP3    H252236   3.075   4.371   0.827  2.3617  1.2016  0.7488
10249TIP3   OH252237   5.802   3.597  16.427  0.5141  1.1681  0.3661
10249TIP3    H152238   5.797   3.692  16.414 -0.7746  1.1389  0.5181
10249TIP3    H252239   5.809   3.587  16.522 -3.1774  1.0750  0.7821
10250TIP3   OH252240   5.848   5.487   1.011  0.9146 -0.1768  0.2456
10250TIP3    H152241   5.844   5.446   1.098  0.9953 -1.2165 -0.2278
10250TIP3    H252242   5.827   5.579   1.028 -0.4396 -0.6198  1.1953
10251TIP3   OH252243   6.551   0.711  14.193  0.5718 -0.1151  0.2904
10251TIP3    H152244   6.630   0.696  14.141 -0.6154 -0.1075 -1.6131
10251TIP3    H252245   6.531   0.804  14.180 -0.2495 -0.3240 -0.0078
10252TIP3   OH252246   0.071   0.222  13.363  0.1310 -0.0863 -0.1214
10252TIP3    H152247   0.035   0.302  13.326 -0.7477 -1.1771 -1.7548
10252TIP3    H252248   0.165   0.239  13.371  0.0577  0.8652 -1.0987
10253TIP3   OH252249   6.489   5.727   5.089 -0.1325  0.4851 -0.0224
10253TIP3    H152250   6.416   5.666   5.083 -0.1355  0.5163 -0.3018
10253TIP3    H252251   6.467   5.784   5.163  0.1723 -0.2518  0.6564
10254TIP3   OH252252   2.109   1.115   1.610 -0.2448  0.6432 -0.1977
10254TIP3    H152253   2.168   1.163   1.553 -1.4469  0.7935 -1.3590
10254TIP3    H252254   2.039   1.177   1.630 -1.1894 -0.2178 -0.7251
10255TIP3   OH252255   1.773   1.548  15.557  0.1718 -0.4038 -0.0642
10255TIP3    H152256   1.710   1.476  15.551  0.4826 -0.5580 -2.1503
10255TIP3    H252257   1.825   1.541  15.477  1.0399  1.3833  0.2995
10256TIP3   OH252258   0.994   2.298   0.081 -0.4413 -0.4674 -0.1834
10256TIP3    H152259   0.916   2.245   0.064 -0.7075 -0.4084  0.8167
10256TIP3    H252260   1.067   2.238   0.072 -0.8493 -1.7532  3.5838
10257TIP3   OH252261   0.295   3.369   5.689 -0.4239 -0.0787 -0.1694
10257TIP3    H152262   0.376   3.411   5.721 -0.1540 -0.7004 -0.0275
10257TIP3    H252263   0.320   3.330   5.606 -0.9711  1.0033 -0.8619
10258TIP3   OH252264   2.812   0.461  17.013 -0.1464  0.0372 -0.2691
10258TIP3    H152265   2.731   0.510  17.002  0.1750  0.2113 -2.0608
10258TIP3    H252266   2.876   0.508  16.959  0.4734 -1.6439 -1.0490
10259TIP3   OH252267   2.102   6.339  13.388 -0.7519 -0.1903  0.2749
10259TIP3    H152268   2.078   6.335  13.480 -0.7113  3.4530  0.5863
10259TIP3    H252269   2.072   6.425  13.359  0.8769 -0.4600 -2.6397
10260TIP3   OH252270   5.903   0.321   5.580 -0.2992  0.5604 -0.1697
10260TIP3    H152271   5.887   0.388   5.513 -1.4995  0.3407 -0.1236
10260TIP3    H252272   5.866   0.359   5.660  3.3254  1.9435  1.0595
10261TIP3   OH252273   6.618   2.435   6.312 -0.3577  0.1193  0.5679
10261TIP3    H152274   6.630   2.444   6.407 -0.8210 -0.5139  0.6895
10261TIP3    H252275   6.547   2.372   6.302  1.0769 -1.4463 -0.2088
10262TIP3   OH252276   6.014   0.350  16.840  0.4294 -0.0491 -0.3603
10262TIP3    H152277   5.941   0.374  16.783 -1.2165  2.8805  2.5641
10262TIP3    H252278   5.979   0.280  16.895  1.2048 -1.2494 -1.3467
10263TIP3   OH252279   5.526   2.773   1.974 -0.0053  0.2273 -0.0696
10263TIP3    H152280   5.452   2.766   1.914  0.4532  0.2484 -0.6533
10263TIP3    H252281   5.573   2.690   1.963  0.1661  0.2943  0.1490
10264TIP3   OH252282   1.808   5.032   2.539 -0.1596 -0.6914  0.5945
10264TIP3    H152283   1.792   4.988   2.622 -0.4893 -2.5368 -0.3854
10264TIP3    H252284   1.778   4.970   2.473 -1.5663  1.4357 -0.8818
10265TIP3   OH252285   2.525   3.184  13.691 -0.0319  0.1516 -0.1220
10265TIP3    H152286   2.615   3.162  13.717 -0.1723 -0.2803  0.0116
10265TIP3    H252287   2.518   3.278  13.705  0.1979  0.0786  0.4954
10266TIP3   OH252288   5.417   2.317  17.072  0.0246 -0.0258  0.2707
10266TIP3    H152289   5.334   2.274  17.050  0.3246 -0.6283  0.2903
10266TIP3    H252290   5.460   2.257  17.133  0.4772  0.2777  0.2576
10267TIP3   OH252291   1.483   5.661  15.472  0.3039  0.2873 -0.3170
10267TIP3    H152292   1.434   5.620  15.543  0.3530  0.7150 -0.0293
10267TIP3    H252293   1.544   5.720  15.517 -1.1181  2.1968 -0.7685
10268TIP3   OH252294   5.093   3.350   0.838 -0.3767 -0.1645 -0.2670
10268TIP3    H152295   5.135   3.350   0.752  1.4812  0.5130  0.6055
10268TIP3    H252296   5.131   3.275   0.883 -0.1684  0.4125  0.5209
10269TIP3   OH252297   3.065   1.770  14.040 -0.0780 -0.2888 -0.4891
10269TIP3    H152298   3.153   1.743  14.068  1.3467  2.6271 -1.6430
10269TIP3    H252299   3.019   1.791  14.121  1.4007  1.0077  0.0619
10270TIP3   OH252300   6.302   2.061   5.376 -0.3768 -0.0719 -0.4286
10270TIP3    H152301   6.328   1.996   5.442  0.6302 -0.0691 -0.8067
10270TIP3    H252302   6.236   2.016   5.324  0.9667 -1.1749 -1.2662
10271TIP3   OH252303   4.981   5.160   6.085 -0.5620  0.0380  0.1157
10271TIP3    H152304   4.984   5.066   6.066  0.7194  0.1969 -0.5880
10271TIP3    H252305   5.057   5.175   6.141  0.1900  0.9139 -1.0951
10272TIP3   OH252306   1.493   4.598   6.955  0.1411  0.1203  0.3398
10272TIP3    H152307   1.415   4.543   6.947  0.2196  0.0987 -0.4182
10272TIP3    H252308   1.474   4.675   6.901  0.7555 -0.0324 -0.1130
10273TIP3   OH252309   1.373   2.486   6.194  0.3673  0.3492 -0.0793
10273TIP3    H152310   1.464   2.456   6.190  0.4964  0.8646 -1.6305
10273TIP3    H252311   1.330   2.424   6.252  1.8008  0.3674  1.0563
10274TIP3   OH252312   1.252   1.276   0.228 -0.0545 -0.3090 -0.1089
10274TIP3    H152313   1.173   1.275   0.282 -0.0876 -0.0804 -0.1569
10274TIP3    H252314   1.255   1.188   0.190 -1.8472  0.5311 -2.4122
10275TIP3   OH252315   4.220   0.906  15.607  0.4381  0.1864  0.3210
10275TIP3    H152316   4.171   0.825  15.596  1.5104 -0.5584  0.7621
10275TIP3    H252317   4.269   0.893  15.688  0.4133  1.3910  0.5383
10276TIP3   OH252318   5.570   6.618  15.292  0.1783  0.3512  0.4500
10276TIP3    H152319   5.660   6.646  15.308 -0.0288  0.9283  0.6363
10276TIP3    H252320   5.518   6.667  15.356 -0.1330 -0.9799  1.2594
10277TIP3   OH252321   0.612   5.322   5.002 -0.2064 -0.0917  0.0953
10277TIP3    H152322   0.689   5.285   5.044 -0.5615 -0.1740  0.6782
10277TIP3    H252323   0.644   5.398   4.955  0.1438  0.1765  0.7602
10278TIP3   OH252324   1.820   0.900   4.526 -0.1667  0.5358  0.5463
10278TIP3    H152325   1.859   0.836   4.586  0.0041  0.4062  0.2964
10278TIP3    H252326   1.861   0.984   4.550 -0.8037  0.6554  1.2492
10279TIP3   OH252327   0.256   6.620  16.033 -0.4280 -0.0356  0.2706
10279TIP3    H152328   0.218   6.655  15.952 -0.4944  2.5210  1.3229
10279TIP3    H252329   0.344   6.591  16.008 -1.0180 -0.8371 -1.0130
10280TIP3   OH252330   3.598   5.795  17.193  0.1588  0.8138  0.1998
10280TIP3    H152331   3.527   5.745  17.154  1.8053  0.5477 -2.7873
10280TIP3    H252332   3.611   5.870  17.134  2.0062  1.1065  0.8938
10281TIP3   OH252333   1.151   6.638  11.786 -0.2535 -0.1366  0.6227
10281TIP3    H152334   1.185   6.552  11.810 -0.4930 -0.2453  0.5698
10281TIP3    H252335   1.221   6.676  11.732 -0.0713 -0.2245  0.7933
10282TIP3   OH252336   3.309   2.180   3.434 -0.6073 -0.3521  1.2092
10282TIP3    H152337   3.256   2.113   3.391  2.3707 -1.3853 -1.2367
10282TIP3    H252338   3.284   2.174   3.526 -1.8026 -3.5547  0.8345
10283TIP3   OH252339   4.839   4.914  10.958  0.1699  0.1335  0.0873
10283TIP3    H152340   4.853   4.948  11.046  2.2645 -0.2121 -0.0520
10283TIP3    H252341   4.856   4.820  10.966  0.2127  0.0740 -0.6333
10284TIP3   OH252342   6.178   3.990  17.019  0.0041  0.0867  0.1642
10284TIP3    H152343   6.153   4.056  16.954  1.3077  0.4596  0.0222
10284TIP3    H252344   6.272   4.002  17.032  0.7065 -2.9478 -1.2382
10285TIP3   OH252345   1.590   5.615   1.566 -0.0130 -0.6385  0.3544
10285TIP3    H152346   1.594   5.695   1.618  0.3109  0.9723 -1.9730
10285TIP3    H252347   1.681   5.598   1.541 -0.2140 -1.0446 -0.1195
10286TIP3   OH252348   0.011   5.107   4.621 -0.1270  0.0642  0.1344
10286TIP3    H152349   0.030   5.021   4.585 -0.7351  0.4063 -1.0649
10286TIP3    H252350  -0.008   5.091   4.713 -2.3382 -1.4098 -0.4984
10287TIP3   OH252351   0.498   3.927  11.526  0.4456 -0.4727  0.2159
10287TIP3    H152352   0.428   3.988  11.549  0.1005 -1.2366  1.3009
10287TIP3    H252353   0.454   3.856  11.479  0.6989 -0.3234 -0.2488
10288TIP3   OH252354   0.476   3.248  12.752  0.0445  0.2221 -0.2869
10288TIP3    H152355   0.550   3.195  12.783 -1.0185 -1.5128 -0.5860
10288TIP3    H252356   0.478   3.237  12.657 -1.8961 -1.7852 -0.1848
10289TIP3   OH252357   0.922   2.946   3.800 -0.1221 -0.5429  0.5724
10289TIP3    H152358   0.935   2.868   3.747 -1.8003 -1.0420  0.8494
10289TIP3    H252359   0.997   3.002   3.779 -0.9921 -0.4406 -2.7601
10290TIP3   OH252360   2.780   5.945  16.808 -0.0852 -0.0055  0.5756
10290TIP3    H152361   2.757   5.862  16.766 -0.2556 -0.6405  1.8679
10290TIP3    H252362   2.864   5.968  16.770  0.1432 -0.9700  0.4599
10291TIP3   OH252363   3.063   5.880   6.213 -0.3070 -0.0434 -0.3439
10291TIP3    H152364   3.129   5.849   6.276 -0.1647  2.5200  0.8722
10291TIP3    H252365   2.992   5.915   6.266 -0.1612  2.2742 -1.5399
10292TIP3   OH252366   2.380   3.300   5.607 -0.2284  0.0188  0.3380
10292TIP3    H152367   2.414   3.210   5.615  1.8056  0.5151 -1.7597
10292TIP3    H252368   2.457   3.354   5.591 -1.4865  2.0987  0.8556
10293TIP3   OH252369   5.526   3.193  16.741 -0.6347  0.0299 -0.1981
10293TIP3    H152370   5.520   3.160  16.831 -0.8093 -1.1864 -0.6339
10293TIP3    H252371   5.584   3.131  16.697 -1.3579  0.0161 -1.1784
10294TIP3   OH252372   2.931   0.080   6.399  0.3902  0.5598  0.6969
10294TIP3    H152373   2.944   0.170   6.429 -0.4966  0.7092  0.6629
10294TIP3    H252374   2.974   0.026   6.465  1.8312  1.0373  0.1810
10295TIP3   OH252375   3.335   2.472  12.848 -0.1767 -0.7815  0.3436
10295TIP3    H152376   3.364   2.404  12.788 -0.2595  0.6903 -1.4758
10295TIP3    H252377   3.405   2.537  12.846 -0.5730 -0.3062  1.1994
10296TIP3   OH252378   3.584   0.511   5.418 -0.4318 -0.3734 -0.2566
10296TIP3    H152379   3.635   0.546   5.345 -1.0070  1.5730  0.2198
10296TIP3    H252380   3.567   0.420   5.394  2.5763 -0.9270 -0.7921
10297TIP3   OH252381   4.870   2.939  11.936  0.1991 -0.4554 -0.1311
10297TIP3    H152382   4.806   2.893  11.991  1.3576 -0.6787  1.0845
10297TIP3    H252383   4.952   2.932  11.985  0.9491  0.6576 -1.1969
10298TIP3   OH252384   1.881   6.594   4.097  0.3664  0.1009 -0.4052
10298TIP3    H152385   1.821   6.543   4.152  1.7889  0.3916  1.5171
10298TIP3    H252386   1.850   6.685   4.105  0.8141  0.1983  0.2713
10299TIP3   OH252387   3.280   3.143   3.997 -0.2472 -1.0599  0.2158
10299TIP3    H152388   3.265   3.211   4.063  0.2830 -0.5039 -0.2231
10299TIP3    H252389   3.375   3.138   3.989 -0.2619 -2.2158  0.5959
10300TIP3   OH252390   0.090   4.832  14.259  0.3574  0.1997 -0.6127
10300TIP3    H152391   0.106   4.772  14.332 -0.4087  0.2705 -0.3765
10300TIP3    H252392   0.026   4.894  14.293 -0.4511 -0.1155 -1.5245
10301TIP3   OH252393   0.257   3.714   2.274  0.3766  0.2491 -0.2994
10301TIP3    H152394   0.197   3.692   2.345  1.4313 -1.5076  0.1396
10301TIP3    H252395   0.258   3.809   2.271 -1.7914  0.3261  0.1837
10302TIP3   OH252396   5.386   4.767   2.527  0.5287  0.4673  0.6379
10302TIP3    H152397   5.454   4.795   2.589 -0.2136 -1.6555  2.5689
10302TIP3    H252398   5.313   4.827   2.543  0.0349 -0.5482  2.5483
10303TIP3   OH252399   2.423   0.165  10.816 -0.1750 -0.1274 -0.3578
10303TIP3    H152400   2.497   0.223  10.796 -0.9930  0.6644 -1.1921
10303TIP3    H252401   2.439   0.135  10.905 -1.3159  3.9590  1.4479
10304TIP3   OH252402   3.664   4.664   4.751 -0.4735 -0.3696 -0.1945
10304TIP3    H152403   3.668   4.649   4.657 -0.0375 -0.5688 -0.1481
10304TIP3    H252404   3.741   4.718   4.770 -0.3099 -0.7042  0.1111
10305TIP3   OH252405   6.015   5.487   4.530  0.0335  0.2729 -0.2845
10305TIP3    H152406   6.045   5.475   4.440  1.3540 -0.0499  0.1778
10305TIP3    H252407   6.093   5.475   4.584 -0.9146 -0.6166  0.9813
10306TIP3   OH252408   3.613   0.462   2.155  0.5956  0.1680  0.5123
10306TIP3    H152409   3.581   0.447   2.066  1.0324  1.1814  0.1667
10306TIP3    H252410   3.534   0.464   2.209  0.0863  1.9993 -0.2321
10307TIP3   OH252411   5.402   2.324   2.003 -0.2693 -0.2137 -0.6515
10307TIP3    H152412   5.468   2.339   2.070 -0.1322 -1.3174 -0.5121
10307TIP3    H252413   5.322   2.303   2.052 -0.1574 -1.0743 -0.8115
10308TIP3   OH252414   0.602   3.614  11.845 -0.1934 -0.3341 -0.8288
10308TIP3    H152415   0.545   3.685  11.876 -0.2921  0.3434 -2.4667
10308TIP3    H252416   0.547   3.535  11.851 -0.0451 -0.3346  1.1149
10309TIP3   OH252417   3.004   0.168   2.921  0.2663 -0.2119  0.0453
10309TIP3    H152418   3.014   0.194   3.013 -2.6722  2.5050 -0.2233
10309TIP3    H252419   2.936   0.100   2.923  0.2709 -0.2211 -0.1233
10310TIP3   OH252420   4.951   3.391  17.350  0.0102  0.4889  0.0782
10310TIP3    H152421   4.928   3.305  17.315  0.9672 -0.0860  0.8271
10310TIP3    H252422   5.046   3.391  17.354  0.0315  1.6539 -0.0706
10311TIP3   OH252423   3.953   0.599   1.499 -0.0622  0.2089  0.4046
10311TIP3    H152424   3.969   0.621   1.407  1.7399 -2.4346 -0.0295
10311TIP3    H252425   4.013   0.656   1.548 -1.0356  1.6366  0.0062
10312TIP3   OH252426   0.061   2.752   5.813 -0.5948 -0.3790  1.0044
10312TIP3    H152427   0.141   2.706   5.789  1.0108  2.8844 -0.4975
10312TIP3    H252428   0.070   2.770   5.907 -0.1648 -1.0187  1.0907
10313TIP3   OH252429   4.796   6.219   1.324  0.6802 -0.4757 -0.1528
10313TIP3    H152430   4.775   6.167   1.402  0.3165 -1.4409 -0.8762
10313TIP3    H252431   4.791   6.157   1.252 -2.0905  0.9867 -1.3835
10314TIP3   OH252432   4.625   4.309  14.859  0.2920  0.3552 -0.1245
10314TIP3    H152433   4.667   4.252  14.794 -2.3044  0.0916 -1.7022
10314TIP3    H252434   4.615   4.393  14.814 -2.4947 -0.1269 -0.5631
10315TIP3   OH252435   5.768   2.670  11.550 -0.1194 -0.7327  0.5896
10315TIP3    H152436   5.833   2.691  11.617  0.9051  2.7941 -1.2621
10315TIP3    H252437   5.816   2.620  11.484  0.4993  0.8151 -0.1893
10316TIP3   OH252438   0.846   3.486   5.762  0.4991  0.2476  0.8147
10316TIP3    H152439   0.751   3.489   5.768  0.3916 -0.6428 -0.2048
10316TIP3    H252440   0.869   3.398   5.792  0.7700 -0.4799 -1.3850
10317TIP3   OH252441   2.791   3.562   3.315  0.0160 -0.9215 -0.0605
10317TIP3    H152442   2.815   3.517   3.397 -0.9224  0.5256  1.0593
10317TIP3    H252443   2.724   3.624   3.341  1.6581  1.5832 -1.3972
10318TIP3   OH252444   4.970   1.581   2.026  0.4191 -0.2069  0.0713
10318TIP3    H152445   4.963   1.492   2.061  1.4394  0.0242  0.8952
10318TIP3    H252446   5.062   1.603   2.032  0.0389  1.3090  0.8677
10319TIP3   OH252447   6.347   1.173   1.146  0.0504 -0.1049  0.1508
10319TIP3    H152448   6.321   1.257   1.185 -1.3980 -0.7823  0.7540
10319TIP3    H252449   6.335   1.110   1.217 -1.8724 -1.2653 -1.1040
10320TIP3   OH252450   0.495   5.046   4.594  0.4096  0.0455 -0.2379
10320TIP3    H152451   0.531   5.127   4.557 -3.1347  2.6773  1.4303
10320TIP3    H252452   0.448   5.005   4.521  2.0801 -0.5063 -1.0524
10321TIP3   OH252453   5.678   3.533  12.445 -0.8591  0.2359 -0.7653
10321TIP3    H152454   5.595   3.498  12.476  0.2597 -1.9276 -0.0273
10321TIP3    H252455   5.695   3.486  12.363  0.0088  0.0661 -0.5013
10322TIP3   OH252456   4.354   4.853   4.592 -0.7338 -0.3819 -0.0390
10322TIP3    H152457   4.278   4.799   4.614 -0.3544 -1.1538 -0.5931
10322TIP3    H252458   4.426   4.816   4.642 -0.7188  0.3901  0.5368
10323TIP3   OH252459   5.852   0.887  11.578 -0.3210 -0.1637  0.5493
10323TIP3    H152460   5.878   0.973  11.544  0.7330 -1.1286 -1.2177
10323TIP3    H252461   5.920   0.864  11.641  0.4623 -0.5372 -0.4209
10324TIP3   OH252462   2.676   6.108   1.565  0.7723  0.5145 -0.1915
10324TIP3    H152463   2.725   6.053   1.627 -0.9628 -0.6433  0.2272
10324TIP3    H252464   2.695   6.198   1.593  1.2628  0.0559  1.0252
10325TIP3   OH252465   4.323   2.773  12.357 -0.1509  0.0457  0.1690
10325TIP3    H152466   4.317   2.868  12.371  0.5225  0.6488 -2.7812
10325TIP3    H252467   4.413   2.751  12.384 -0.0752  0.3899  0.2053
10326TIP3   OH252468   3.800   4.439  12.652  0.1038 -0.3132 -0.0740
10326TIP3    H152469   3.848   4.444  12.570 -0.8571 -1.2896 -0.7299
10326TIP3    H252470   3.748   4.359  12.644  0.5433 -0.8338  1.7997
10327TIP3   OH252471   5.362   4.332   5.847  0.6227 -0.2611  0.1417
10327TIP3    H152472   5.405   4.403   5.800  0.8049  0.2137  1.0030
10327TIP3    H252473   5.280   4.370   5.879  0.5042 -0.5703  0.2125
10328TIP3   OH252474   3.499   4.863   3.465  0.1311 -0.2701  0.3529
10328TIP3    H152475   3.553   4.906   3.399  0.1308  0.6351  0.9166
10328TIP3    H252476   3.541   4.778   3.479  0.7643 -0.0286 -0.0227
10329TIP3   OH252477   5.692   1.665   5.393  0.0921 -0.0585  0.1795
10329TIP3    H152478   5.750   1.723   5.344  0.7259  0.5760  1.6225
10329TIP3    H252479   5.664   1.599   5.329  2.0613 -0.1424 -0.6655
10330TIP3   OH252480   6.099   3.916  17.312 -0.1326  0.1336 -0.3350
10330TIP3    H152481   6.117   3.949  17.224  2.6189  1.1261  0.4746
10330TIP3    H252482   6.057   3.988  17.358  0.2598  0.3482 -0.3050
10331TIP3   OH252483   0.024   4.474   2.980 -0.0570 -0.4498  0.1008
10331TIP3    H152484   0.064   4.558   3.005 -0.4553 -0.4436  0.7411
10331TIP3    H252485   0.010   4.429   3.063 -0.8743 -0.6803 -0.1592
10332TIP3   OH252486   2.258   6.436  15.369 -0.2939  0.1750  0.1375
10332TIP3    H152487   2.295   6.515  15.408 -2.0582 -0.3195  3.1023
10332TIP3    H252488   2.183   6.415  15.424 -1.4646 -2.1080 -2.1500
10333TIP3   OH252489   5.975   1.704   1.134  0.6858 -0.0221 -0.3938
10333TIP3    H152490   5.993   1.635   1.071 -0.3210 -0.5680 -0.1047
10333TIP3    H252491   5.883   1.727   1.118  0.6402  0.3500  0.3763
10334TIP3   OH252492   3.296   1.371   1.172 -0.2050 -0.1886  0.5989
10334TIP3    H152493   3.258   1.300   1.224  1.0907 -1.3980 -0.0427
10334TIP3    H252494   3.345   1.326   1.103  2.8317  1.2183  1.6731
10335TIP3   OH252495   3.525   1.190   4.071 -0.3523 -0.4533 -0.0165
10335TIP3    H152496   3.502   1.137   3.995 -1.4326 -1.2029  0.8043
10335TIP3    H252497   3.506   1.280   4.045 -1.0566 -0.7371 -0.5114
10336TIP3   OH252498   4.220   0.357   5.547 -0.0937  0.0620  0.1840
10336TIP3    H152499   4.286   0.418   5.578  0.0407  0.7427 -1.3829
10336TIP3    H252500   4.268   0.291   5.497 -0.4863 -0.0672 -0.0314
10337TIP3   OH252501   4.905   4.644   4.380 -0.3601 -0.1199 -0.1270
10337TIP3    H152502   4.993   4.610   4.394  0.4875  1.7609 -0.6635
10337TIP3    H252503   4.859   4.573   4.335  0.6807 -1.3416  0.6649
10338TIP3   OH252504   5.221   6.039  17.326 -0.1282  0.0482 -0.3078
10338TIP3    H152505   5.198   5.957  17.369  1.7145 -0.8780 -0.9710
10338TIP3    H252506   5.273   6.086  17.391 -1.0874  0.6540  0.0300
10339TIP3   OH252507   1.415   4.753  15.828  1.1025 -0.1771  0.2033
10339TIP3    H152508   1.385   4.842  15.848  0.5954 -0.3654  0.2766
10339TIP3    H252509   1.361   4.725  15.754  0.7950 -0.6793  0.6139
10340TIP3   OH252510   0.123   2.084   4.695 -0.0622  0.5397 -0.2153
10340TIP3    H152511   0.084   2.133   4.768 -0.8732  0.1396 -0.3655
10340TIP3    H252512   0.187   2.026   4.736 -0.7934  0.0326  0.2424
10341TIP3   OH252513   5.879   4.982  11.349  0.1253  0.3124  0.5404
10341TIP3    H152514   5.895   4.893  11.317  2.3807  1.6948 -2.8643
10341TIP3    H252515   5.822   5.021  11.283  0.3589  1.7971  1.1802
10342TIP3   OH252516   3.615   2.291   1.344  0.3783 -0.0891  0.3000
10342TIP3    H152517   3.662   2.213   1.372  2.4944  1.3437  0.9878
10342TIP3    H252518   3.583   2.331   1.424  2.0678  1.3614  0.3119
10343TIP3   OH252519   0.545   2.258   4.249  0.7381  0.5245  0.1094
10343TIP3    H152520   0.485   2.323   4.213  2.2085  1.5163 -0.6208
10343TIP3    H252521   0.513   2.242   4.338  0.9988  3.1403  0.7454
10344TIP3   OH252522   0.200   6.174   5.447  0.3265 -0.3888  0.1547
10344TIP3    H152523   0.286   6.147   5.480  0.2102 -2.7949 -1.2524
10344TIP3    H252524   0.149   6.093   5.444 -1.0738  0.4789 -1.6344
10345TIP3   OH252525   6.088   2.957   5.625  0.1054 -0.3604  0.5282
10345TIP3    H152526   6.032   3.026   5.659 -0.2160 -0.3296 -0.0549
10345TIP3    H252527   6.110   2.904   5.701  2.1861  1.6253  1.4615
10346TIP3   OH252528   3.588   5.441   3.910  0.0864  0.5108 -0.6898
10346TIP3    H152529   3.665   5.389   3.936  0.5806  0.5144 -2.0874
10346TIP3    H252530   3.574   5.500   3.984 -0.3192 -1.3817  0.8228
10347TIP3   OH252531   3.173   6.357   2.852 -0.1781  0.2748 -0.1218
10347TIP3    H152532   3.090   6.348   2.899 -0.0392  0.5909  0.1909
10347TIP3    H252533   3.164   6.300   2.776 -0.4786 -0.1027  0.1914
10348TIP3   OH252534   3.566   3.414   5.266 -0.0276  0.1484  0.3211
10348TIP3    H152535   3.643   3.416   5.210 -1.1448  0.7721 -1.2893
10348TIP3    H252536   3.568   3.498   5.313 -0.5745  0.9112 -0.9748
10349TIP3   OH252537   5.688   4.526  10.649  0.8244  0.7984 -0.6364
10349TIP3    H152538   5.611   4.487  10.690  1.3200  0.4185 -0.0395
10349TIP3    H252539   5.653   4.594  10.591  0.0010  0.0534 -1.0285
10350TIP3   OH252540   1.306   3.527   0.194 -0.1256  0.0711 -0.0113
10350TIP3    H152541   1.228   3.571   0.228 -0.8349  0.4450 -1.9686
10350TIP3    H252542   1.379   3.585   0.219 -0.9330  1.9375 -1.6760
10351TIP3   OH252543   5.161   5.299   1.463  0.2055 -0.4694  0.3075
10351TIP3    H152544   5.113   5.352   1.399  2.4487  0.2553 -0.9032
10351TIP3    H252545   5.244   5.346   1.475  1.1341 -2.2680  1.3479
10352TIP3   OH252546   6.059   4.085   2.822 -0.6050 -0.4192  0.1168
10352TIP3    H152547   6.033   4.070   2.731 -0.2237  1.1036 -0.2663
10352TIP3    H252548   5.978   4.111   2.866 -0.6582 -0.4975  0.0674
10353TIP3   OH252549   4.575   4.471  12.536 -0.2470 -0.4722 -0.1817
10353TIP3    H152550   4.575   4.379  12.510  1.8106  0.1290 -2.7060
10353TIP3    H252551   4.538   4.518  12.461 -0.3922  0.8734  0.6812
10354TIP3   OH252552   1.096   6.263   5.278  0.3155 -0.1761 -0.1110
10354TIP3    H152553   1.103   6.201   5.206 -0.9537 -1.0724  0.4928
10354TIP3    H252554   1.024   6.230   5.332 -0.8936  2.1842 -0.1215
10355TIP3   OH252555   0.829   2.815  11.625  0.3131 -0.0229 -0.5333
10355TIP3    H152556   0.918   2.782  11.617  0.1484 -0.3667 -0.9977
10355TIP3    H252557   0.807   2.849  11.538  0.1305  0.4249 -0.3190
10356TIP3   OH252558   0.586   2.267   5.242  0.1126  0.2173 -0.1241
10356TIP3    H152559   0.624   2.303   5.322  0.1055  0.7666 -0.3635
10356TIP3    H252560   0.625   2.180   5.235 -0.6011 -0.2178  0.9656
10357TIP3   OH252561   3.310   4.403   3.819 -0.1838 -0.0786 -0.0839
10357TIP3    H152562   3.294   4.334   3.884 -0.0174 -0.8574 -0.8503
10357TIP3    H252563   3.250   4.474   3.844 -1.6758 -1.1972 -0.3183
10358TIP3   OH252564   5.217   4.061   4.653 -0.9516  0.7037  0.2403
10358TIP3    H152565   5.243   3.977   4.616 -1.7816  0.1724  0.8615
10358TIP3    H252566   5.123   4.067   4.636 -0.7156  2.0261 -0.8158
10359TIP3   OH252567   6.685   2.729  12.898 -0.1877  0.5601  0.0503
10359TIP3    H152568   6.712   2.806  12.947 -3.1453  1.1449  0.9602
10359TIP3    H252569   6.694   2.656  12.960 -1.5146  0.8994  0.6671
10360TIP3   OH252570   0.547   3.060  16.234 -0.2247 -0.2306 -0.3402
10360TIP3    H152571   0.522   3.130  16.173  0.2559 -1.6851 -2.3234
10360TIP3    H252572   0.466   3.013  16.253 -0.2354 -0.3086 -0.5777
10361TIP3   OH252573   3.405   4.230  12.204 -0.0091  0.6086 -0.9876
10361TIP3    H152574   3.376   4.305  12.255  2.0881  0.1483  1.0989
10361TIP3    H252575   3.480   4.263  12.153  3.9779 -0.6945  3.2980
10362TIP3   OH252576   3.942   0.915   1.439  0.7444  0.3987  0.2655
10362TIP3    H152577   3.856   0.879   1.462  0.0340  1.3199 -0.7745
10362TIP3    H252578   3.922   1.004   1.409  1.6572 -0.2656 -2.6841
10363TIP3   OH252579   2.459   0.601  15.169  0.4690 -0.0676  0.2458
10363TIP3    H152580   2.497   0.688  15.181  1.0945 -0.0995 -1.3000
10363TIP3    H252581   2.441   0.570  15.258  2.7609  0.5362  0.9782
10364TIP3   OH252582   2.797   1.544  14.373  0.1808  0.0937  0.1641
10364TIP3    H152583   2.863   1.511  14.435  0.3654 -0.6914 -0.4423
10364TIP3    H252584   2.713   1.518  14.411  0.3599 -3.0006 -1.3200
10365TIP3   OH252585   4.204   0.300  13.912 -0.8170  0.0609  0.1704
10365TIP3    H152586   4.257   0.367  13.955 -0.7568 -0.0752  0.3102
10365TIP3    H252587   4.259   0.269  13.840  0.0235 -1.2897  1.3277
10366TIP3   OH252588   5.290   4.303   4.087 -0.0624  0.5328  0.1296
10366TIP3    H152589   5.255   4.239   4.026 -0.1291  1.1909 -0.5326
10366TIP3    H252590   5.371   4.334   4.046  0.2836  0.4356  0.7267
10367TIP3   OH252591   4.409   4.080   2.634  0.0017  0.2355  0.2029
10367TIP3    H152592   4.416   3.986   2.619 -1.0159 -0.2477  2.3732
10367TIP3    H252593   4.317   4.095   2.654  0.0183  1.8239 -0.7150
10368TIP3   OH252594   1.334   5.679   0.450 -0.1247  0.7488 -0.2669
10368TIP3    H152595   1.334   5.609   0.385  2.6938  0.1334  0.2549
10368TIP3    H252596   1.278   5.747   0.413 -1.0534 -0.8064 -1.8712
10369TIP3   OH252597   3.698   3.945  11.042  0.1332 -0.1534  0.0034
10369TIP3    H152598   3.756   4.016  11.069 -1.0751  1.8088 -2.1806
10369TIP3    H252599   3.611   3.974  11.069 -0.3240 -1.0492 -0.4641
10370TIP3   OH252600   6.601   3.335   3.732 -0.2236  0.6377  1.1958
10370TIP3    H152601   6.628   3.348   3.823  0.6552 -1.0537  1.2139
10370TIP3    H252602   6.681   3.348   3.681 -0.5898  1.0158  0.7003
10371TIP3   OH252603   2.524   5.923  11.625 -0.0154 -0.0366  0.6467
10371TIP3    H152604   2.464   5.853  11.600 -2.4640  2.3003 -0.5760
10371TIP3    H252605   2.499   5.946  11.714 -0.4488  0.4263  0.4124
10372TIP3   OH252606   4.190   6.739  14.639 -0.1499  0.0115 -0.3301
10372TIP3    H152607   4.179   6.691  14.557  0.5004 -0.2481 -0.2706
10372TIP3    H252608   4.103   6.741  14.678 -0.1761 -1.1674 -0.3106
10373TIP3   OH252609   0.678   2.207  11.307 -0.3741  0.1100 -0.3457
10373TIP3    H152610   0.761   2.253  11.298 -0.0609 -0.2131  0.7356
10373TIP3    H252611   0.660   2.172  11.220  0.3693  0.5897 -0.7076
10374TIP3   OH252612   3.662   2.856  11.373  0.7921  0.0068 -0.1191
10374TIP3    H152613   3.712   2.822  11.448 -1.3831 -0.0339  1.3801
10374TIP3    H252614   3.576   2.876  11.408 -1.2236 -2.4915 -3.1304
10375TIP3   OH252615   6.135   5.535   0.086  0.0055  0.3634  0.2247
10375TIP3    H152616   6.043   5.551   0.063  0.1903  1.2367  0.0445
10375TIP3    H252617   6.134   5.517   0.180 -0.5091 -1.0941 -0.0275
10376TIP3   OH252618   2.219   1.202  16.863 -0.5445 -0.3214  0.2505
10376TIP3    H152619   2.172   1.125  16.833  0.5579 -0.6340 -0.7713
10376TIP3    H252620   2.272   1.172  16.936  0.1609 -0.6436 -0.3779
10377TIP3   OH252621   2.623   2.525  15.724 -0.8230 -0.4487 -0.3727
10377TIP3    H152622   2.626   2.474  15.805 -0.2387  0.3802  0.1464
10377TIP3    H252623   2.542   2.497  15.681 -1.1079 -0.9428  0.4621
10378TIP3   OH252624   4.371   3.174   6.092  0.0736 -0.1952 -0.0887
10378TIP3    H152625   4.335   3.086   6.099  1.8475 -0.9072  0.8673
10378TIP3    H252626   4.325   3.224   6.159 -1.4893 -0.1542 -1.1510
10379TIP3   OH252627   2.401   2.944  14.439  0.0068 -0.3859  0.3088
10379TIP3    H152628   2.382   2.944  14.533  1.4427  0.0912  0.6322
10379TIP3    H252629   2.446   3.027  14.425 -0.6860 -0.2018 -0.9260
10380TIP3   OH252630   3.253   0.260   3.477  0.1923  0.2324  0.0725
10380TIP3    H152631   3.273   0.261   3.571 -2.6871  1.0342  0.7979
10380TIP3    H252632   3.172   0.209   3.471  1.2048 -1.2476 -2.2639
10381TIP3   OH252633   2.401   1.727  15.308 -0.1366 -0.1354 -0.5977
10381TIP3    H152634   2.345   1.650  15.310  0.7202 -0.7713 -0.3278
10381TIP3    H252635   2.348   1.797  15.347 -1.0084 -0.5202 -1.0827
10382TIP3   OH252636   3.072   3.447  14.768  0.6954  0.1344  0.3722
10382TIP3    H152637   3.132   3.373  14.770  0.2035 -0.2553  1.6954
10382TIP3    H252638   2.988   3.410  14.796 -0.1933  0.6546 -1.4724
10383TIP3   OH252639   4.399   0.461  14.044  0.1729  0.2552  0.3750
10383TIP3    H152640   4.487   0.470  14.081  0.4209  1.0735 -0.3888
10383TIP3    H252641   4.340   0.472  14.118  0.7073 -0.0641  0.8535
10384TIP3   OH252642   6.074   3.031  15.285  0.0027 -0.7058  0.5219
10384TIP3    H152643   6.008   3.078  15.335 -0.7289  0.2843 -1.2591
10384TIP3    H252644   6.027   2.998  15.208  1.5508  0.2098 -0.9041
10385TIP3   OH252645   0.681   2.871   1.002  0.2037 -0.0228 -0.3224
10385TIP3    H152646   0.736   2.882   1.079  0.8428 -0.9763 -0.6217
10385TIP3    H252647   0.596   2.844   1.038  0.5643 -0.6966  0.0559
10386TIP3   OH252648   2.546   2.920  14.826  0.0043  0.8652 -0.1679
10386TIP3    H152649   2.516   2.920  14.917 -3.0469 -1.4188 -1.0214
10386TIP3    H252650   2.573   2.830  14.809 -0.4799  0.9835 -1.7896
10387TIP3   OH252651   5.446   0.736  16.437 -0.7996  0.2654  0.1548
10387TIP3    H152652   5.484   0.667  16.491 -2.6286 -0.7272  0.2683
10387TIP3    H252653   5.382   0.778  16.495 -1.0740  0.7837 -0.5153
10388TIP3   OH252654   5.276   6.356  14.820 -0.0107  0.0788 -0.2184
10388TIP3    H152655   5.185   6.330  14.810 -0.2301  0.5209  0.5384
10388TIP3    H252656   5.273   6.432  14.879  1.0768 -1.7382  2.3580
10389TIP3   OH252657   1.544   3.130   2.948 -0.0313  0.0556 -0.0395
10389TIP3    H152658   1.455   3.098   2.934  0.1355 -0.9554  1.0585
10389TIP3    H252659   1.542   3.168   3.036  0.5851  0.1805 -0.0736
10390TIP3   OH252660   2.959   0.284   5.540  0.0977 -0.0024 -0.2290
10390TIP3    H152661   2.929   0.254   5.626 -0.9678  1.9088  0.1153
10390TIP3    H252662   2.891   0.344   5.510  2.3215  2.5976 -0.5317
10391TIP3   OH252663   4.206   3.739  17.035  0.0669  0.4921 -0.1088
10391TIP3    H152664   4.256   3.798  16.978  0.4439  0.9928  0.7255
10391TIP3    H252665   4.252   3.742  17.119 -1.0614  0.5694  0.5348
10392TIP3   OH252666   3.981   4.674   2.911 -0.2684 -0.1204 -0.1824
10392TIP3    H152667   3.928   4.753   2.900 -0.5569 -0.4866 -1.5434
10392TIP3    H252668   4.003   4.672   3.005  0.4779  2.0275 -0.2653
10393TIP3   OH252669   0.185   2.899  12.144  0.8796  0.0077 -0.0140
10393TIP3    H152670   0.248   2.950  12.093 -0.2669  1.2253 -0.2803
10393TIP3    H252671   0.225   2.813  12.153  1.2668 -0.1859 -2.7696
10394TIP3   OH252672   5.783   3.099  17.114 -0.3912  0.1354  0.4397
10394TIP3    H152673   5.786   3.027  17.051 -0.5336  0.0502  0.5277
10394TIP3    H252674   5.871   3.100  17.153 -0.3494  0.0923  0.3473
10395TIP3   OH252675   6.190   4.401   3.099  0.2772 -0.3638 -0.1771
10395TIP3    H152676   6.115   4.345   3.120 -0.2302  0.5436  0.4716
10395TIP3    H252677   6.210   4.445   3.181  1.7772 -0.8724 -0.2442
10396TIP3   OH252678   4.046   6.118  15.949 -0.2079  0.5170 -0.3890
10396TIP3    H152679   3.976   6.090  15.890  0.1847  1.6916 -1.4414
10396TIP3    H252680   4.098   6.039  15.965 -0.2769  0.1962 -1.6767
10397TIP3   OH252681   2.277   3.216   2.702 -0.0769  0.2001  0.0587
10397TIP3    H152682   2.356   3.252   2.743 -0.5475  0.0365  1.1286
10397TIP3    H252683   2.240   3.158   2.769 -0.6115 -0.4379 -0.7736
10398TIP3   OH252684   4.526   4.115  15.047  0.3949  0.6115 -0.5321
10398TIP3    H152685   4.518   4.058  14.971  0.5226  0.9608 -0.8052
10398TIP3    H252686   4.536   4.203  15.011 -1.7940  1.0987 -0.1100
10399TIP3   OH252687   3.285   4.812   4.203 -0.1801 -0.4792  0.1791
10399TIP3    H152688   3.354   4.859   4.250  0.1258 -0.4110 -0.3259
10399TIP3    H252689   3.216   4.799   4.268 -1.5421  3.2067 -0.2986
10400TIP3   OH252690   2.126   4.514   2.941  0.3207 -0.3004 -0.1402
10400TIP3    H152691   2.210   4.473   2.919  0.2956 -0.6711  0.4463
10400TIP3    H252692   2.076   4.445   2.984  0.2133  0.2921  0.7112
10401TIP3   OH252693   5.289   3.324   5.260  0.0057  0.0610 -0.0670
10401TIP3    H152694   5.246   3.254   5.309 -1.0476 -0.0903 -1.1458
10401TIP3    H252695   5.216   3.373   5.220  0.8031 -0.7915 -2.7572
10402TIP3   OH252696   5.331   3.358  16.640 -0.8157 -0.3195  0.0238
10402TIP3    H152697   5.368   3.366  16.552 -0.8904 -2.9751 -0.3210
10402TIP3    H252698   5.384   3.290  16.682 -1.9401 -0.3839  1.4013
10403TIP3   OH252699   1.059   4.108  16.500 -0.8781 -0.0608 -0.1170
10403TIP3    H152700   0.983   4.129  16.447 -0.5882  0.8805 -0.1833
10403TIP3    H252701   1.090   4.192  16.533  0.8103 -0.2741 -1.0093
10404TIP3   OH252702   2.082   0.959  15.284 -0.1021  0.0020 -0.3665
10404TIP3    H152703   2.079   0.904  15.206 -1.2787  2.4712 -2.2061
10404TIP3    H252704   2.133   1.035  15.257  0.8283  0.2206  1.8386
10405TIP3   OH252705   5.168   5.254   1.878 -0.2030 -0.0912  0.0091
10405TIP3    H152706   5.262   5.273   1.881 -0.4787  1.1925  1.4696
10405TIP3    H252707   5.161   5.165   1.914  0.3491  0.3487  1.2617
10406TIP3   OH252708   1.570   5.328  16.889  0.1493  0.1715  0.0958
10406TIP3    H152709   1.556   5.237  16.915  0.2605  0.1480  0.0730
10406TIP3    H252710   1.575   5.326  16.794  1.9217 -0.0573  0.1583
10407TIP3   OH252711   1.469   2.043  16.561  0.4541 -0.5807 -0.1565
10407TIP3    H152712   1.486   2.097  16.483  1.1752  0.6908  0.8484
10407TIP3    H252713   1.421   2.101  16.620 -0.7883 -1.7787  0.0611
10408TIP3   OH252714   1.729   3.548  13.474  0.1018 -0.2646  0.0974
10408TIP3    H152715   1.817   3.552  13.511  0.8001 -0.5110 -1.4389
10408TIP3    H252716   1.689   3.631  13.499  0.2185 -0.7546  2.0564
10409TIP3   OH252717   5.695   4.129  11.247 -0.1084 -0.6311 -0.0014
10409TIP3    H152718   5.732   4.116  11.334  0.6989 -1.1106 -0.4009
10409TIP3    H252719   5.728   4.214  11.219  0.4733 -0.9275 -0.2390
10410TIP3   OH252720   4.439   6.042  14.490 -0.1512  0.3215  0.1272
10410TIP3    H152721   4.524   6.063  14.528 -0.0354 -2.4169  1.6368
10410TIP3    H252722   4.457   6.028  14.397  1.0726 -0.3097  0.4511
10411TIP3   OH252723   0.506   5.382   1.874 -0.3053 -0.1980  0.1806
10411TIP3    H152724   0.550   5.306   1.913  0.2271  0.0965  0.1705
10411TIP3    H252725   0.413   5.360   1.877 -0.0749 -1.8778 -1.9110
10412TIP3   OH252726   0.776   6.636   3.504 -0.2181 -0.0211  0.3200
10412TIP3    H152727   0.762   6.592   3.588  2.0735 -0.5185  0.4950
10412TIP3    H252728   0.804   6.724   3.528  1.3435 -0.4448  0.1382
10413TIP3   OH252729   2.852   3.776   0.237  0.1002 -0.1748 -0.1813
10413TIP3    H152730   2.861   3.854   0.292  0.9980  0.5736 -1.3567
10413TIP3    H252731   2.766   3.741   0.259 -0.8579  1.8707 -0.5539
10414TIP3   OH252732   0.810   0.149   3.554  0.2051 -0.3603 -0.1214
10414TIP3    H152733   0.736   0.128   3.611  0.5047 -0.9202  0.0805
10414TIP3    H252734   0.840   0.235   3.583 -0.8633  0.2376 -0.7445
10415TIP3   OH252735   2.123   5.922   6.027  0.0158  0.1176  0.1701
10415TIP3    H152736   2.044   5.894   6.073  0.2755 -1.1748 -0.1393
10415TIP3    H252737   2.137   5.855   5.960  1.7338 -0.0308  0.6226
10416TIP3   OH252738   5.341   5.951   1.468 -0.2847 -0.0374 -0.4348
10416TIP3    H152739   5.361   6.044   1.479  0.4871 -0.1983 -0.4034
10416TIP3    H252740   5.248   5.949   1.447 -0.1942  0.7816 -0.9868
10417TIP3   OH252741   5.715   4.085  12.623  0.1003  0.2738  0.2815
10417TIP3    H152742   5.666   4.012  12.586 -1.8276  0.2356  2.6443
10417TIP3    H252743   5.777   4.044  12.684  1.4981  0.4739 -0.9376
10418TIP3   OH252744   3.591   0.728   0.169 -0.4176 -0.0315  0.9746
10418TIP3    H152745   3.589   0.636   0.143  1.0623  0.3329 -0.6246
10418TIP3    H252746   3.670   0.735   0.223 -0.8574  0.1973  1.5994
10419TIP3   OH252747   5.517   6.252  13.127 -0.8839 -0.0658  0.4320
10419TIP3    H152748   5.529   6.158  13.126 -2.8839 -0.3619 -0.3595
10419TIP3    H252749   5.489   6.274  13.038  0.4157  1.4289  0.3413
10420TIP3   OH252750   0.053   2.581   2.243 -0.0413 -0.3628  0.2707
10420TIP3    H152751   0.029   2.490   2.226 -1.0120 -0.2380  0.8626
10420TIP3    H252752  -0.022   2.631   2.210  0.3777  0.2154  0.1730
10421TIP3   OH252753   6.338   1.972  16.875  0.2597 -0.2114 -0.6688
10421TIP3    H152754   6.385   1.893  16.899 -0.2853 -0.6129 -0.9057
10421TIP3    H252755   6.374   1.995  16.789 -1.1683 -1.5051 -1.6630
10422TIP3   OH252756   5.481   2.581   0.188 -0.0168 -0.3345  0.0395
10422TIP3    H152757   5.552   2.645   0.198  2.5074 -2.7619 -0.9122
10422TIP3    H252758   5.502   2.513   0.252 -2.0686 -0.7116  0.3704
10423TIP3   OH252759   3.631   5.755   3.943  0.6343 -0.0485  0.3650
10423TIP3    H152760   3.689   5.830   3.931  2.3240 -1.1315  1.3040
10423TIP3    H252761   3.611   5.755   4.037  1.1493 -1.0762  0.4928
10424TIP3   OH252762   4.725   5.131   5.915 -0.1470 -0.2461  0.1702
10424TIP3    H152763   4.715   5.115   5.821  0.3374  2.0521 -0.3277
10424TIP3    H252764   4.816   5.160   5.925 -0.6925  1.2700  1.0526
10425TIP3   OH252765   3.575   2.817  15.557  0.2163  0.4837 -0.2150
10425TIP3    H152766   3.668   2.803  15.539  0.6633  0.9346  1.5428
10425TIP3    H252767   3.549   2.886  15.495  0.6073 -0.7052 -1.7874
10426TIP3   OH252768   5.653   5.500   2.261  0.7005  0.2830 -0.1755
10426TIP3    H152769   5.658   5.473   2.170  2.0274 -2.0837  0.5146
10426TIP3    H252770   5.741   5.533   2.281  0.7643 -0.2609  0.5062
10427TIP3   OH252771   2.713   5.113  13.289 -0.2963  0.2679 -0.3620
10427TIP3    H152772   2.809   5.108  13.292 -0.3295 -0.2221 -0.0393
10427TIP3    H252773   2.685   5.077  13.373 -0.7821  0.0196 -0.6292
10428TIP3   OH252774   2.700   2.008   2.141 -0.6004 -1.3496  0.0175
10428TIP3    H152775   2.740   1.933   2.096  0.5899 -1.0565  0.5399
10428TIP3    H252776   2.651   1.969   2.214  0.2807 -1.6310  0.4817
10429TIP3   OH252777   0.922   0.030   4.232  0.2383 -0.4812 -0.4749
10429TIP3    H152778   0.921   0.112   4.280 -0.3333 -0.1219 -1.0825
10429TIP3    H252779   0.997  -0.018   4.268  0.0345 -0.0841  0.5075
10430TIP3   OH252780   0.365   1.207  14.455 -0.5230  0.1955 -0.0405
10430TIP3    H152781   0.328   1.188  14.541 -1.4434  0.9401 -0.2620
10430TIP3    H252782   0.392   1.122  14.421  0.6704 -0.0221  1.3348
10431TIP3   OH252783   5.318   4.001   2.677  0.9830 -0.0620 -0.0956
10431TIP3    H152784   5.343   4.032   2.590  0.7957  1.2592  0.2977
10431TIP3    H252785   5.228   4.032   2.689  1.2895  0.4836  0.8898
10432TIP3   OH252786   2.721   3.055   1.908  0.3347  0.0764 -0.5735
10432TIP3    H152787   2.728   2.962   1.931 -1.2195 -0.0319 -0.4383
10432TIP3    H252788   2.673   3.056   1.826 -1.2279  0.8104  0.2983
10433TIP3   OH252789   1.204   4.281   5.050  0.3454 -0.1010  0.7106
10433TIP3    H152790   1.165   4.214   5.105  1.5080 -1.3197  0.1245
10433TIP3    H252791   1.228   4.352   5.110 -0.4754 -0.4098  1.4067
10434TIP3   OH252792   1.992   4.926   4.636  0.8586 -0.2206  0.1746
10434TIP3    H152793   1.910   4.909   4.683  0.7322 -0.8971 -0.2674
10434TIP3    H252794   2.059   4.883   4.689  0.8331 -0.2515  0.1819
10435TIP3   OH252795   2.643   2.332  15.900  0.2505 -0.0168 -0.2962
10435TIP3    H152796   2.723   2.342  15.952 -0.2113  0.2534  0.3797
10435TIP3    H252797   2.609   2.246  15.925 -0.1565  0.2582  0.1335
10436TIP3   OH252798   2.531   1.183   2.108  0.1937  0.1081  0.0265
10436TIP3    H152799   2.606   1.243   2.099  1.9244 -2.1608 -1.9336
10436TIP3    H252800   2.554   1.108   2.053 -3.4447 -0.8326 -0.4276
10437TIP3   OH252801   3.685   5.044  14.362 -0.2662 -0.0976  0.7955
10437TIP3    H152802   3.690   5.133  14.397  1.4265 -0.2512  1.0191
10437TIP3    H252803   3.597   5.038  14.324  0.5219  2.6287 -1.8531
10438TIP3   OH252804   0.489   2.958   2.722  0.5895 -0.5449 -0.4112
10438TIP3    H152805   0.395   2.970   2.710  0.0902 -1.3437  2.0171
10438TIP3    H252806   0.508   2.873   2.683 -0.0278 -1.0490  0.3515
10439TIP3   OH252807   3.872   3.444  12.535  0.3451  0.2526 -0.6642
10439TIP3    H152808   3.928   3.370  12.557  0.6846  0.3215 -1.2685
10439TIP3    H252809   3.794   3.405  12.497  0.4818  0.1970 -0.8907
10440TIP3   OH252810   3.566   5.757   1.022  0.2114 -0.1769  0.1349
10440TIP3    H152811   3.662   5.765   1.023  0.0889  1.5807  0.6855
10440TIP3    H252812   3.537   5.797   1.104 -1.0764  0.9420 -0.8181
10441TIP3   OH252813   1.937   0.400   3.556 -0.4590  0.2031  0.2638
10441TIP3    H152814   1.916   0.492   3.544 -0.6942  0.0616 -0.4993
10441TIP3    H252815   2.029   0.392   3.533 -0.1484  0.4216  1.3650
10442TIP3   OH252816   1.973   3.444   0.596  0.2953 -0.6249 -0.2502
10442TIP3    H152817   2.021   3.361   0.590  0.7393 -0.2936 -1.8399
10442TIP3    H252818   1.989   3.486   0.512  0.5059  1.3191  0.7115
10443TIP3   OH252819   4.488   4.704  14.379  0.3416 -0.0931 -0.6974
10443TIP3    H152820   4.440   4.751  14.447  1.1298  0.2968 -0.3929
10443TIP3    H252821   4.478   4.758  14.301 -2.1212 -1.4488 -1.4425
10444TIP3   OH252822   2.220   3.617   3.676 -0.0936  0.1303  0.9791
10444TIP3    H152823   2.140   3.647   3.632 -0.4069 -2.0001 -0.0904
10444TIP3    H252824   2.219   3.660   3.761 -1.7624  1.0831  0.5264
10445TIP3   OH252825   0.823   0.019  13.334 -0.5519 -0.3503  0.3868
10445TIP3    H152826   0.908   0.009  13.290 -0.7970  0.0655 -0.1855
10445TIP3    H252827   0.761   0.033  13.263 -0.8995  0.6804  0.8761
10446TIP3   OH252828   6.096   5.101  13.203 -0.1044  0.3117  0.1536
10446TIP3    H152829   6.091   5.168  13.135 -1.6244 -0.7577 -0.8738
10446TIP3    H252830   6.061   5.022  13.161  0.8370 -0.9142  1.5760
10447TIP3   OH252831   0.874   4.999   0.860 -0.0506  0.0287  0.2439
10447TIP3    H152832   0.896   4.987   0.768  0.1633 -0.6639  0.3762
10447TIP3    H252833   0.844   5.089   0.866  0.8160  0.3682 -0.3249
10448TIP3   OH252834   1.486   0.369   5.490 -0.3309 -0.4431 -0.1543
10448TIP3    H152835   1.522   0.421   5.562  0.8861 -1.4292 -0.0180
10448TIP3    H252836   1.485   0.280   5.524  1.1934 -1.0789 -1.6601
10449TIP3   OH252837   1.643   0.240   2.579 -0.0983 -0.1459 -0.4599
10449TIP3    H152838   1.714   0.293   2.543 -0.1265 -0.8895 -1.6713
10449TIP3    H252839   1.686   0.182   2.642 -0.1223  1.5122  1.1451
10450TIP3   OH252840   1.661   1.103   5.278 -0.5149  0.7048  0.7600
10450TIP3    H152841   1.574   1.065   5.265  0.0656 -0.0669 -1.2329
10450TIP3    H252842   1.719   1.027   5.288 -0.0245  1.2067  1.9158
10451TIP3   OH252843   2.919   3.022  11.170  0.3112  0.5718  0.0323
10451TIP3    H152844   2.896   3.093  11.111 -0.7581 -0.1128 -0.3997
10451TIP3    H252845   2.982   2.969  11.121 -0.5965 -0.0124 -0.5376
10452TIP3   OH252846   2.294   4.964  13.942  0.2211 -0.4526 -0.1120
10452TIP3    H152847   2.321   4.877  13.969 -0.8523 -0.5662  0.6720
10452TIP3    H252848   2.215   4.950  13.889  0.9015 -0.0540 -1.2626
10453TIP3   OH252849   0.946   1.540  12.874 -0.7671 -0.9248  0.7876
10453TIP3    H152850   0.972   1.576  12.958  1.3376 -1.5353  0.4576
10453TIP3    H252851   0.868   1.488  12.893 -0.3530 -1.0134  2.3535
10454TIP3   OH252852   1.047   1.010  12.912  0.3199 -0.3670  0.2836
10454TIP3    H152853   0.984   0.940  12.931  0.3398  0.2859  3.3012
10454TIP3    H252854   1.098   1.019  12.993  1.2374  2.2033 -0.4834
10455TIP3   OH252855   3.562   6.346   2.058 -0.1384  0.9317 -0.0683
10455TIP3    H152856   3.598   6.357   1.970  0.1476  1.1899  0.0754
10455TIP3    H252857   3.564   6.252   2.074  0.5715  0.9473 -0.0281
10456TIP3   OH252858   0.697   3.688   2.970 -0.1649  0.3978  0.3580
10456TIP3    H152859   0.646   3.610   2.989 -0.2773  0.8824  2.2360
10456TIP3    H252860   0.740   3.710   3.053  2.2634  0.6295 -0.8650
10457TIP3   OH252861   4.375   2.378   2.173 -0.7063  0.4896  1.2905
10457TIP3    H152862   4.436   2.309   2.146 -0.0078  1.5531  0.0204
10457TIP3    H252863   4.320   2.394   2.097  0.4058  2.6216  0.8505
10458TIP3   OH252864   0.818   0.786  15.248 -0.1469  0.2427  0.1179
10458TIP3    H152865   0.779   0.794  15.161  1.3276  0.8509 -0.5262
10458TIP3    H252866   0.868   0.705  15.245  0.0353  0.3431  0.3426
10459TIP3   OH252867   3.827   0.463  15.581  0.2700 -0.2197  0.2862
10459TIP3    H152868   3.808   0.556  15.572 -0.3650 -0.3488  0.1690
10459TIP3    H252869   3.907   0.449  15.531 -0.3323  0.0433 -0.7967
10460TIP3   OH252870   0.154   4.873  12.751  0.3336  0.1239  0.4713
10460TIP3    H152871   0.142   4.789  12.708 -0.7928 -0.0209  1.0352
10460TIP3    H252872   0.219   4.918  12.697 -0.0213 -0.5868 -0.5921
10461TIP3   OH252873   3.588   1.727   1.613  0.0418 -0.3669 -0.2031
10461TIP3    H152874   3.606   1.639   1.644  0.1065 -0.7241 -1.2232
10461TIP3    H252875   3.651   1.742   1.543 -0.9723 -0.1114 -1.0950
10462TIP3   OH252876   2.870   1.134   2.086 -0.6292  0.3208 -0.5072
10462TIP3    H152877   2.854   1.068   2.019 -0.7936  0.2450 -0.3937
10462TIP3    H252878   2.844   1.217   2.045 -2.0234  0.1248 -0.0908
10463TIP3   OH252879   5.237   5.012   2.040  0.2193  0.5637  0.3000
10463TIP3    H152880   5.273   5.053   2.119  1.3028 -1.0470  0.6914
10463TIP3    H252881   5.219   4.922   2.066  1.4806 -0.2668 -1.5133
10464TIP3   OH252882   0.772   1.308  13.392  0.2634  0.3871  0.2740
10464TIP3    H152883   0.697   1.361  13.363  1.0324  2.5852  1.9839
10464TIP3    H252884   0.745   1.218  13.379 -2.7491  1.0984  0.9072
10465TIP3   OH252885   3.472   1.135  17.363  1.2811  0.1769 -0.3447
10465TIP3    H152886   3.491   1.044  17.343  3.2233  0.8920 -2.2218
10465TIP3    H252887   3.547   1.165  17.415  0.1437  0.4594  1.1894
10466TIP3   OH252888   2.026   0.448  16.745  0.1292 -0.4530 -0.0214
10466TIP3    H152889   2.002   0.380  16.682  1.8568 -0.9217 -0.2260
10466TIP3    H252890   2.044   0.525  16.691  1.1453 -0.7197 -0.0802
10467TIP3   OH252891   1.305   3.102   3.466  0.3026 -0.0358  0.3553
10467TIP3    H152892   1.266   3.180   3.428 -0.1150 -0.2450  0.3600
10467TIP3    H252893   1.372   3.137   3.526  1.0353  0.2847 -0.6342
10468TIP3   OH252894   5.628   3.373  11.093  0.8542  0.3418 -0.4858
10468TIP3    H152895   5.697   3.307  11.088  0.5328  0.0787 -2.2259
10468TIP3    H252896   5.673   3.456  11.080  1.0461  0.3344  0.0934
10469TIP3   OH252897   2.727   2.230   3.783  0.0656 -0.1482 -0.0081
10469TIP3    H152898   2.713   2.146   3.740  1.3919 -0.1538 -0.4490
10469TIP3    H252899   2.822   2.244   3.782 -0.1070  1.2713  0.2140
10470TIP3   OH252900   1.212   0.231  12.199 -0.3959 -0.1131  0.5310
10470TIP3    H152901   1.148   0.299  12.179  0.4526 -0.2389 -3.4275
10470TIP3    H252902   1.171   0.150  12.168  1.1037 -0.3690 -0.9220
10471TIP3   OH252903   2.118   6.712  14.469 -0.7781  0.4614 -0.6066
10471TIP3    H152904   2.036   6.726  14.422 -1.6531  1.1369  1.0266
10471TIP3    H252905   2.142   6.798  14.504  0.4294  0.2020 -0.7293
10472TIP3   OH252906   3.646   4.155   4.616  0.7655 -0.1403  0.1510
10472TIP3    H152907   3.717   4.146   4.552  0.3834 -0.8518 -0.1839
10472TIP3    H252908   3.636   4.249   4.628  1.5239 -0.0275 -0.0709
10473TIP3   OH252909   3.398   6.140  13.091  0.7888  0.3625  0.4448
10473TIP3    H152910   3.351   6.221  13.113 -1.0041 -0.8353  1.2516
10473TIP3    H252911   3.356   6.073  13.145  1.8967 -1.2058 -0.5699
10474TIP3   OH252912   4.765   0.019  16.195  0.1017 -0.3483 -0.2008
10474TIP3    H152913   4.739   0.082  16.262  0.3283  2.2154 -2.3690
10474TIP3    H252914   4.831  -0.036  16.238 -0.0428  0.9454  1.7891
10475TIP3   OH252915   2.110   2.847  15.263  0.1485  0.1422 -0.3944
10475TIP3    H152916   2.096   2.794  15.342  1.5401 -0.8226 -0.7605
10475TIP3    H252917   2.156   2.788  15.203 -0.4143  1.0300 -1.7348
10476TIP3   OH252918   3.703   6.736  16.100  0.2606  0.8275  0.6318
10476TIP3    H152919   3.775   6.800  16.099  1.6578 -0.6826  0.9700
10476TIP3    H252920   3.678   6.727  16.008  1.0967  0.7268  0.4090
10477TIP3   OH252921   4.144   3.822   4.410 -0.1691  0.7568 -0.2625
10477TIP3    H152922   4.192   3.892   4.367  0.8294  1.2465  1.5393
10477TIP3    H252923   4.101   3.864   4.485  0.6247 -0.5607  0.9923
10478TIP3   OH252924   2.496   4.642  14.671 -0.6520  0.1105 -0.0617
10478TIP3    H152925   2.511   4.704  14.742  0.4378  0.4597 -0.5684
10478TIP3    H252926   2.404   4.655  14.647 -0.1942  2.3696 -0.8827
10479TIP3   OH252927   1.204   5.886   3.465 -0.1419 -0.2682 -0.1664
10479TIP3    H152928   1.212   5.843   3.380  0.2054  0.3521 -0.4504
10479TIP3    H252929   1.256   5.965   3.458  1.0840 -0.9138  1.1154
10480TIP3   OH252930   6.001   2.101   4.991 -0.0557 -0.7616 -0.0446
10480TIP3    H152931   5.945   2.135   5.062 -1.1469 -0.9467 -0.7847
10480TIP3    H252932   6.010   2.175   4.931 -2.4796 -1.6778 -1.6854
10481TIP3   OH252933   5.298   5.038   4.601  0.7650  0.4168  0.3615
10481TIP3    H152934   5.348   5.004   4.676 -0.7212  1.2799  1.8004
10481TIP3    H252935   5.213   5.062   4.638 -0.0298  0.8204 -1.6383
10482TIP3   OH252936   1.160   5.905   2.860  0.4065  0.0490 -0.5615
10482TIP3    H152937   1.123   5.976   2.807 -4.2414 -1.2361  0.4727
10482TIP3    H252938   1.155   5.936   2.950 -1.8913 -1.4573 -0.0691
10483TIP3   OH252939   2.957   6.598   5.450 -0.2924 -0.1674  0.4165
10483TIP3    H152940   2.965   6.605   5.545 -0.2498  1.0634  0.3324
10483TIP3    H252941   3.047   6.586   5.419 -0.3430 -0.9351  0.5479
10484TIP3   OH252942   3.607   6.288  11.277 -0.1590 -0.4068  0.1314
10484TIP3    H152943   3.608   6.209  11.223 -0.7068 -0.4969  0.2478
10484TIP3    H252944   3.568   6.355  11.221  0.2269 -0.2426  0.0625
10485TIP3   OH252945   5.930   1.544  17.408  0.3894 -0.1497 -0.0414
10485TIP3    H152946   6.011   1.570  17.364 -0.0538  0.8328 -0.3107
10485TIP3    H252947   5.957   1.527  17.498  0.5435  2.5952  0.5146
10486TIP3   OH252948   6.711   0.188   2.945 -0.4285 -0.5429  0.2761
10486TIP3    H152949   6.622   0.202   2.979 -0.1339  0.8773  0.5563
10486TIP3    H252950   6.764   0.170   3.023 -0.1782  0.3702  0.3382
10487TIP3   OH252951   2.795   0.318   3.514  0.4330  0.1581 -0.4843
10487TIP3    H152952   2.733   0.246   3.504  1.7972 -0.9613 -1.4470
10487TIP3    H252953   2.793   0.339   3.607 -0.6244 -0.5400 -0.3285
10488TIP3   OH252954   6.462   5.417   2.273  0.3871 -0.7299 -0.2609
10488TIP3    H152955   6.467   5.487   2.338  0.0521  1.3418 -2.3370
10488TIP3    H252956   6.416   5.346   2.317  1.0401  0.1969  2.0472
10489TIP3   OH252957   1.411   6.296  15.798 -0.2307 -0.2070 -0.2692
10489TIP3    H152958   1.434   6.310  15.706 -0.2918 -1.8725 -0.5714
10489TIP3    H252959   1.316   6.293  15.799 -0.2089 -1.1614 -0.3284
10490TIP3   OH252960   6.637   3.780   2.106 -0.0249  0.0846  0.0534
10490TIP3    H152961   6.580   3.838   2.056  0.4861 -0.6512 -1.4199
10490TIP3    H252962   6.665   3.833   2.181 -0.4246  1.3628 -0.6779
10491TIP3   OH252963   2.590   6.555   5.498  0.1634  0.0822 -0.3290
10491TIP3    H152964   2.502   6.588   5.483 -0.2441 -1.3111 -1.1409
10491TIP3    H252965   2.624   6.610   5.568 -0.6482  1.8743 -1.2664
10492TIP3   OH252966   5.594   2.615   5.840  0.4952  0.3699  0.3147
10492TIP3    H152967   5.584   2.627   5.934 -0.6066  0.6007  0.1824
10492TIP3    H252968   5.679   2.573   5.830  0.9840  1.0745  1.3469
10493TIP3   OH252969   2.993   4.591   1.672 -0.1649 -0.8065  0.4466
10493TIP3    H152970   2.952   4.509   1.697  2.1530 -1.6052  1.9685
10493TIP3    H252971   2.941   4.623   1.598 -1.3700 -3.4311  0.0646
10494TIP3   OH252972   4.437   1.996  15.274  0.0071 -0.3391  0.5301
10494TIP3    H152973   4.484   2.052  15.336  1.0130 -0.3792 -0.1750
10494TIP3    H252974   4.374   1.948  15.327 -1.1192  1.6739  1.1321
10495TIP3   OH252975   3.189   1.428   2.379 -0.0336 -0.5909  0.2563
10495TIP3    H152976   3.149   1.354   2.334  1.0120 -1.1467  0.2122
10495TIP3    H252977   3.255   1.389   2.436 -0.6602  0.1688  1.5725
10496TIP3   OH252978   5.992   0.494   1.239  0.2193  0.0621  0.2464
10496TIP3    H152979   6.039   0.411   1.236  0.4515  0.2177 -0.9177
10496TIP3    H252980   6.040   0.547   1.302  0.4695 -0.4536  0.4910
10497TIP3   OH252981   6.466   5.703  11.705 -0.6026  0.9809 -0.0653
10497TIP3    H152982   6.506   5.669  11.785 -0.5222 -0.1164 -0.5549
10497TIP3    H252983   6.373   5.683  11.715 -0.9332  2.6967  0.6553
10498TIP3   OH252984   6.555   5.327   0.115 -0.5695 -0.1017 -0.8639
10498TIP3    H152985   6.533   5.408   0.067 -0.7335  2.0778  2.5741
10498TIP3    H252986   6.497   5.328   0.191  2.9347 -0.6357  2.0727
10499TIP3   OH252987   0.040   0.749  14.096  0.2320 -0.0603  0.3421
10499TIP3    H152988   0.061   0.833  14.055 -2.3827  0.8908  0.7024
10499TIP3    H252989   0.055   0.764  14.190  1.0035 -0.4389  0.2838
10500TIP3   OH252990   1.995   1.466  12.190  0.0558 -0.5678  0.1342
10500TIP3    H152991   1.904   1.476  12.160  0.2094 -1.0738 -0.5357
10500TIP3    H252992   2.046   1.461  12.109  0.7057 -0.1401  0.5093
10501TIP3   OH252993   4.752   1.078  15.159  0.0853  0.1990 -0.4141
10501TIP3    H152994   4.806   1.017  15.109 -0.5889 -0.7268 -0.0255
10501TIP3    H252995   4.718   1.139  15.093  1.0060  0.3596 -0.7594
10502TIP3   OH252996   5.587   4.518   3.385  0.1769  0.6382  0.2209
10502TIP3    H152997   5.571   4.478   3.299  0.8122 -0.5777  0.6421
10502TIP3    H252998   5.610   4.444   3.442  0.9603  1.5633  1.1486
10503TIP3   OH252999   4.028   1.764   1.546  0.6302  0.4717  0.1123
10503TIP3    H153000   4.077   1.748   1.627 -1.3598  0.0652  1.2753
10503TIP3    H253001   4.070   1.841   1.508  1.2319  1.0306  1.8375
10504TIP3   OH253002   4.340   2.056  15.855  0.0485 -0.1769 -0.4164
10504TIP3    H153003   4.259   2.064  15.805  0.0008  0.3760 -0.2607
10504TIP3    H253004   4.376   2.145  15.856  0.8739 -0.4907 -0.8485
10505TIP3   OH253005   2.686   1.048  14.419 -0.1688  0.1229  0.1578
10505TIP3    H153006   2.734   1.115  14.371  0.0143  0.1660  0.3942
10505TIP3    H253007   2.663   1.090  14.502 -1.6479  0.4921 -0.4044
10506TIP3   OH253008   1.181   5.131   5.262  0.4592  0.1660 -0.1247
10506TIP3    H153009   1.249   5.168   5.319 -0.2124 -0.5922  1.2156
10506TIP3    H253010   1.100   5.173   5.291  0.1322 -0.0797 -0.6659
10507TIP3   OH253011   2.617   6.667   0.158  0.4793 -0.3872  0.0227
10507TIP3    H153012   2.537   6.624   0.128  0.7679 -0.4524 -0.6755
10507TIP3    H253013   2.658   6.603   0.215  1.8975 -1.9109 -2.5353
10508TIP3   OH253014   2.445   2.847  13.256  0.3542 -0.0955  0.3114
10508TIP3    H153015   2.504   2.863  13.183  0.1889  2.5187  0.6625
10508TIP3    H253016   2.405   2.762  13.237  0.2628  0.5224 -2.6559
10509TIP3   OH253017   3.450   1.925   6.076 -0.0237  0.0442 -0.1117
10509TIP3    H153018   3.481   2.011   6.105 -1.2210  0.6571 -0.5711
10509TIP3    H253019   3.411   1.886   6.154 -0.6906  0.5013 -0.2033
10510TIP3   OH253020   5.658   5.594   3.180 -0.3682 -0.6389  0.0044
10510TIP3    H153021   5.712   5.673   3.171  0.0871 -0.9085  0.3329
10510TIP3    H253022   5.580   5.624   3.228  0.4713 -0.6692  1.4563
10511TIP3   OH253023   6.474   1.176  15.443  0.2689 -0.0938 -0.6235
10511TIP3    H153024   6.386   1.212  15.433  0.0523 -0.6608 -0.7416
10511TIP3    H253025   6.477   1.100  15.385  1.7043  1.4149 -2.6857
10512TIP3   OH253026   1.513   6.270   3.707  0.2210 -0.1722  0.0174
10512TIP3    H153027   1.463   6.302   3.782 -0.3798 -0.7737 -0.1103
10512TIP3    H253028   1.594   6.320   3.708 -0.2401  0.5783  0.4393
10513TIP3   OH253029   4.003   3.743  14.354 -0.2486 -0.2857  0.2623
10513TIP3    H153030   3.940   3.671  14.344  0.2658 -0.7436  0.2350
10513TIP3    H253031   4.087   3.704  14.328 -0.2252  0.8046 -1.5100
10514TIP3   OH253032   0.764   3.482   6.204  0.4225  0.9407 -0.0527
10514TIP3    H153033   0.846   3.455   6.245  0.9694 -0.4417 -1.8805
10514TIP3    H253034   0.709   3.404   6.209 -0.1073  1.2878 -0.4213
10515TIP3   OH253035   1.682   0.051   0.897 -0.0479 -0.4522  0.0289
10515TIP3    H153036   1.605  -0.002   0.915  1.2675 -2.0532  1.2433
10515TIP3    H253037   1.725   0.062   0.982  0.6828  1.0532 -0.4879
10516TIP3   OH253038   1.444   2.097   6.023  0.6731 -0.1551  0.1708
10516TIP3    H153039   1.356   2.090   6.062  0.1865  0.1277 -0.8356
10516TIP3    H253040   1.494   2.148   6.086  0.4388 -1.2405  1.2755
10517TIP3   OH253041   2.999   1.154   5.568 -0.2419 -0.0272 -0.3742
10517TIP3    H153042   2.926   1.184   5.621 -0.9403 -0.1550 -1.2460
10517TIP3    H253043   3.003   1.059   5.584 -1.0337 -0.2149 -1.2388
10518TIP3   OH253044   0.927   0.062   2.003  0.7167  0.5225 -0.4995
10518TIP3    H153045   0.910   0.050   1.909  2.4762  0.3282 -0.8304
10518TIP3    H253046   0.955   0.154   2.010 -0.9726  1.0422  0.1343
10519TIP3   OH253047   2.227   5.400  16.583 -0.5188 -0.3600  0.1791
10519TIP3    H153048   2.148   5.452  16.569  0.7443  1.5792 -0.0809
10519TIP3    H253049   2.235   5.393  16.678  1.2698  3.2968  0.4603
10520TIP3   OH253050   0.633   2.532  17.427 -0.4240  0.0102 -0.0474
10520TIP3    H153051   0.600   2.447  17.456 -2.2218  1.4635  2.6435
10520TIP3    H253052   0.555   2.585  17.414  0.6839  1.8891  0.5405
10521TIP3   OH253053   4.216   5.776   1.150 -0.5096 -0.3034  0.4093
10521TIP3    H153054   4.257   5.700   1.108  0.2802  0.2773  0.1195
10521TIP3    H253055   4.264   5.851   1.116 -1.2869  0.3315  0.6982
10522TIP3   OH253056   1.409   2.854  17.190 -0.1628 -0.1969 -0.0907
10522TIP3    H153057   1.339   2.870  17.128  1.2902  2.7697 -1.1515
10522TIP3    H253058   1.386   2.905  17.268 -0.6727 -1.7667  0.8304
10523TIP3   OH253059   5.930   0.609   0.379 -0.3769  0.0758 -0.2478
10523TIP3    H153060   5.930   0.700   0.410  1.2894 -0.2725  0.8905
10523TIP3    H253061   5.837   0.586   0.373 -0.9079  2.3303 -2.1412
10524TIP3   OH253062   2.518   0.357   3.738 -0.2221  0.2216  0.3911
10524TIP3    H153063   2.522   0.383   3.646  0.5962  0.5379  0.5116
10524TIP3    H253064   2.544   0.265   3.738  0.7340  0.4897  0.4164
10525TIP3   OH253065   2.719   5.207   1.494  0.7680  0.2286 -0.0404
10525TIP3    H153066   2.711   5.208   1.589 -0.5133 -0.5286 -0.1200
10525TIP3    H253067   2.741   5.298   1.471  0.5887  0.5294  0.9323
10526TIP3   OH253068   1.030   0.281   3.897 -0.1503 -0.0560 -0.4470
10526TIP3    H153069   0.989   0.303   3.980 -0.3210  0.5083 -0.6809
10526TIP3    H253070   1.054   0.188   3.906  0.1653  0.0965  0.3665
10527TIP3   OH253071   5.673   3.420  13.003  0.2699 -0.4308  0.2786
10527TIP3    H153072   5.711   3.508  13.007 -0.2080 -0.0429 -2.1306
10527TIP3    H253073   5.656   3.397  13.094  0.5707  1.8971  0.9876
10528TIP3   OH253074   5.945   1.516  13.384 -0.0495  0.3268  0.9956
10528TIP3    H153075   5.874   1.540  13.442 -1.8194  1.4034 -1.4568
10528TIP3    H253076   5.986   1.599  13.359  0.7253 -0.1122  0.7548
10529TIP3   OH253077   4.288   5.106  14.381 -0.0990  0.2918 -0.2280
10529TIP3    H153078   4.353   5.175  14.370 -0.2354  0.4237 -0.2147
10529TIP3    H253079   4.227   5.119  14.309 -0.0724  0.1244 -0.2812
10530TIP3   OH253080   2.436   0.958  14.124 -0.9221 -0.3052  0.1726
10530TIP3    H153081   2.524   0.995  14.126 -0.5006 -1.2729  2.2272
10530TIP3    H253082   2.394   1.000  14.049  1.4717 -0.2982 -1.2662
10531TIP3   OH253083   1.621   1.653  12.694  0.5545 -0.6984  0.0590
10531TIP3    H153084   1.586   1.574  12.735  1.0401 -0.9596 -0.0269
10531TIP3    H253085   1.659   1.623  12.612 -1.9679  0.0579 -1.4995
10532TIP3   OH253086   6.204   6.252  15.100  0.0672 -0.1400 -0.0847
10532TIP3    H153087   6.147   6.223  15.028 -0.2699 -0.7364  0.4107
10532TIP3    H253088   6.211   6.347  15.088  0.5674 -0.3151 -1.2973
10533TIP3   OH253089   3.997   1.065  13.047  0.0124  0.1559  0.6185
10533TIP3    H153090   4.044   1.094  12.968  1.0409 -3.0852 -0.1404
10533TIP3    H253091   4.055   1.090  13.119  0.5450  0.5303  0.0739
10534TIP3   OH253092   2.905   0.924  11.166 -0.3718 -0.5356 -0.0037
10534TIP3    H153093   2.816   0.955  11.149  0.0848  1.3257  0.7601
10534TIP3    H253094   2.896   0.829  11.173 -2.2447 -0.4174 -0.2167
10535TIP3   OH253095   4.048   0.341  11.080 -0.3705 -0.3223  0.2000
10535TIP3    H153096   3.966   0.370  11.119 -1.2461 -1.0528 -1.0459
10535TIP3    H253097   4.024   0.268  11.024  0.7830  0.8508 -1.9419
10536TIP3   OH253098   3.351   5.992  13.625  0.6087 -0.1221  0.3386
10536TIP3    H153099   3.280   5.939  13.662  0.1848 -1.5310 -2.2023
10536TIP3    H253100   3.323   6.082  13.637  0.4114 -0.4681  3.0685
10537TIP3   OH253101   4.066   2.073  12.638 -0.0785 -1.7476  0.0465
10537TIP3    H153102   4.136   2.110  12.584 -1.0721 -1.5493 -1.1626
10537TIP3    H253103   4.019   2.149  12.673  0.6766 -1.8736  1.3895
10538TIP3   OH253104   1.138   5.327  14.556 -0.2571  0.4489 -0.0235
10538TIP3    H153105   1.168   5.287  14.474  0.1197  0.2341  0.2168
10538TIP3    H253106   1.106   5.254  14.608  0.4187  0.4531  0.4108
10539TIP3   OH253107   2.806   4.412   0.761 -0.1204 -0.3654 -0.1836
10539TIP3    H153108   2.819   4.364   0.843  0.5621 -0.2567 -0.2223
10539TIP3    H253109   2.894   4.440   0.735 -0.2312 -0.9669 -1.3064
10540TIP3   OH253110   3.174   3.264  12.760 -0.1168  0.0680 -0.1382
10540TIP3    H153111   3.147   3.323  12.831  0.3747  0.8344 -0.5674
10540TIP3    H253112   3.127   3.183  12.777 -2.1016  1.0842 -0.4336
10541TIP3   OH253113   0.356   4.248   5.924 -0.5502 -0.2870  0.1890
10541TIP3    H153114   0.324   4.275   6.010  0.9070  0.3188  0.5731
10541TIP3    H253115   0.451   4.256   5.930 -0.4126 -0.2306 -1.4763
10542TIP3   OH253116   3.890   5.441   0.276 -0.2606  0.2717 -0.1151
10542TIP3    H153117   3.869   5.502   0.346 -0.3383 -0.5880  0.6224
10542TIP3    H253118   3.858   5.356   0.307 -2.2114  0.2146 -2.0616
10543TIP3   OH253119   2.488   5.011   4.620  0.3950 -0.0848 -0.6670
10543TIP3    H153120   2.425   5.076   4.588 -0.4376 -0.5662 -0.0349
10543TIP3    H253121   2.526   4.973   4.540 -1.1870 -0.8248 -1.1109
10544TIP3   OH253122   3.537   5.545   4.778  0.2882  0.4511 -0.4119
10544TIP3    H153123   3.535   5.452   4.798  0.5891  0.4500 -0.3787
10544TIP3    H253124   3.468   5.583   4.832 -1.9214 -0.1543 -2.6293
10545TIP3   OH253125   3.341   6.734  15.307  0.4095  0.6188 -0.5875
10545TIP3    H153126   3.404   6.800  15.334 -0.2761  0.7135  0.8308
10545TIP3    H253127   3.395   6.664  15.269  1.3184  0.9284  0.0986
10546TIP3   OH253128   3.247   1.256   3.607  0.3275 -0.1056 -0.0525
10546TIP3    H153129   3.272   1.177   3.559  1.3287  0.4677 -0.4997
10546TIP3    H253130   3.327   1.309   3.611 -0.9590  2.2922 -2.4792
10547TIP3   OH253131   6.103   2.891  11.689 -0.0730 -0.0423 -0.2659
10547TIP3    H153132   6.012   2.919  11.691 -0.0076  0.1539  1.1632
10547TIP3    H253133   6.100   2.798  11.712  0.1106  0.0548  0.1568
10548TIP3   OH253134   1.729   0.619  13.817 -0.4094 -0.6961 -0.0910
10548TIP3    H153135   1.800   0.556  13.806  1.0118  0.6814  0.7649
10548TIP3    H253136   1.714   0.622  13.911  0.0881  0.7726 -0.0309
10549TIP3   OH253137   1.888   5.630   1.248 -0.2710  0.2341 -0.3701
10549TIP3    H153138   1.886   5.635   1.343 -0.9163  0.0691 -0.3697
10549TIP3    H253139   1.969   5.675   1.223 -0.8241  1.5762  0.1719
10550TIP3   OH253140   5.024   5.896   4.741  0.1053 -0.3771 -0.0273
10550TIP3    H153141   4.964   5.838   4.789 -0.2707  0.3430  0.3924
10550TIP3    H253142   5.109   5.853   4.749 -0.0581 -0.5686  0.7979
10551TIP3   OH253143   0.227   0.885  13.452  0.4254 -0.1592 -0.3093
10551TIP3    H153144   0.273   0.944  13.393  1.4504  0.2673  0.8657
10551TIP3    H253145   0.166   0.941  13.500 -0.9186 -0.6220 -1.4351
10552TIP3   OH253146   0.821   5.544   4.652 -0.2313 -0.0263  0.4485
10552TIP3    H153147   0.877   5.469   4.671  0.1116  0.3735  1.0313
10552TIP3    H253148   0.732   5.511   4.665 -0.0323  0.4194  3.6861
10553TIP3   OH253149   0.983   4.357  16.032 -0.6273  0.2575 -0.0004
10553TIP3    H153150   0.980   4.399  16.118 -0.3343 -1.6312  0.9877
10553TIP3    H253151   1.064   4.389  15.993 -0.4357  0.6431  0.6922
10554TIP3   OH253152   0.133   3.532  16.288  0.1119  0.7750  0.3017
10554TIP3    H153153   0.116   3.446  16.327 -1.0903  0.6344 -0.4978
10554TIP3    H253154   0.198   3.572  16.346  2.3280 -1.5011 -0.4514
10555TIP3   OH253155   5.632   6.761   4.381  0.2022  0.1468  0.8905
10555TIP3    H153156   5.701   6.755   4.448 -0.8253  0.1128  1.9687
10555TIP3    H253157   5.680   6.764   4.298  1.4907 -0.3122  1.5905
10556TIP3   OH253158   1.649   1.312   3.574  0.1559  0.0261 -0.2895
10556TIP3    H153159   1.639   1.401   3.541 -2.7956 -0.3335 -0.6347
10556TIP3    H253160   1.580   1.303   3.640  1.6515 -1.4279  1.1725
10557TIP3   OH253161   0.004   4.502   4.669 -0.5958  0.2547  0.3054
10557TIP3    H153162  -0.004   4.455   4.752  0.5314  0.0939  0.3326
10557TIP3    H253163  -0.072   4.474   4.618 -0.6256 -0.5987  0.8072
10558TIP3   OH253164   4.268   1.995   4.049 -0.6639 -0.1096 -0.2209
10558TIP3    H153165   4.273   2.054   3.974  0.8786  0.1696  0.0575
10558TIP3    H253166   4.259   1.908   4.010  0.3485  0.0113 -0.7680
10559TIP3   OH253167   5.135   0.559   1.930 -0.1625 -0.2767  0.0537
10559TIP3    H153168   5.064   0.557   1.995 -0.1899 -3.3234  0.0610
10559TIP3    H253169   5.106   0.501   1.860  0.9394  1.0258 -1.5605
10560TIP3   OH253170   5.141   2.240  13.742  0.1453  0.1139  0.5350
10560TIP3    H153171   5.095   2.272  13.819  0.1760 -0.1393  0.6582
10560TIP3    H253172   5.210   2.183  13.777 -1.4606 -2.1272  0.2248
10561TIP3   OH253173   5.371   3.161  15.870 -0.5126 -0.0468  0.0557
10561TIP3    H153174   5.363   3.098  15.798  0.2024  0.3135 -0.3531
10561TIP3    H253175   5.394   3.243  15.826 -0.1604  0.1955  0.6883
10562TIP3   OH253176   0.176   3.238   3.019  0.1436 -0.1038 -0.3985
10562TIP3    H153177   0.181   3.154   3.063 -0.8538 -0.2634 -0.5627
10562TIP3    H253178   0.265   3.255   2.988  0.8186 -0.1080  1.4201
10563TIP3   OH253179   1.849   5.251   1.283  0.3995 -0.1698 -0.1610
10563TIP3    H153180   1.901   5.332   1.282  1.2217 -0.6863  0.0017
10563TIP3    H253181   1.901   5.188   1.235 -1.2889 -0.0148 -2.3361
10564TIP3   OH253182   4.459   3.451  12.808  0.2273  0.2058 -0.4512
10564TIP3    H153183   4.379   3.498  12.783 -0.3427 -1.3374 -1.7172
10564TIP3    H253184   4.529   3.515  12.793 -0.6845  1.3513 -0.0169
10565TIP3   OH253185   4.276   0.348  14.963  0.6214  0.1940 -0.5045
10565TIP3    H153186   4.288   0.254  14.948 -0.4241  0.0045 -0.2528
10565TIP3    H253187   4.353   0.389  14.923  0.7708 -0.7231 -1.1868
10566TIP3   OH253188   4.804   0.760  12.230  0.5261  0.2498 -0.1497
10566TIP3    H153189   4.888   0.802  12.249  1.6693 -1.4099 -1.2741
10566TIP3    H253190   4.742   0.833  12.221  1.5208  1.4460  1.9899
10567TIP3   OH253191   2.658   5.783   5.063 -0.5558  0.2816  0.3174
10567TIP3    H153192   2.574   5.826   5.082 -1.0202 -1.3451  2.3314
10567TIP3    H253193   2.645   5.744   4.977 -1.8525  0.1934  0.5206
10568TIP3   OH253194   1.708   0.313  17.355 -0.2829 -0.2884 -0.1427
10568TIP3    H153195   1.751   0.397  17.340  1.6165 -1.3892 -1.5151
10568TIP3    H253196   1.766   0.250  17.311 -2.3349 -2.1478 -0.3271
10569TIP3   OH253197   3.941   6.230  10.964 -0.1147 -0.8577 -0.7460
10569TIP3    H153198   3.864   6.179  10.937 -0.4782 -0.3361 -0.7042
10569TIP3    H253199   3.905   6.302  11.015  0.1661  0.7577 -2.6885
10570TIP3   OH253200   6.365   3.783   4.727  0.6734  0.2643  0.0107
10570TIP3    H153201   6.350   3.848   4.659  0.4523  0.8974  0.6505
10570TIP3    H253202   6.304   3.807   4.798  2.7801  1.2869  1.5719
10571TIP3   OH253203   4.172   4.096   6.080  0.1112  0.2559 -0.0091
10571TIP3    H153204   4.171   4.109   5.985 -0.1301  3.6509  0.3285
10571TIP3    H253205   4.237   4.027   6.094  0.1561 -0.3402 -2.5951
10572TIP3   OH253206   6.256   5.461   3.703  0.3811 -0.4242 -0.1352
10572TIP3    H153207   6.196   5.387   3.692  0.6429 -0.5973 -0.4109
10572TIP3    H253208   6.269   5.468   3.798 -0.6875  0.1059 -0.0138
10573TIP3   OH253209   0.559   0.615  13.747 -0.6939  0.1627 -0.0756
10573TIP3    H153210   0.536   0.699  13.786  0.1353  1.1763 -1.6454
10573TIP3    H253211   0.493   0.600  13.679 -1.2461 -0.8259  0.6465
10574TIP3   OH253212   0.677   1.528   1.067 -0.6629  0.0327  0.4225
10574TIP3    H153213   0.732   1.566   0.998 -0.9202 -0.0452  0.1714
10574TIP3    H253214   0.601   1.586   1.072 -0.1206  0.6829  1.4312
10575TIP3   OH253215   0.803   2.785  13.169 -0.2917  0.7015  0.2307
10575TIP3    H153216   0.758   2.788  13.085  1.1913  0.0845 -0.6217
10575TIP3    H253217   0.809   2.691  13.189 -0.8978  0.8520  1.1912
10576TIP3   OH253218   0.671   3.263   3.616  0.5073 -0.1181 -0.8754
10576TIP3    H153219   0.767   3.257   3.619  0.5328  0.6485  0.2610
10576TIP3    H253220   0.643   3.177   3.585  1.4579 -1.2606  1.2204
10577TIP3   OH253221   2.136   5.343  15.262 -0.2858 -0.8623 -0.1627
10577TIP3    H153222   2.086   5.320  15.340 -0.5456 -0.7485 -0.2981
10577TIP3    H253223   2.214   5.287  15.266  0.4420  0.1630  0.9670
10578TIP3   OH253224   3.756   5.995   3.510 -0.4692 -0.2898 -0.5089
10578TIP3    H153225   3.772   5.902   3.493  0.0430 -0.5621  1.2452
10578TIP3    H253226   3.838   6.038   3.490  0.1846 -0.6309  1.2314
10579TIP3   OH253227   4.516   5.031  17.362  0.3828 -0.4867  0.2540
10579TIP3    H153228   4.540   4.956  17.418  0.6979  0.5099  1.5067
10579TIP3    H253229   4.429   5.010  17.330  1.0059 -2.0250 -0.5680
10580TIP3   OH253230   1.081   1.437   2.519 -0.1717  0.2286 -0.0816
10580TIP3    H153231   1.159   1.493   2.525  0.9020 -0.0600 -5.8736
10580TIP3    H253232   1.009   1.499   2.506 -0.0608  0.3937  0.0843
10581TIP3   OH253233   4.274   3.946  12.660 -0.4088  0.2640 -0.3359
10581TIP3    H153234   4.216   3.899  12.600  0.3650 -1.6018  0.2754
10581TIP3    H253235   4.357   3.953  12.612 -0.2441  0.1374 -0.0741
10582TIP3   OH253236   4.238   4.748  11.804 -0.2233  0.6443  0.1740
10582TIP3    H153237   4.195   4.811  11.863  0.1130 -1.1282  2.4529
10582TIP3    H253238   4.166   4.703  11.760 -0.6246  0.0837  1.3590
10583TIP3   OH253239   5.642   1.534  13.240  0.1220 -0.6741  0.2647
10583TIP3    H153240   5.685   1.483  13.171 -1.8346 -1.0306 -0.7682
10583TIP3    H253241   5.633   1.473  13.313 -1.2387 -1.5409 -0.5816
10584TIP3   OH253242   4.255   5.197  16.344  0.3233 -0.5122 -0.1014
10584TIP3    H153243   4.217   5.284  16.335 -0.0712 -0.3234  2.5846
10584TIP3    H253244   4.229   5.151  16.263  0.0159  1.6226 -1.2839
10585TIP3   OH253245   0.948   5.372   2.153 -0.5448  0.0087 -0.1882
10585TIP3    H153246   0.971   5.362   2.061  1.3275  0.7061  0.1622
10585TIP3    H253247   0.995   5.451   2.181  0.6136 -1.3297  1.8587
10586TIP3   OH253248   6.370   6.637   3.696  0.1855 -0.3307 -0.3553
10586TIP3    H153249   6.292   6.665   3.744  0.2178 -0.3074 -0.3155
10586TIP3    H253250   6.348   6.649   3.604 -0.0801 -0.9038 -0.3702
10587TIP3   OH253251   4.190   3.585   1.608 -0.1434 -0.5041 -0.0298
10587TIP3    H153252   4.140   3.646   1.554 -2.0800 -1.3827  0.6914
10587TIP3    H253253   4.127   3.550   1.671  1.5656 -1.0836  1.4610
10588TIP3   OH253254   4.700   3.946  12.710  0.0916 -0.6876 -0.6051
10588TIP3    H153255   4.646   4.014  12.751  0.5317  0.0251 -1.1706
10588TIP3    H253256   4.686   3.958  12.616 -0.9621 -2.3446 -0.7017
10589TIP3   OH253257   3.596   3.539   6.394 -0.0001 -0.1753 -1.0765
10589TIP3    H153258   3.507   3.554   6.425 -0.1079 -1.1172 -0.8793
10589TIP3    H253259   3.650   3.538   6.473  0.1826  0.3716 -1.1941
10590TIP3   OH253260   0.816   1.216   3.031  0.1402 -0.1761 -0.3476
10590TIP3    H153261   0.760   1.264   2.969 -0.7909 -0.7922 -0.0181
10590TIP3    H253262   0.905   1.243   3.009  0.1829 -2.5182 -4.0011
10591TIP3   OH253263   6.668   0.101   2.401  0.1768  0.0875 -0.3853
10591TIP3    H153264   6.726   0.081   2.475 -0.2007 -2.1821 -0.6363
10591TIP3    H253265   6.582   0.073   2.430 -0.1288 -0.0435 -1.3769
10592TIP3   OH253266   1.407   2.879   3.203 -0.2401  0.3749 -0.0549
10592TIP3    H153267   1.441   2.925   3.280 -0.5002  0.0277  0.2722
10592TIP3    H253268   1.470   2.808   3.189 -0.6160 -0.0407  0.3231
10593TIP3   OH253269   1.068   0.584   0.826 -0.1576 -0.0690 -0.3777
10593TIP3    H153270   1.013   0.527   0.879  0.7533  1.4486  2.3895
10593TIP3    H253271   1.144   0.531   0.805 -0.4187 -0.6343  0.0755
10594TIP3   OH253272   5.706   5.051  14.758 -0.0991 -0.1809 -0.1411
10594TIP3    H153273   5.760   4.972  14.759 -0.8314 -0.7438  2.2780
10594TIP3    H253274   5.708   5.083  14.848 -2.6433  0.5467 -0.2642
10595TIP3   OH253275   2.424   3.467  14.761 -0.6721  0.0330  0.3343
10595TIP3    H153276   2.437   3.493  14.852 -1.9245  0.2259  0.4716
10595TIP3    H253277   2.452   3.544  14.710 -3.3546  1.3473  0.7046
10596TIP3   OH253278   2.860   3.384  16.405  0.4125 -0.6524 -0.2419
10596TIP3    H153279   2.802   3.309  16.393  0.3615 -0.4050 -1.7587
10596TIP3    H253280   2.808   3.449  16.452 -0.8519 -0.1364 -2.2434
10597TIP3   OH253281   2.734   3.418   5.687  0.3725 -0.3894 -0.3011
10597TIP3    H153282   2.749   3.325   5.705 -1.2639 -0.8517 -1.2053
10597TIP3    H253283   2.688   3.450   5.765 -1.7253 -1.0691 -1.2202
10598TIP3   OH253284   4.215   1.840  15.388 -0.2055 -0.1455 -1.0448
10598TIP3    H153285   4.150   1.839  15.459  0.5727 -0.5133 -0.3148
10598TIP3    H253286   4.227   1.748  15.366 -1.1407  0.0151 -2.3408
10599TIP3   OH253287   5.894   1.206  16.099 -0.3677 -0.0351 -0.5501
10599TIP3    H153288   5.922   1.283  16.050  2.1597 -1.7072 -1.9923
10599TIP3    H253289   5.878   1.238  16.187 -0.4924  2.3056 -1.3503
10600TIP3   OH253290   2.487   5.290   5.939 -0.1937  0.3944 -0.1350
10600TIP3    H153291   2.480   5.333   6.025 -0.2577 -1.0330  0.6032
10600TIP3    H253292   2.562   5.332   5.898 -0.7018  1.7227  0.2366
10601TIP3   OH253293   3.348   5.284   6.010 -0.6587  0.2266  0.8048
10601TIP3    H153294   3.341   5.366   6.059  0.5068  0.4967  0.5380
10601TIP3    H253295   3.348   5.311   5.918 -3.0058 -0.2868  0.5751
10602TIP3   OH253296   3.149   0.498  15.748 -0.7720  0.3566 -0.0240
10602TIP3    H153297   3.206   0.510  15.824 -1.2644  1.6716  0.1668
10602TIP3    H253298   3.208   0.493  15.673 -0.3659  0.7479  0.2707
10603TIP3   OH253299   5.945   6.335   4.122 -0.2430 -0.2672  0.2069
10603TIP3    H153300   5.995   6.417   4.122  0.4676 -0.6757 -0.6314
10603TIP3    H253301   5.930   6.316   4.214 -1.7470  1.5756  0.4089
10604TIP3   OH253302   2.907   3.323   0.116 -0.2677 -0.1958  0.4944
10604TIP3    H153303   2.866   3.339   0.201  0.5856  0.4326  0.8120
10604TIP3    H253304   2.878   3.397   0.062  0.9254  0.6067  0.9152
10605TIP3   OH253305   0.598   4.181  11.478  0.6991 -0.2194 -0.3418
10605TIP3    H153306   0.566   4.096  11.450 -1.8346  1.0690 -1.6197
10605TIP3    H253307   0.521   4.227  11.512  1.9122  1.7108 -0.0053
10606TIP3   OH253308   2.414   0.212   5.106 -0.2006  0.4335 -1.0258
10606TIP3    H153309   2.420   0.253   5.020  2.5604  1.5900 -0.3902
10606TIP3    H253310   2.480   0.142   5.104  0.7396  1.2254  0.4767
10607TIP3   OH253311   4.501   2.162  13.526 -0.1549  0.5934  0.2029
10607TIP3    H153312   4.570   2.171  13.460 -0.5114  2.7043  0.0552
10607TIP3    H253313   4.472   2.252  13.543 -1.2696 -0.0491  1.9730
10608TIP3   OH253314   4.205   3.756   2.431 -0.1411  0.0553  0.3574
10608TIP3    H153315   4.156   3.835   2.407  1.5954  0.7848 -0.9657
10608TIP3    H253316   4.252   3.780   2.510  0.9980  0.6539 -0.4760
10609TIP3   OH253317   0.453   0.150  15.922 -0.1192 -0.4960  0.0320
10609TIP3    H153318   0.379   0.113  15.874 -0.2331 -1.6297  1.0205
10609TIP3    H253319   0.470   0.234  15.880 -0.2314 -1.4106 -1.9400
10610TIP3   OH253320   5.063   0.702  13.345 -0.4038 -0.2395  0.0804
10610TIP3    H153321   5.058   0.706  13.250  1.1328  2.9538  0.0284
10610TIP3    H253322   4.983   0.744  13.376 -0.3782 -0.2685  0.1879
10611TIP3   OH253323   0.811   5.737   4.085  0.0139 -0.1940 -0.1832
10611TIP3    H153324   0.889   5.733   4.029 -0.7863  3.0754 -1.7593
10611TIP3    H253325   0.738   5.741   4.023 -1.2041 -0.2987  1.2053
10612TIP3   OH253326   6.494   0.227  13.423  0.3397  0.3686  0.1874
10612TIP3    H153327   6.565   0.207  13.485 -0.6476  1.1503  1.6136
10612TIP3    H253328   6.494   0.152  13.363  0.8623 -0.8005  1.5687
10613TIP3   OH253329   4.565   1.437   3.832  0.1718 -0.3260 -0.7619
10613TIP3    H153330   4.583   1.363   3.890  0.5573  0.0144 -0.4440
10613TIP3    H253331   4.604   1.412   3.748 -0.8155 -1.0332 -1.0315
10614TIP3   OH253332   2.268   6.484   6.869 -0.1027  0.3833 -0.1089
10614TIP3    H153333   2.207   6.541   6.914 -0.3215 -0.4770  0.7175
10614TIP3    H253334   2.244   6.395   6.897  0.2140 -0.1249 -1.3660
10615TIP3   OH253335   3.673   0.844   5.271 -0.7363  0.5363  0.2132
10615TIP3    H153336   3.752   0.880   5.230 -1.1076  0.7044 -0.3641
10615TIP3    H253337   3.676   0.750   5.250 -0.7332  0.5573  0.1205
10616TIP3   OH253338   3.753   5.362  12.689  0.2717 -0.3515  0.0403
10616TIP3    H153339   3.803   5.442  12.707 -0.7633  0.2009  0.5982
10616TIP3    H253340   3.757   5.312  12.771  1.0705 -0.9695 -0.3673
10617TIP3   OH253341   6.238   2.438   4.137  0.2075  0.4499  0.3550
10617TIP3    H153342   6.202   2.441   4.226 -0.0970  0.1685  0.2426
10617TIP3    H253343   6.191   2.506   4.089 -0.0195  0.2295  0.2652
10618TIP3   OH253344   2.644   0.889  15.807 -0.2138  0.7172  0.1247
10618TIP3    H153345   2.665   0.870  15.715  1.1431 -0.7507  0.6843
10618TIP3    H253346   2.556   0.926  15.804 -0.3236  0.4232 -1.7411
10619TIP3   OH253347   0.497   4.989  11.128 -0.0643  0.3101 -0.0833
10619TIP3    H153348   0.511   4.899  11.099  1.2079 -0.1585  1.7653
10619TIP3    H253349   0.477   5.038  11.048 -1.2896 -1.6728 -1.0693
10620TIP3   OH253350   3.577   4.454   1.908  0.5383 -0.0348 -0.0087
10620TIP3    H153351   3.514   4.382   1.916  0.0531  0.5467  2.8061
10620TIP3    H253352   3.523   4.533   1.914  1.3112  0.5031  0.0170
10621TIP3   OH253353   6.506   3.099   2.286  0.1661 -0.0414  0.4795
10621TIP3    H153354   6.570   3.043   2.244  0.1337  1.1731 -1.3003
10621TIP3    H253355   6.421   3.067   2.256  0.1050  0.3503  0.2193
10622TIP3   OH253356   3.947   5.732  17.138  0.2837  0.1380  0.0461
10622TIP3    H153357   4.007   5.807  17.129 -0.1225  0.3300 -1.2968
10622TIP3    H253358   3.870   5.757  17.088 -0.8244 -0.2438  1.4817
10623TIP3   OH253359   1.857   3.614  10.902  0.4815 -0.1369  0.3827
10623TIP3    H153360   1.941   3.578  10.928  0.9040 -1.3330 -2.3769
10623TIP3    H253361   1.817   3.546  10.848 -0.1343  2.2133 -2.3179
10624TIP3   OH253362   6.765   1.570  14.988 -0.2311  0.4033  0.4851
10624TIP3    H153363   6.764   1.475  14.971  2.2144  0.5285 -0.8055
10624TIP3    H253364   6.677   1.589  15.019 -1.2355 -2.0577 -0.5460
10625TIP3   OH253365   6.387   0.636  15.563  0.3821 -0.0825 -0.3392
10625TIP3    H153366   6.397   0.609  15.654  1.3701 -0.7033 -0.6134
10625TIP3    H253367   6.356   0.557  15.518  0.2486  0.1212 -0.6081
10626TIP3   OH253368   3.095   3.667   3.253  0.1014 -0.8149  0.0619
10626TIP3    H153369   3.007   3.650   3.286 -0.3751 -1.8019 -1.5591
10626TIP3    H253370   3.152   3.609   3.304 -0.0524  0.3390  1.6042
10627TIP3   OH253371   2.225   1.645  12.255  0.8375  0.0998  0.3355
10627TIP3    H153372   2.144   1.596  12.273  0.4073  0.2557 -1.0892
10627TIP3    H253373   2.283   1.580  12.215  0.1477  0.7652 -1.8712
10628TIP3   OH253374   0.156   6.022   3.672 -0.4590 -1.0120 -0.1382
10628TIP3    H153375   0.140   6.042   3.580  1.1034  1.3607  0.0391
10628TIP3    H253376   0.239   5.974   3.672 -1.0674 -2.1212 -0.0079
10629TIP3   OH253377   2.791   3.708  11.684  0.4136 -0.7073  0.9833
10629TIP3    H153378   2.760   3.690  11.595 -0.0820 -1.3525  1.2827
10629TIP3    H253379   2.777   3.802  11.695 -2.0924 -1.0435  1.3331
10630TIP3   OH253380   6.264   6.268   3.038 -0.6701  0.1491  0.3554
10630TIP3    H153381   6.227   6.289   3.123 -0.4808  0.5145  0.3504
10630TIP3    H253382   6.347   6.315   3.036 -0.0665 -0.8765  0.4786
10631TIP3   OH253383   5.837   1.174   1.056 -0.2203 -0.0114  0.0741
10631TIP3    H153384   5.900   1.202   1.122 -3.6153  2.0011  2.7852
10631TIP3    H253385   5.790   1.101   1.096 -0.2216 -0.9404 -1.5203
10632TIP3   OH253386   0.484   0.924   0.208 -0.0242  0.3555  0.2266
10632TIP3    H153387   0.538   0.992   0.169 -0.0898  0.8673  1.0044
10632TIP3    H253388   0.460   0.959   0.294 -0.5276 -0.4091  0.4057
10633TIP3   OH253389   5.339   2.741   5.830 -0.1673  0.6349  0.4529
10633TIP3    H153390   5.425   2.701   5.825 -0.6761 -0.9255  2.6211
10633TIP3    H253391   5.353   2.833   5.808  2.1228  0.5217  1.2128
10634TIP3   OH253392   1.465   4.573  10.965  0.3334 -0.7145 -0.5282
10634TIP3    H153393   1.509   4.521  11.032 -1.2809 -1.2197  0.1965
10634TIP3    H253394   1.372   4.570  10.990 -0.0759  0.5893 -1.7857
10635TIP3   OH253395   4.786   3.310  11.946 -0.0423  0.2896  0.0787
10635TIP3    H153396   4.702   3.263  11.939  0.5765 -0.6949 -1.3805
10635TIP3    H253397   4.772   3.390  11.896 -0.1096  0.0730 -0.2629
10636TIP3   OH253398   3.949   0.828  13.629 -0.4016 -0.4330 -0.4821
10636TIP3    H153399   3.938   0.769  13.554 -2.2540  1.1718 -1.5376
10636TIP3    H253400   3.883   0.896  13.617 -0.7108 -0.0391  2.5708
10637TIP3   OH253401   6.457   6.415   4.990 -0.3111 -0.0261  0.0176
10637TIP3    H153402   6.537   6.365   5.008  0.6891  1.2906 -0.5233
10637TIP3    H253403   6.411   6.419   5.074 -0.0715 -1.2284  0.2227
10638TIP3   OH253404   5.128   0.758   4.744  0.5797  0.3096  0.5301
10638TIP3    H153405   5.217   0.744   4.776  0.9416 -0.8088 -0.8449
10638TIP3    H253406   5.076   0.690   4.788  0.7875 -0.2678 -0.1031
10639TIP3   OH253407   4.081   2.892   3.416 -0.4900  0.3391 -0.0272
10639TIP3    H153408   4.104   2.800   3.427 -0.6354  0.5736  2.9184
10639TIP3    H253409   4.119   2.916   3.331 -1.3703 -2.6574 -1.4189
10640TIP3   OH253410   0.413   3.805   4.313  0.5049 -0.1635 -0.4393
10640TIP3    H153411   0.442   3.888   4.350 -0.6100  0.5514 -1.0852
10640TIP3    H253412   0.322   3.821   4.288  0.0475 -1.7947  0.0423
10641TIP3   OH253413   1.906   5.399   3.891  0.1681  0.3989  0.0419
10641TIP3    H153414   1.948   5.430   3.811  1.5349 -0.0322  0.5522
10641TIP3    H253415   1.813   5.400   3.871  0.2904  2.5991 -0.7305
10642TIP3   OH253416   2.773   1.539  13.775  0.2605  0.3301  0.0289
10642TIP3    H153417   2.862   1.564  13.799  1.0696 -2.3114  0.0736
10642TIP3    H253418   2.784   1.472  13.707 -1.7246  0.5212 -0.5585
10643TIP3   OH253419   2.710   4.612  13.131 -0.0960  0.6251 -0.1362
10643TIP3    H153420   2.628   4.564  13.142  0.2745  0.0095  0.0221
10643TIP3    H253421   2.745   4.579  13.048  1.5203 -1.5144  1.2650
10644TIP3   OH253422   0.222   6.663   5.504 -0.1516  0.9952 -0.2969
10644TIP3    H153423   0.133   6.649   5.536 -0.0238  0.2154 -0.2441
10644TIP3    H253424   0.222   6.622   5.417 -0.0839  1.7705 -0.6636
10645TIP3   OH253425   0.946   1.985   4.013 -0.6455  0.4650  0.1084
10645TIP3    H153426   0.869   2.011   4.063 -2.5022 -0.6452 -2.0034
10645TIP3    H253427   1.009   2.056   4.028 -2.2428  1.6737  1.5117
10646TIP3   OH253428   5.709   1.709  17.480 -0.3926 -0.3609 -0.1455
10646TIP3    H153429   5.782   1.661  17.440 -1.1223 -1.1981 -0.5158
10646TIP3    H253430   5.676   1.651  17.548 -0.3719  0.2525  0.3996
10647TIP3   OH253431   3.935   5.760   0.966  0.0478  0.2112  0.1036
10647TIP3    H153432   3.876   5.745   1.041  0.9609 -0.1793  0.7605
10647TIP3    H253433   3.940   5.674   0.923  0.5834  0.0974  0.3871
10648TIP3   OH253434   0.873   1.275   0.526 -0.4700  0.0114  0.0406
10648TIP3    H153435   0.801   1.252   0.586  0.6797 -0.3441  1.3287
10648TIP3    H253436   0.854   1.226   0.446 -0.1332 -2.4784  1.3853
10649TIP3   OH253437   1.940   6.457   3.826  0.4398 -0.2293  0.3716
10649TIP3    H153438   1.964   6.378   3.875  0.4729  0.0715  0.8489
10649TIP3    H253439   1.940   6.527   3.892  4.0141  0.9078 -0.6228
10650TIP3   OH253440   3.095   0.604   4.739  0.5386 -0.1180  0.2869
10650TIP3    H153441   3.123   0.543   4.671  0.3916  0.4862 -0.3314
10650TIP3    H253442   3.038   0.666   4.693 -1.0210 -0.7349  1.2955
10651TIP3   OH253443   5.332   4.215   3.038 -0.4112 -0.2004  0.0373
10651TIP3    H153444   5.364   4.243   2.952  1.0310 -1.1276  0.2317
10651TIP3    H253445   5.272   4.143   3.020 -1.0635  0.4039 -0.2434
10652TIP3   OH253446   4.880   5.787  17.287 -0.4301 -0.2010 -0.7820
10652TIP3    H153447   4.836   5.716  17.334 -1.2298 -1.5435 -3.3760
10652TIP3    H253448   4.809   5.843  17.256  0.0783  0.6181 -0.4998
10653TIP3   OH253449   4.926   1.723   0.311 -0.1521  0.3467 -0.5791
10653TIP3    H153450   4.871   1.710   0.388 -0.5196  0.3116 -0.8410
10653TIP3    H253451   4.993   1.785   0.339 -0.9936  1.2708 -0.5651
10654TIP3   OH253452   2.298   2.256  10.938 -0.0788  0.2679 -0.6670
10654TIP3    H153453   2.325   2.195  11.006  0.6096 -1.0115 -2.0260
10654TIP3    H253454   2.380   2.289  10.901 -0.4330  0.6596 -1.1274
10655TIP3   OH253455   0.618   1.425  11.185  0.3153 -0.2651 -0.0029
10655TIP3    H153456   0.634   1.336  11.156 -2.2222 -1.0502  0.7293
10655TIP3    H253457   0.641   1.480  11.110  0.1818 -1.6843 -1.1146
10656TIP3   OH253458   6.650   1.841  16.518  0.1305 -0.2649 -0.4485
10656TIP3    H153459   6.650   1.929  16.555 -1.3109 -0.6336  0.4880
10656TIP3    H253460   6.734   1.835  16.472  2.1064  0.2551  2.7395
10657TIP3   OH253461   5.817   1.368   0.588  0.3245  0.9127  0.1215
10657TIP3    H153462   5.881   1.425   0.628  1.0661  0.5742 -0.5529
10657TIP3    H253463   5.787   1.311   0.659  3.3741 -1.3124 -0.1557
10658TIP3   OH253464   1.986   0.851  11.199  0.2956  0.0721  0.2793
10658TIP3    H153465   1.996   0.772  11.252 -0.5095 -0.3809 -0.2085
10658TIP3    H253466   1.955   0.818  11.114  0.6708  0.8551 -0.1677
10659TIP3   OH253467   6.222   4.307   1.472  0.7408  0.4840 -0.1978
10659TIP3    H153468   6.173   4.241   1.424  0.9486  0.4888 -0.4193
10659TIP3    H253469   6.230   4.272   1.561 -0.2438  0.7910  0.0197
10660TIP3   OH253470   2.894   0.696  11.319  0.6156  0.5009  0.4533
10660TIP3    H153471   2.865   0.619  11.271  0.3822  0.6494  0.3538
10660TIP3    H253472   2.862   0.682  11.408  1.2048  0.1413  0.6097
10661TIP3   OH253473   2.439   1.666   2.989  0.2724  0.7165 -0.0671
10661TIP3    H153474   2.495   1.589   2.986  2.7113  2.3939  0.0206
10661TIP3    H253475   2.386   1.660   2.909 -0.6297 -1.6985  0.6173
10662TIP3   OH253476   3.804   5.216   6.201 -0.2067  0.0261  0.0587
10662TIP3    H153477   3.794   5.121   6.189 -1.8779 -0.2411  2.7848
10662TIP3    H253478   3.716   5.251   6.190 -0.0207  0.9309  1.2940
10663TIP3   OH253479   5.059   3.769   5.826 -0.2396 -0.0847  0.7902
10663TIP3    H153480   5.027   3.841   5.772 -1.9597  0.4548  2.3847
10663TIP3    H253481   5.070   3.696   5.766  2.0025  1.5781 -0.9555
10664TIP3   OH253482   3.707   5.548   3.681  0.2234  0.3728 -0.0906
10664TIP3    H153483   3.663   5.531   3.764 -1.2347 -0.8451 -1.0550
10664TIP3    H253484   3.749   5.633   3.694 -0.6076  0.5754  1.6316
10665TIP3   OH253485   4.502   3.803   1.856  0.1888 -0.3931 -0.1583
10665TIP3    H153486   4.494   3.781   1.949  0.4599 -1.4284 -0.3620
10665TIP3    H253487   4.413   3.812   1.825  0.0994  1.4181  0.5106
10666TIP3   OH253488   4.849   4.574  15.820  0.0736 -0.1815  0.1045
10666TIP3    H153489   4.914   4.622  15.769 -1.6760  0.4882 -1.6386
10666TIP3    H253490   4.792   4.641  15.856  0.1290 -0.7743  1.3616
10667TIP3   OH253491   1.577   6.606   0.041 -0.2745 -0.8187  0.1002
10667TIP3    H153492   1.521   6.554   0.099 -0.8894  0.6665  0.8978
10667TIP3    H253493   1.564   6.696   0.070 -0.0211 -0.0921 -1.8849
10668TIP3   OH253494   2.033   5.346  13.877 -0.0611  0.0490 -0.1179
10668TIP3    H153495   2.079   5.307  13.951 -0.6827  2.0700  1.4008
10668TIP3    H253496   2.100   5.397  13.831  0.6662 -2.3209 -1.8948
10669TIP3   OH253497   4.235   6.621   1.248  0.2921 -0.0290 -0.7385
10669TIP3    H153498   4.323   6.657   1.235  0.8592 -0.5541  1.1767
10669TIP3    H253499   4.177   6.698   1.248  1.0537  0.5673  0.0775
10670TIP3   OH253500   4.681   5.921  12.660  0.4419  0.2834  0.1028
10670TIP3    H153501   4.708   5.948  12.572  0.5126 -2.5338 -0.8495
10670TIP3    H253502   4.586   5.913  12.655  0.5366 -0.9344 -0.0986
10671TIP3   OH253503   0.808   0.008  17.096  0.4683 -0.2537  0.0985
10671TIP3    H153504   0.845   0.051  17.173 -2.7440 -1.0836  2.3044
10671TIP3    H253505   0.731   0.061  17.075  2.1430  0.9781 -3.8053
10672TIP3   OH253506   1.742   4.910  17.397 -0.0174  0.1334  0.0130
10672TIP3    H153507   1.754   4.939  17.307  1.2019 -2.4253 -0.7510
10672TIP3    H253508   1.650   4.927  17.416  0.1746  2.5617 -0.9677
10673TIP3   OH253509   4.901   3.457   2.139  0.1773  0.6741 -0.2283
10673TIP3    H153510   4.951   3.460   2.058 -1.1752  1.3253 -1.0624
10673TIP3    H253511   4.869   3.367   2.144  0.1270  0.6745 -0.5125
10674TIP3   OH253512   6.671   4.603  14.156  0.1400 -0.3615 -0.2273
10674TIP3    H153513   6.642   4.610  14.065  0.1704 -0.0972 -0.2179
10674TIP3    H253514   6.656   4.690  14.193  1.7123  0.0377 -0.4611
10675TIP3   OH253515   6.077   5.587  16.117  0.3852 -0.1923  0.2859
10675TIP3    H153516   6.157   5.620  16.159 -0.0906  1.5174 -0.0779
10675TIP3    H253517   6.036   5.664  16.079 -0.4665 -1.3355 -1.2186
10676TIP3   OH253518   1.024   1.210  14.252 -0.2743  0.0550  0.4486
10676TIP3    H153519   1.051   1.128  14.210  1.5071 -0.9090  3.2246
10676TIP3    H253520   0.929   1.214  14.238 -0.4912 -2.7344  0.5985
10677TIP3   OH253521   5.883   1.231   3.339  0.4138  0.2477 -0.2933
10677TIP3    H153522   5.792   1.239   3.312  0.7724  1.1420 -1.3161
10677TIP3    H253523   5.925   1.182   3.268  1.0172  1.1302 -0.5686
10678TIP3   OH253524   6.438   0.277  14.092 -0.0980 -0.5105 -0.0838
10678TIP3    H153525   6.463   0.364  14.062  0.9026 -0.0628  1.8814
10678TIP3    H253526   6.344   0.282  14.106  0.1616  0.8065  1.5233
10679TIP3   OH253527   0.074   2.043  14.507  0.3770  0.2038 -0.8575
10679TIP3    H153528   0.142   2.104  14.535  0.7311 -1.1589  1.4883
10679TIP3    H253529   0.120   1.980  14.451  1.0633 -0.5101  0.4400
10680TIP3   OH253530   0.512   5.325  11.891 -0.4766  0.8968 -0.2595
10680TIP3    H153531   0.588   5.367  11.932 -1.5252  2.3590  0.3009
10680TIP3    H253532   0.500   5.373  11.809  0.3693 -0.6508 -1.3195
10681TIP3   OH253533   3.423   5.512   0.989  0.1622 -0.0688  0.3637
10681TIP3    H153534   3.399   5.575   1.057 -0.0323  0.0914  0.1451
10681TIP3    H253535   3.405   5.426   1.028  1.1758 -0.0227  0.9574
10682TIP3   OH253536   5.892   1.829   3.292  0.1426  0.0694  0.0933
10682TIP3    H153537   5.953   1.866   3.228  0.0993  1.9307  1.0684
10682TIP3    H253538   5.939   1.833   3.376 -0.1664 -1.4310  0.3825
10683TIP3   OH253539   3.556   5.057   5.649 -0.4525 -0.2138  0.3201
10683TIP3    H153540   3.545   4.998   5.724 -1.0153  1.9242  1.9944
10683TIP3    H253541   3.489   5.124   5.661 -1.1910 -0.2864 -2.6471
10684TIP3   OH253542   2.819   6.711  16.218  0.0857 -0.8740  0.3331
10684TIP3    H153543   2.839   6.654  16.292 -0.5493 -0.3885  0.8916
10684TIP3    H253544   2.786   6.791  16.258 -0.7543 -0.7970 -0.4798
10685TIP3   OH253545   5.202   3.877  16.502  0.0644 -0.0317  0.6745
10685TIP3    H153546   5.291   3.908  16.518  0.1559 -0.2582  0.6071
10685TIP3    H253547   5.152   3.907  16.578  0.2525 -0.1217  0.8338
10686TIP3   OH253548   1.590   6.507   0.765  0.4657  0.6900  0.3950
10686TIP3    H153549   1.627   6.562   0.696  1.0600 -1.5847 -1.2150
10686TIP3    H253550   1.523   6.561   0.807  0.8485  2.5130 -1.2411
10687TIP3   OH253551   1.516   4.323  14.064 -0.3869  0.3446  0.5710
10687TIP3    H153552   1.485   4.233  14.076  1.4434 -0.1557  2.1572
10687TIP3    H253553   1.612   4.315  14.060 -0.2365  2.1298 -0.3814
10688TIP3   OH253554   2.360   5.299  13.556  0.3678 -0.1250  0.5727
10688TIP3    H153555   2.324   5.339  13.476 -2.1280  0.5388  1.9053
10688TIP3    H253556   2.450   5.330  13.561 -0.8839  4.0766  0.6019
10689TIP3   OH253557   2.358   2.705  16.469 -0.3116 -0.2319 -0.2221
10689TIP3    H153558   2.281   2.660  16.504 -0.3719  0.2325  0.2625
10689TIP3    H253559   2.432   2.665  16.514 -0.3508  0.0201  0.0690
10690TIP3   OH253560   2.794   5.201  14.974 -0.5792 -0.0629 -0.0914
10690TIP3    H153561   2.710   5.210  14.930 -1.0276  0.5434  0.8596
10690TIP3    H253562   2.794   5.112  15.009 -1.2234  0.2145  0.6600
10691TIP3   OH253563   2.701   0.197  11.863 -0.5983  0.3548 -0.5269
10691TIP3    H153564   2.711   0.195  11.768 -2.1090  2.1471 -0.7883
10691TIP3    H253565   2.615   0.237  11.877 -0.5359 -0.1329  1.6028
10692TIP3   OH253566   3.466   4.857  16.232 -0.1811  0.5333  0.4794
10692TIP3    H153567   3.553   4.892  16.250  0.2602  0.3636 -1.1877
10692TIP3    H253568   3.434   4.826  16.317  1.9885 -0.7662  0.8809
10693TIP3   OH253569   5.399   5.922  17.171  0.2896  0.4895 -0.0300
10693TIP3    H153570   5.340   5.979  17.221 -0.4161 -0.3495  0.1188
10693TIP3    H253571   5.341   5.858  17.130  0.6982  1.6951 -2.7702
10694TIP3   OH253572   1.519   5.099   5.798 -0.1942  0.9798  0.5679
10694TIP3    H153573   1.544   5.104   5.706 -1.3992  0.3290  0.1926
10694TIP3    H253574   1.459   5.172   5.811  0.9436  1.8426  1.1811
10695TIP3   OH253575   5.286   3.230  10.652 -0.2300 -0.3059 -0.0743
10695TIP3    H153576   5.287   3.306  10.593  0.8094  0.3559  0.7703
10695TIP3    H253577   5.212   3.246  10.710  1.0970  1.0483  1.3144
10696TIP3   OH253578   1.899   6.431  12.898  0.4789 -0.1434 -0.2052
10696TIP3    H153579   1.957   6.424  12.822  1.1532  0.7198  0.2098
10696TIP3    H253580   1.827   6.486  12.869  0.1452 -0.7479 -0.5493
10697TIP3   OH253581   6.735   4.138   2.762 -0.1345  0.1921 -0.2567
10697TIP3    H153582   6.741   4.225   2.723  0.4998 -1.1493 -3.4697
10697TIP3    H253583   6.825   4.106   2.764 -0.2600 -0.1669  1.6284
10698TIP3   OH253584   4.627   0.694   3.235 -0.3039 -0.4483  0.0094
10698TIP3    H153585   4.709   0.651   3.260  0.7600  0.1271 -2.2351
10698TIP3    H253586   4.615   0.762   3.301  2.1132  0.7370 -0.6698
10699TIP3   OH253587   0.248   0.793  13.765  0.0328 -0.7439  0.2298
10699TIP3    H153588   0.208   0.732  13.703 -0.3736  0.5869 -0.8651
10699TIP3    H253589   0.299   0.853  13.710  0.0402  0.1875  1.2145
10700TIP3   OH253590   4.005   2.442   3.155  0.2536  0.0114 -0.8361
10700TIP3    H153591   4.097   2.457   3.177 -0.1572  1.5173  0.0110
10700TIP3    H253592   3.979   2.368   3.210  0.4364  0.8817  0.4468
10701TIP3   OH253593   5.382   1.825  14.270  0.0243 -0.4714 -0.6892
10701TIP3    H153594   5.329   1.851  14.346 -0.6181 -1.5847 -0.7446
10701TIP3    H253595   5.443   1.759  14.305  1.4356  0.8110 -0.6176
10702TIP3   OH253596   0.167   4.685  12.376  0.5290 -0.7101 -0.1057
10702TIP3    H153597   0.154   4.669  12.469  0.1937  1.3406  0.2463
10702TIP3    H253598   0.082   4.717  12.345  1.3602  1.2870 -0.4554
10703TIP3   OH253599   1.041   2.949  11.370 -0.0165 -0.6405  0.0408
10703TIP3    H153600   1.024   2.855  11.360  0.5065 -0.5043 -3.0931
10703TIP3    H253601   1.136   2.957  11.369 -0.0600 -0.0574 -0.0064
10704TIP3   OH253602   1.413   0.842  12.428  0.3620 -0.0618  0.0747
10704TIP3    H153603   1.402   0.750  12.404  3.5340 -0.6769  0.5156
10704TIP3    H253604   1.419   0.841  12.524 -1.8496  1.0024  0.2973
10705TIP3   OH253605   4.452   6.265  16.643 -0.3496  0.1711 -0.3445
10705TIP3    H153606   4.422   6.237  16.730 -1.1421  1.3555 -0.2267
10705TIP3    H253607   4.425   6.356  16.636  0.5481  0.3712 -1.4714
10706TIP3   OH253608   0.486   5.511   3.857 -0.0983 -0.0872  0.1740
10706TIP3    H153609   0.524   5.585   3.903 -0.3492 -0.4877  1.0432
10706TIP3    H253610   0.392   5.516   3.876  0.0768 -1.5193  1.5710
10707TIP3   OH253611   2.319   1.050   3.014  0.2714 -0.2502  1.1094
10707TIP3    H153612   2.392   1.071   2.956 -0.4466 -1.3556 -0.2594
10707TIP3    H253613   2.258   1.122   3.002  0.3218 -0.2548  0.8088
10708TIP3   OH253614   4.417   3.573   0.960 -0.0869 -0.2580 -0.2900
10708TIP3    H153615   4.343   3.541   1.013 -0.4400  0.8670 -0.0862
10708TIP3    H253616   4.380   3.586   0.873 -0.4853  1.5175  0.1056
10709TIP3   OH253617   1.977   4.326   0.934  0.0448 -0.2090 -0.1519
10709TIP3    H153618   1.994   4.352   1.025 -1.7553 -0.1081  0.1952
10709TIP3    H253619   2.048   4.366   0.884  2.4970 -2.2707  1.4402
10710TIP3   OH253620   2.470   4.672  14.299  0.0755  0.1307  0.1330
10710TIP3    H153621   2.432   4.659  14.212  1.4200 -0.9586 -0.3200
10710TIP3    H253622   2.407   4.631  14.359 -1.4444  1.9154 -0.1654
10711TIP3   OH253623   4.840   2.104   2.551  0.0421 -0.5687  0.4577
10711TIP3    H153624   4.834   2.175   2.615 -0.4402  0.0326 -0.2429
10711TIP3    H253625   4.834   2.024   2.604  0.2022 -0.0949  1.2145
10712TIP3   OH253626   0.012   1.485   5.829 -0.1802  0.4215 -0.5835
10712TIP3    H153627  -0.077   1.451   5.824 -0.2813  0.5599  0.1144
10712TIP3    H253628   0.067   1.413   5.800 -0.5055  0.2696 -0.8315
10713TIP3   OH253629   5.280   1.897  13.982  0.1642 -0.1044  0.5839
10713TIP3    H153630   5.361   1.851  13.958  1.6946  3.0762 -1.0158
10713TIP3    H253631   5.286   1.908  14.077  0.8879 -1.1553  0.6730
10714TIP3   OH253632   2.485   5.075  14.629 -0.5703 -0.7707  0.0657
10714TIP3    H153633   2.546   5.140  14.663  0.3014 -2.2102  1.3914
10714TIP3    H253634   2.536   4.994  14.625 -2.0942 -1.7790  0.1939
10715TIP3   OH253635   0.072   4.866   2.611  0.1359  1.0278 -0.2934
10715TIP3    H153636   0.040   4.818   2.687 -0.3439 -1.6790 -2.0590
10715TIP3    H253637   0.099   4.951   2.645 -1.7835  0.6107  2.5539
10716TIP3   OH253638   1.727   4.941   6.252 -0.3483  0.2667  0.3740
10716TIP3    H153639   1.642   4.954   6.209  0.1949 -1.6646 -1.4653
10716TIP3    H253640   1.709   4.950   6.345 -2.1920  1.7004 -0.0680
10717TIP3   OH253641   2.673   3.910   1.461 -0.1198 -0.0951 -0.1821
10717TIP3    H153642   2.712   3.826   1.435 -1.3802 -0.3030 -1.5248
10717TIP3    H253643   2.748   3.965   1.485  0.8465 -1.0607 -0.9166
10718TIP3   OH253644   2.052   2.060   0.049 -0.6737  0.1635  0.4138
10718TIP3    H153645   1.964   2.097   0.061 -0.3984  0.7797  0.6105
10718TIP3    H253646   2.054   2.030  -0.041 -0.7896  0.9912  0.1231
10719TIP3   OH253647   0.222   5.796  11.069 -0.2735  0.1382 -0.6779
10719TIP3    H153648   0.171   5.785  10.988  0.3182  0.6024 -1.1243
10719TIP3    H253649   0.238   5.890  11.074  0.3547  0.0212 -0.4310
10720TIP3   OH253650   3.945   2.309   2.358 -0.3748  0.0442 -0.6628
10720TIP3    H153651   4.041   2.302   2.356 -0.3761 -0.0136 -0.5238
10720TIP3    H253652   3.925   2.384   2.303 -0.3905 -1.4914 -2.9024
10721TIP3   OH253653   5.347   6.166   0.052  0.5337  0.3625  0.4025
10721TIP3    H153654   5.279   6.202   0.108  0.0303  1.4059 -0.8066
10721TIP3    H253655   5.407   6.240   0.037 -0.6895  0.9229 -2.4050
10722TIP3   OH253656   4.852   6.131  13.041  0.7325  0.9012 -0.1679
10722TIP3    H153657   4.802   6.127  13.122  3.0850 -0.6490  1.3011
10722TIP3    H253658   4.820   6.210  12.997 -0.8788  1.5702  2.0463
10723TIP3   OH253659   3.241   2.647  16.558 -0.5729 -0.0661  0.6575
10723TIP3    H153660   3.198   2.728  16.585 -1.0726  0.6725 -2.0371
10723TIP3    H253661   3.169   2.592  16.526  0.1274  0.1012 -1.3495
10724TIP3   OH253662   2.088   3.536  14.669 -0.9270 -0.7976 -0.3779
10724TIP3    H153663   2.070   3.629  14.653 -0.3422 -0.4918  0.6377
10724TIP3    H253664   2.117   3.533  14.760 -0.8965 -1.9774 -0.4163
10725TIP3   OH253665   0.594   4.146  11.880  0.1176  0.3042 -0.0792
10725TIP3    H153666   0.628   4.137  11.791  0.5179  0.2056  0.0843
10725TIP3    H253667   0.661   4.107  11.936  0.3341  1.2564  0.3542
10726TIP3   OH253668   4.184   3.558   4.332 -0.3701  0.2993 -0.4852
10726TIP3    H153669   4.144   3.640   4.360 -0.0960  0.1424  0.3906
10726TIP3    H253670   4.278   3.571   4.347 -0.2921 -0.0408 -0.6797
10727TIP3   OH253671   1.991   0.940  15.997  0.2521  0.1257  0.3191
10727TIP3    H153672   1.944   0.921  16.077 -2.7376  1.6833 -0.9040
10727TIP3    H253673   1.995   1.036  15.993  1.2631  0.0659 -0.8800
10728TIP3   OH253674   0.607   1.351  14.441 -0.2887  0.2841 -0.2135
10728TIP3    H153675   0.553   1.294  14.386 -1.0556  0.7327  0.0567
10728TIP3    H253676   0.685   1.299  14.460  0.6402  0.6019 -2.8203
10729TIP3   OH253677   5.559   6.774   3.482 -0.0669 -0.4936 -0.1710
10729TIP3    H153678   5.532   6.685   3.502 -1.5931 -0.1259 -0.4675
10729TIP3    H253679   5.651   6.777   3.507 -0.6075 -1.4315  2.2322
10730TIP3   OH253680   5.093   0.006   1.519  0.1539 -0.3633 -0.0416
10730TIP3    H153681   5.119  -0.067   1.462 -2.0422 -0.3616 -1.1410
10730TIP3    H253682   5.080  -0.033   1.605  0.0583 -1.0517 -0.3666
10731TIP3   OH253683   3.602   2.980   6.213  0.2643 -0.2065  0.2207
10731TIP3    H153684   3.599   3.031   6.294 -0.8430 -0.3066  0.2544
10731TIP3    H253685   3.665   3.027   6.157  0.3417  0.3755  0.7896
10732TIP3   OH253686   1.008   5.187  12.748  0.0333  0.7049 -0.4617
10732TIP3    H153687   0.915   5.207  12.747  0.4510  2.8635  0.2714
10732TIP3    H253688   1.018   5.121  12.817 -0.7467  1.5952  0.5298
10733TIP3   OH253689   1.407   4.241  12.007  0.7711 -0.1478 -0.6003
10733TIP3    H153690   1.474   4.229  12.075 -1.1305 -1.0237  1.2121
10733TIP3    H253691   1.434   4.182  11.937  1.6599 -0.8229  0.2726
10734TIP3   OH253692   2.669   5.053  16.076 -0.1060  0.3860  0.0955
10734TIP3    H153693   2.646   5.051  16.169  2.3543 -2.2976  0.7746
10734TIP3    H253694   2.614   4.986  16.036 -0.5087  0.9122 -0.2567
10735TIP3   OH253695   4.589   0.791   6.157  0.1893  0.5575 -0.1120
10735TIP3    H153696   4.538   0.865   6.122  1.2741  1.1591 -0.4581
10735TIP3    H253697   4.679   0.823   6.160  0.6147 -0.6165  0.1450
10736TIP3   OH253698   6.623   1.891   2.810 -0.3756  0.1284  0.4761
10736TIP3    H153699   6.660   1.803   2.821  0.9112  0.3340 -1.6330
10736TIP3    H253700   6.585   1.912   2.896 -1.7017 -2.8900  0.7757
10737TIP3   OH253701   6.318   4.333  11.786 -0.5631 -0.2722  0.2609
10737TIP3    H153702   6.365   4.353  11.867 -2.2922 -0.1406  1.2761
10737TIP3    H253703   6.319   4.415  11.736  1.5007 -0.6576 -0.4302
10738TIP3   OH253704   0.641   4.520  14.282 -0.8612 -0.6382  0.3123
10738TIP3    H153705   0.559   4.566  14.264 -1.2467 -1.6859 -0.7659
10738TIP3    H253706   0.666   4.482  14.197  1.2805  0.4949  0.3845
10739TIP3   OH253707   3.830   6.530  13.830 -0.5397 -0.6311  0.4383
10739TIP3    H153708   3.769   6.476  13.881  0.4299 -0.5906  1.6844
10739TIP3    H253709   3.867   6.591  13.894  1.5695 -1.3062 -0.0658
10740TIP3   OH253710   1.736   4.445   3.424 -0.3871  0.8485 -0.1762
10740TIP3    H153711   1.683   4.378   3.381  1.5461  0.2347 -1.7860
10740TIP3    H253712   1.764   4.405   3.506 -0.6258  0.3175 -0.3481
10741TIP3   OH253713   5.896   3.932   3.136 -0.2512  0.3534  0.0870
10741TIP3    H153714   5.814   3.895   3.102  0.9897 -0.9460 -1.6647
10741TIP3    H253715   5.884   3.932   3.231 -1.6273 -1.4511 -0.0224
10742TIP3   OH253716   3.026   0.467   4.506  0.1811  0.0041  0.4572
10742TIP3    H153717   2.976   0.527   4.449 -0.2425  0.5508  1.3770
10742TIP3    H253718   3.015   0.381   4.466  0.7137  0.5084 -0.8405
10743TIP3   OH253719   4.366   1.414  16.187  0.2654  0.1144 -0.1906
10743TIP3    H153720   4.414   1.395  16.107 -1.6614  1.5128 -1.7905
10743TIP3    H253721   4.300   1.345  16.192  0.7569 -0.3145  0.5581
10744TIP3   OH253722   0.196   1.981  12.316  0.1857  0.2603 -0.4861
10744TIP3    H153723   0.119   1.964  12.369  0.6809 -1.6730 -0.3146
10744TIP3    H253724   0.163   2.031  12.241 -1.1087  0.0189 -0.1014
10745TIP3   OH253725   3.708   4.289   0.890  0.0341 -0.3404 -0.2428
10745TIP3    H153726   3.640   4.224   0.906  0.5687 -1.3096 -1.6644
10745TIP3    H253727   3.789   4.248   0.920  0.4376 -0.5577 -1.5301
10746TIP3   OH253728   4.943   1.572  16.501 -0.0516 -0.8086  0.0180
10746TIP3    H153729   5.027   1.528  16.491  0.2352  0.1676 -3.1916
10746TIP3    H253730   4.879   1.501  16.499  0.5858 -1.3936 -0.8346
10747TIP3   OH253731   5.648   0.048  16.079  0.2296 -0.1245  0.0506
10747TIP3    H153732   5.642   0.119  16.143  2.0179 -0.9792  1.2697
10747TIP3    H253733   5.587  -0.018  16.111  1.4175 -0.7239  1.1895
10748TIP3   OH253734   0.624   1.033  11.215  0.3502 -0.0551 -0.4315
10748TIP3    H153735   0.560   1.081  11.266  1.3850  0.4764  0.4192
10748TIP3    H253736   0.640   1.086  11.138  0.1796  0.0868 -0.3675
10749TIP3   OH253737   4.779   4.788  17.314  0.5807  0.5454 -0.0219
10749TIP3    H153738   4.714   4.790  17.384  0.5433  1.3953 -0.0741
10749TIP3    H253739   4.738   4.835  17.241  0.3746 -0.8584 -0.8402
10750TIP3   OH253740   5.002   5.437   3.961  0.0870  0.3181  0.6482
10750TIP3    H153741   5.012   5.400   3.874  2.0143  1.0547  0.5287
10750TIP3    H253742   4.928   5.498   3.952 -0.3985 -0.3617 -0.1810
10751TIP3   OH253743   6.037   3.139   3.732 -0.1970  0.1102  0.2272
10751TIP3    H153744   6.089   3.059   3.724  1.8843  1.4571 -0.3271
10751TIP3    H253745   6.038   3.159   3.826 -3.2553 -2.0107  0.8728
10752TIP3   OH253746   0.624   0.997   2.420 -0.1641  0.3759 -0.7596
10752TIP3    H153747   0.692   0.971   2.357 -0.3650 -0.5164 -0.6253
10752TIP3    H253748   0.608   0.917   2.471 -0.7357  0.8098 -0.2551
10753TIP3   OH253749   2.154   0.764   3.339  0.0690  0.2165 -0.1277
10753TIP3    H153750   2.226   0.706   3.313 -1.1348 -1.9556  1.1300
10753TIP3    H253751   2.186   0.808   3.418 -0.4136 -1.7870  1.2471
10754TIP3   OH253752   5.710   6.270  17.315  0.7057 -0.3523  0.2639
10754TIP3    H153753   5.708   6.175  17.325  0.8546 -0.5073 -1.0533
10754TIP3    H253754   5.677   6.286  17.227  0.2359  0.8558  0.6401
10755TIP3   OH253755   1.834   6.367  16.628 -0.6433  0.3239 -0.0312
10755TIP3    H153756   1.889   6.315  16.569 -1.0217  1.2227 -1.2337
10755TIP3    H253757   1.874   6.357  16.714  0.3792 -0.4271 -0.5709
10756TIP3   OH253758   5.042   0.375  12.636 -0.3589  0.2530 -0.0391
10756TIP3    H153759   4.960   0.415  12.663 -0.3617 -0.0787  0.4782
10756TIP3    H253760   5.019   0.318  12.562 -0.1149  2.2446 -1.7367
10757TIP3   OH253761   0.210   5.648   3.699 -0.6788  0.3228 -0.0033
10757TIP3    H153762   0.280   5.708   3.674 -0.2989 -0.0314  0.2139
10757TIP3    H253763   0.200   5.660   3.793  0.4811 -1.0877  0.3299
10758TIP3   OH253764   4.639   2.456  15.489  0.2898 -0.2320  0.1834
10758TIP3    H153765   4.651   2.544  15.455 -1.2564 -0.3719 -0.8426
10758TIP3    H253766   4.686   2.399  15.428  1.4362 -0.1381  0.9430
10759TIP3   OH253767   2.730   6.760  17.034  0.6842  0.4387  0.3624
10759TIP3    H153768   2.674   6.690  17.000  1.9853  0.4371 -1.9776
10759TIP3    H253769   2.721   6.831  16.970  1.5879  1.3088  1.1726
10760TIP3   OH253770   4.454   4.487   5.712 -0.0905  0.2068 -0.3957
10760TIP3    H153771   4.543   4.455   5.693 -0.4209 -0.3755 -1.0031
10760TIP3    H253772   4.399   4.444   5.646 -0.4261  2.8233 -1.9796
10761TIP3   OH253773   1.419   4.436  12.962  0.1484 -0.2676  0.6182
10761TIP3    H153774   1.511   4.431  12.989  0.8628 -0.9941 -1.6834
10761TIP3    H253775   1.397   4.345  12.940 -0.9345  0.0093  0.5369
10762TIP3   OH253776   3.298   0.318  16.707 -0.7095  0.7670  0.1894
10762TIP3    H153777   3.276   0.329  16.615 -2.2738 -1.0674  0.2875
10762TIP3    H253778   3.383   0.275  16.707 -1.0475  0.0937 -0.4139
10763TIP3   OH253779   2.233   6.187   6.791 -0.0675 -0.1563  0.5642
10763TIP3    H153780   2.184   6.125   6.846 -0.8650 -1.3529 -1.3845
10763TIP3    H253781   2.166   6.232   6.741  0.6413  0.9885  0.6119
10764TIP3   OH253782   5.069   0.092   5.849  0.4707  0.4638 -0.5155
10764TIP3    H153783   5.016   0.013   5.846  0.2276  0.4730  1.6840
10764TIP3    H253784   5.036   0.146   5.777  0.5324 -1.3268 -1.9540
10765TIP3   OH253785   0.879   5.168   6.157  0.0933  0.5435  0.2482
10765TIP3    H153786   0.808   5.120   6.113 -0.9940  0.3074  2.1190
10765TIP3    H253787   0.850   5.259   6.156 -0.5089  0.3909  1.3960
10766TIP3   OH253788   1.912   5.042  12.484  0.2091 -1.0418  0.4200
10766TIP3    H153789   1.937   5.011  12.397  0.7273 -2.8547  1.1784
10766TIP3    H253790   1.855   4.973  12.519 -0.8736  0.1559  1.1274
10767TIP3   OH253791   3.782   2.436   1.031  0.2281  0.8793  0.1057
10767TIP3    H153792   3.815   2.366   0.974  2.0343 -0.3674  2.5168
10767TIP3    H253793   3.849   2.504   1.026 -0.8816  1.9491 -1.1842
10768TIP3   OH253794   4.053   5.801   3.496  0.2311 -0.1372  0.3614
10768TIP3    H153795   4.041   5.707   3.483  1.6276 -0.2757 -0.1033
10768TIP3    H253796   4.142   5.809   3.531  1.0128  1.1480 -1.7360
10769TIP3   OH253797   2.003   5.589  16.045  0.4009 -0.0319  0.2398
10769TIP3    H153798   2.084   5.570  15.998 -0.5621 -2.6605 -0.5481
10769TIP3    H253799   2.026   5.577  16.138  0.9117 -0.8284  0.0209
10770TIP3   OH253800   0.589   0.924   5.957  0.5518 -0.1495  0.1909
10770TIP3    H153801   0.591   0.944   5.863 -0.3527  0.5782  0.3062
10770TIP3    H253802   0.562   1.006   5.998  1.3271 -0.3535  1.1357
10771TIP3   OH253803   0.014   4.651   3.339 -0.1496  0.2601 -0.0073
10771TIP3    H153804   0.017   4.600   3.420  0.3958  1.1605  0.5645
10771TIP3    H253805   0.104   4.648   3.306 -0.4617 -0.4452 -0.8048
10772TIP3   OH253806   4.865   0.305   6.122  0.2148  0.0945 -0.2265
10772TIP3    H153807   4.956   0.284   6.102  0.0844 -1.6670  0.8351
10772TIP3    H253808   4.870   0.370   6.192  0.6700 -0.7894  0.5763
10773TIP3   OH253809   5.457   6.748  14.090 -0.2625  0.0964 -0.3556
10773TIP3    H153810   5.436   6.733  14.183 -2.2928  0.4384 -0.7197
10773TIP3    H253811   5.376   6.731  14.044  0.6030  0.3688 -2.0551
10774TIP3   OH253812   4.231   4.768  13.598  0.5245 -0.1853 -1.0903
10774TIP3    H153813   4.278   4.685  13.613 -0.0762 -0.6547 -1.7465
10774TIP3    H253814   4.139   4.746  13.613  0.5002  0.7604  0.3083
10775TIP3   OH253815   2.024   3.056  14.571 -0.8973  0.1134 -0.3066
10775TIP3    H153816   2.112   3.075  14.604 -0.6133 -0.4524 -0.7316
10775TIP3    H253817   1.965   3.083  14.642 -0.3848  0.5060 -0.0270
10776TIP3   OH253818   0.867   0.758   2.626  0.0140 -0.2810  0.2983
10776TIP3    H153819   0.892   0.845   2.596  0.6201 -0.2529  0.8705
10776TIP3    H253820   0.774   0.750   2.603  0.3107 -0.0549 -1.0605
10777TIP3   OH253821   0.083   4.688  16.406  0.4608  0.3117 -0.1657
10777TIP3    H153822   0.046   4.742  16.336  0.7165  0.2323 -0.3612
10777TIP3    H253823   0.156   4.740  16.440  1.2692 -0.2860 -0.9437
10778TIP3   OH253824   0.143   2.660   3.932  0.4182  0.4842  0.0073
10778TIP3    H153825   0.237   2.652   3.948  0.2486  2.1980  2.4261
10778TIP3    H253826   0.102   2.599   3.994 -0.1017 -0.0607 -0.8471
10779TIP3   OH253827   1.613   4.013  11.042  0.0297 -0.6758  0.3386
10779TIP3    H153828   1.544   4.036  10.979  1.1656  0.0907 -0.6743
10779TIP3    H253829   1.689   3.992  10.987  0.5053 -1.8856  1.4206
10780TIP3   OH253830   2.427   2.317   3.192  0.1648  0.2118 -0.0910
10780TIP3    H153831   2.393   2.352   3.275  0.2187  1.6959 -0.6715
10780TIP3    H253832   2.426   2.222   3.205  2.1241  0.4104  2.4090
10781TIP3   OH253833   5.232   1.325  16.265 -0.2845 -0.2467  0.6438
10781TIP3    H153834   5.314   1.305  16.219 -0.1745  2.8411 -0.7315
10781TIP3    H253835   5.164   1.309  16.201 -0.9640 -3.3741  1.9637
10782TIP3   OH253836   2.417   5.054   0.038 -0.0422 -0.2120 -0.1238
10782TIP3    H153837   2.408   4.973   0.088 -1.3388 -0.5555 -0.8597
10782TIP3    H253838   2.332   5.097   0.046  1.0033  1.7458  1.3087
10783TIP3   OH253839   2.934   1.701  14.591  0.6008  0.4667 -0.2216
10783TIP3    H153840   3.006   1.653  14.551 -0.3470  0.7137 -2.3715
10783TIP3    H253841   2.964   1.792  14.594  0.5344  0.5127 -0.7885
10784TIP3   OH253842   6.324   1.092   3.989  0.3839  0.5182  0.3156
10784TIP3    H153843   6.359   1.118   4.075  0.9174  1.6610 -0.2255
10784TIP3    H253844   6.402   1.076   3.936  0.0596  0.5123 -0.1601
10785TIP3   OH253845   1.697   5.781  13.895  0.4999  0.1147  0.1449
10785TIP3    H153846   1.617   5.819  13.858  0.5083 -0.5605 -0.6185
10785TIP3    H253847   1.695   5.803  13.988 -1.1951 -0.9080  0.3895
10786TIP3   OH253848   4.551   3.340   4.203  0.1739 -0.2346 -0.1053
10786TIP3    H153849   4.532   3.247   4.215 -0.3530 -0.3807 -1.9135
10786TIP3    H253850   4.545   3.376   4.292 -1.0911 -1.6328  0.4262
10787TIP3   OH253851   5.556   2.508  17.405 -0.4440  0.2470 -0.2303
10787TIP3    H153852   5.505   2.427  17.412  0.7035 -0.5072 -0.3138
10787TIP3    H253853   5.563   2.538  17.496  0.0798 -0.3765 -0.0507
10788TIP3   OH253854   6.583   0.891  16.247  0.2152  0.5670  0.2063
10788TIP3    H153855   6.652   0.839  16.287  1.4139  2.2888  0.5222
10788TIP3    H253856   6.607   0.982  16.267 -1.5931  1.2713 -0.5775
10789TIP3   OH253857   0.761   0.724   6.057 -0.3975 -0.1496  0.0135
10789TIP3    H153858   0.758   0.711   6.151 -0.5459 -0.8990 -0.0941
10789TIP3    H253859   0.719   0.809   6.043  0.4037  0.3744  0.6949
10790TIP3   OH253860   0.534   2.892  11.495  0.4856 -0.0815 -0.0928
10790TIP3    H153861   0.514   2.982  11.519  0.2154  0.2298 -1.4323
10790TIP3    H253862   0.603   2.899  11.429 -0.1069 -0.7974 -0.8078
10791TIP3   OH253863   4.436   5.792   6.543  0.1663  0.7568  0.1003
10791TIP3    H153864   4.424   5.855   6.472 -2.8441  0.6288  0.3348
10791TIP3    H253865   4.416   5.841   6.622 -2.8131 -0.4735  0.2375
10792TIP3   OH253866   3.298   3.864   2.330  0.6259  0.8873  0.0745
10792TIP3    H153867   3.377   3.826   2.292  0.7811 -0.5124  1.6542
10792TIP3    H253868   3.231   3.851   2.263  0.9673 -1.1934  0.0460
10793TIP3   OH253869   2.860   1.853  12.439  0.1577 -0.0487  0.1814
10793TIP3    H153870   2.911   1.773  12.450 -1.6034 -1.2229  0.2458
10793TIP3    H253871   2.778   1.824  12.399 -0.0638  1.9034 -0.9170
10794TIP3   OH253872   5.912   5.628  13.874  0.1303 -0.7880  0.1979
10794TIP3    H153873   6.004   5.638  13.899 -0.3166  1.0851  1.3020
10794TIP3    H253874   5.877   5.569  13.940 -0.0869  0.8677  1.6493
10795TIP3   OH253875   5.047   0.054  14.613  0.1446 -0.2325 -0.1302
10795TIP3    H153876   5.023   0.131  14.665  1.9967  0.3795 -0.1003
10795TIP3    H253877   4.992   0.060  14.535 -0.1117  0.8347  0.1079
10796TIP3   OH253878   4.162   3.358   0.658 -0.0655  0.5774 -0.2700
10796TIP3    H153879   4.159   3.403   0.743  0.0341  0.9286 -0.4521
10796TIP3    H253880   4.237   3.298   0.666 -1.0010 -0.5576  0.4590
10797TIP3   OH253881   4.938   2.006   1.283  0.0976 -0.6273  0.0095
10797TIP3    H153882   4.973   2.091   1.255  0.0590 -0.6980 -0.2508
10797TIP3    H253883   5.015   1.960   1.319  0.0687 -0.3852  0.3934
10798TIP3   OH253884   5.865   4.111  17.119 -0.6691  0.2363  0.1382
10798TIP3    H153885   5.795   4.099  17.182  1.4832  0.7282  2.8007
10798TIP3    H253886   5.886   4.022  17.090  0.7639 -0.5412  3.1242
10799TIP3   OH253887   2.522   5.941  16.324 -0.0085 -0.1928 -0.2194
10799TIP3    H153888   2.506   6.028  16.288  0.8872 -0.4516 -1.2854
10799TIP3    H253889   2.581   5.899  16.261 -0.4074 -1.5625  0.2780
10800TIP3   OH253890   1.713   6.550   1.704 -0.2344 -0.2736 -0.4051
10800TIP3    H153891   1.716   6.498   1.785  0.5643 -0.2530 -0.4168
10800TIP3    H253892   1.634   6.603   1.713  0.3307  0.4085  0.7853
10801TIP3   OH253893   0.142   0.732   5.553  0.2095 -0.3887 -0.4241
10801TIP3    H153894   0.173   0.683   5.477  0.2962 -1.1963  0.1164
10801TIP3    H253895   0.222   0.770   5.590  0.2081 -0.2513 -0.5627
10802TIP3   OH253896   6.364   5.549  15.027 -0.3366  0.9766 -0.4564
10802TIP3    H153897   6.321   5.463  15.031  0.8812  0.3448 -0.2640
10802TIP3    H253898   6.304   5.608  15.072 -0.9076  0.0835 -0.0134
10803TIP3   OH253899   4.565   1.727  15.023 -0.2077  0.4184 -0.2026
10803TIP3    H153900   4.656   1.738  14.998 -0.5823 -2.0014 -3.2921
10803TIP3    H253901   4.517   1.785  14.964 -0.7479  1.4435  1.1901
10804TIP3   OH253902   5.164   0.943  15.644  0.1406 -0.7686 -0.5903
10804TIP3    H153903   5.090   0.912  15.592  0.3391 -1.6766 -0.3336
10804TIP3    H253904   5.183   0.872  15.704 -0.2396  0.3360  0.9184
10805TIP3   OH253905   4.604   1.463  17.147 -0.1742 -0.0664 -0.2181
10805TIP3    H153906   4.585   1.544  17.195 -1.2336 -0.6864  0.4349
10805TIP3    H253907   4.579   1.393  17.207 -0.6585 -0.8666 -1.3186
10806TIP3   OH253908   1.928   6.052  12.926  0.1331  0.2266  0.3973
10806TIP3    H153909   1.933   6.106  12.847  0.8991 -0.6124 -0.1354
10806TIP3    H253910   1.931   6.115  12.998 -0.0805  0.9637 -0.2229
10807TIP3   OH253911   4.834   6.739   6.675 -0.4968 -0.4053  0.1447
10807TIP3    H153912   4.879   6.657   6.657 -0.1843  0.0219 -1.1148
10807TIP3    H253913   4.742   6.721   6.655 -0.3041 -0.2262 -0.9541
10808TIP3   OH253914   0.165   3.675  15.014 -0.3969 -0.4959 -0.1927
10808TIP3    H153915   0.120   3.748  14.973 -0.7929 -0.7816 -0.2722
10808TIP3    H253916   0.116   3.658  15.094 -0.0018 -0.3455  0.0848
10809TIP3   OH253917   2.447   4.325   5.987  0.2509  0.5107 -0.5800
10809TIP3    H153918   2.504   4.383   5.936  2.4933 -1.0174  0.0347
10809TIP3    H253919   2.473   4.340   6.078  0.5950 -1.0728 -0.3784
10810TIP3   OH253920   4.010   3.503   1.872  0.3865 -0.2987 -0.2797
10810TIP3    H153921   3.996   3.532   1.963  1.5256  0.8347 -0.4388
10810TIP3    H253922   4.093   3.455   1.875 -0.0195 -1.0280 -0.5714
10811TIP3   OH253923   2.222   0.617  11.826 -0.2945  0.6765 -0.2781
10811TIP3    H153924   2.169   0.673  11.769  0.0116  0.0893 -1.1619
10811TIP3    H253925   2.224   0.663  11.910  1.9005  3.1930 -1.5983
10812TIP3   OH253926   6.121   3.134   5.981  0.0289  0.1052  0.5123
10812TIP3    H153927   6.060   3.200   6.014 -0.2593 -0.4937  1.2083
10812TIP3    H253928   6.066   3.059   5.959  0.4528 -0.2746  0.7125
10813TIP3   OH253929   4.959   1.609  13.103 -0.3403  0.3100  0.2410
10813TIP3    H153930   5.024   1.679  13.093  0.5313 -0.5273 -0.1121
10813TIP3    H253931   4.875   1.653  13.089  0.2509  1.0872 -1.1026
10814TIP3   OH253932   6.745   2.682   4.846 -0.9462  0.2453  0.3423
10814TIP3    H153933   6.810   2.663   4.914 -1.1797 -0.9723  0.2321
10814TIP3    H253934   6.661   2.680   4.892 -0.9577  1.5127  0.4200
10815TIP3   OH253935   0.547   2.134  12.809  0.7002  0.0579  0.1003
10815TIP3    H153936   0.621   2.134  12.749  1.4623  1.0634  1.0137
10815TIP3    H253937   0.540   2.043  12.838  3.6820  0.4419  2.4958
10816TIP3   OH253938   2.052   4.624  16.802  1.1020  0.6461  0.0983
10816TIP3    H153939   2.041   4.562  16.730 -1.6100  0.3040  0.6871
10816TIP3    H253940   2.129   4.676  16.777  1.9717 -1.3025 -1.6085
10817TIP3   OH253941   6.746   2.867  15.989 -0.0262  0.0521 -0.0782
10817TIP3    H153942   6.755   2.774  16.008  0.2716  0.1285  0.1649
10817TIP3    H253943   6.652   2.880  15.973  0.0096 -0.3965 -0.6878
10818TIP3   OH253944   2.511   2.131   6.288  0.3344 -0.0792 -0.1390
10818TIP3    H153945   2.591   2.087   6.316  0.9114 -0.7355 -2.5751
10818TIP3    H253946   2.518   2.219   6.325  0.9244 -0.8902  1.7877
10819TIP3   OH253947   5.138   4.003  13.970  0.7937 -0.1885  0.5311
10819TIP3    H153948   5.162   3.911  13.967 -2.3256 -1.0867 -2.4709
10819TIP3    H253949   5.063   4.007  14.029 -1.3035 -0.3398 -1.9695
10820TIP3   OH253950   6.205   5.072  13.968 -0.1754  0.0800 -0.7497
10820TIP3    H153951   6.237   5.124  14.042 -1.4727 -1.4416  0.9790
10820TIP3    H253952   6.274   5.006  13.954 -0.7248 -0.7637  0.3663
10821TIP3   OH253953   1.512   2.535   0.761  0.1525 -0.6849  0.0298
10821TIP3    H153954   1.429   2.510   0.720 -0.0673 -0.6437  0.4426
10821TIP3    H253955   1.494   2.531   0.855  0.0981  1.0467  0.1190
10822TIP3   OH253956   2.174   3.141  13.079  0.3590  0.0488  0.1064
10822TIP3    H153957   2.119   3.131  13.157  0.7336 -1.0192  0.2636
10822TIP3    H253958   2.115   3.172  13.011 -0.1328  0.2666  0.6275
10823TIP3   OH253959   1.089   1.590  13.570  0.1449 -0.2943  0.2186
10823TIP3    H153960   1.042   1.540  13.637 -0.7772 -1.2529 -1.0680
10823TIP3    H253961   1.036   1.669  13.558  1.0013  0.4933  1.4810
10824TIP3   OH253962   6.015   4.494  11.375  0.4212 -0.2532 -0.0717
10824TIP3    H153963   6.011   4.586  11.402 -1.4795 -0.1909 -0.4404
10824TIP3    H253964   6.014   4.497  11.279 -0.6887 -0.6629 -0.0871
10825TIP3   OH253965   5.763   4.875   0.380 -0.0116  0.1504  0.7794
10825TIP3    H153966   5.808   4.833   0.306 -0.2079 -0.1147  0.8101
10825TIP3    H253967   5.831   4.929   0.422  0.4261 -0.6916  1.1704
10826TIP3   OH253968   0.564   4.357  13.054  0.1960 -0.4947  0.5040
10826TIP3    H153969   0.645   4.395  13.021 -0.8275  1.5970  0.2226
10826TIP3    H253970   0.574   4.263  13.042  2.8497 -0.3576  1.1388
10827TIP3   OH253971   1.112   2.301  12.881 -0.2217 -0.2589  0.5738
10827TIP3    H153972   1.164   2.269  12.955 -0.7139 -2.1137  0.1810
10827TIP3    H253973   1.050   2.362  12.920  0.1529 -0.4674  1.5369
10828TIP3   OH253974   1.664   3.296  16.939  0.4813 -0.6032  0.4249
10828TIP3    H153975   1.635   3.216  16.894  0.1225  0.3880 -1.2054
10828TIP3    H253976   1.756   3.280  16.959  1.1088 -0.5594 -2.0780
10829TIP3   OH253977   0.112   5.855  11.818  0.2914  0.4321  0.2669
10829TIP3    H153978   0.076   5.768  11.802  2.2197 -0.2574 -0.5408
10829TIP3    H253979   0.072   5.910  11.751 -1.8132  0.4974  1.4684
10830TIP3   OH253980   0.545   6.608  15.952  0.6619 -0.0313  0.5177
10830TIP3    H153981   0.544   6.520  15.914 -0.4307  0.4476 -0.6454
10830TIP3    H253982   0.620   6.650  15.911 -2.1572  1.4851 -3.7986
10831TIP3   OH253983   1.366   4.912  11.868 -0.1026 -0.5425 -0.4525
10831TIP3    H153984   1.327   4.836  11.910 -2.3714  0.1123 -1.2610
10831TIP3    H253985   1.461   4.897  11.875 -0.4321 -2.1224  1.7197
10832TIP3   OH253986   3.099   6.594   5.069 -0.2457  0.2868 -0.0520
10832TIP3    H153987   3.121   6.631   4.983  1.3461  2.6785  1.2610
10832TIP3    H253988   3.182   6.565   5.106 -0.9454 -0.9760  0.6135
10833TIP3   OH253989   2.679   4.400   4.061 -0.3989 -0.3147  0.0051
10833TIP3    H153990   2.745   4.337   4.033  0.4050 -0.2243  1.6028
10833TIP3    H253991   2.701   4.419   4.152 -2.3219  0.1305  0.4134
10834TIP3   OH253992   1.800   2.032   3.822 -0.0697 -0.4459 -0.0555
10834TIP3    H153993   1.719   1.984   3.840 -0.1523 -0.5575 -0.6720
10834TIP3    H253994   1.838   2.050   3.908 -0.6310 -0.5981  0.2287
10835TIP3   OH253995   0.186   2.188  15.186 -0.4096 -0.2872 -0.0718
10835TIP3    H153996   0.150   2.112  15.141 -1.1327  1.1342 -2.0355
10835TIP3    H253997   0.218   2.245  15.116  3.7168 -0.4128  1.4214
10836TIP3   OH253998   5.458   1.757   1.579  0.5971  0.0375  0.2077
10836TIP3    H153999   5.398   1.683   1.566  1.0426 -0.6602  1.8322
10836TIP3    H254000   5.542   1.727   1.543  0.0743  0.9621 -1.9402
10837TIP3   OH254001   0.442   1.359  14.714  0.2267 -0.9257  0.1528
10837TIP3    H154002   0.492   1.365  14.796 -0.2482 -0.9527  0.4513
10837TIP3    H254003   0.505   1.330  14.649  0.4041 -1.8911  0.7236
10838TIP3   OH254004   5.757   1.767   2.599 -0.1475 -0.3919 -0.3812
10838TIP3    H154005   5.709   1.688   2.622 -0.3572 -0.6107 -1.5258
10838TIP3    H254006   5.814   1.742   2.527 -0.9788  0.7215 -1.4779
10839TIP3   OH254007   6.587   2.906   6.212  0.6548  0.2978 -0.2123
10839TIP3    H154008   6.527   2.923   6.284  0.4871 -1.5011  0.1185
10839TIP3    H254009   6.535   2.856   6.149  1.6670 -0.9168 -0.1173
10840TIP3   OH254010   4.941   1.075   0.954 -0.6615  0.6498 -0.4142
10840TIP3    H154011   4.981   1.110   0.874  0.7245  2.9532  1.1530
10840TIP3    H254012   4.918   0.985   0.932  2.2321  0.2705 -2.5724
10841TIP3   OH254013   0.087   1.248  16.941  0.3205  0.6613 -0.0979
10841TIP3    H154014   0.016   1.285  16.889 -0.6922  0.9268  1.4027
10841TIP3    H254015   0.122   1.323  16.989 -0.1773  0.1016  1.1831
10842TIP3   OH254016   2.278   4.244   1.826 -0.1597  0.2415 -0.1824
10842TIP3    H154017   2.228   4.188   1.886  0.3219 -0.9804 -0.8890
10842TIP3    H254018   2.319   4.309   1.883 -0.2258 -0.5011  0.7448
10843TIP3   OH254019   4.184   4.779  15.060 -0.3236 -0.0629  0.0868
10843TIP3    H154020   4.146   4.865  15.078 -1.4418 -0.8811  1.8199
10843TIP3    H254021   4.208   4.745  15.146  0.2827 -1.4202 -0.5939
10844TIP3   OH254022   1.504   5.739   3.938  0.4192 -0.2885  0.4813
10844TIP3    H154023   1.477   5.652   3.969 -0.9511  0.1902  0.7032
10844TIP3    H254024   1.576   5.721   3.877 -0.2126 -1.6387  0.0774
10845TIP3   OH254025   4.629   4.419  15.697  0.5305 -0.3027  0.2556
10845TIP3    H154026   4.628   4.480  15.624 -1.2598  0.7377  1.0889
10845TIP3    H254027   4.580   4.343  15.666  2.5671 -1.2837 -0.7053
10846TIP3   OH254028   5.605   4.644   2.732 -0.0507  0.1534 -0.3277
10846TIP3    H154029   5.528   4.596   2.761 -1.7777  3.4808  1.1202
10846TIP3    H254030   5.646   4.675   2.812  2.3822 -0.7988 -1.1145
10847TIP3   OH254031   2.053   3.186  13.665  0.0270  0.0317  0.6205
10847TIP3    H154032   1.992   3.159  13.597  0.5435  3.0969 -1.2641
10847TIP3    H254033   2.130   3.131  13.651 -0.9169 -1.3346  0.6346
10848TIP3   OH254034   2.292   4.550  15.458  0.2341 -0.2884 -0.2936
10848TIP3    H154035   2.229   4.575  15.527  0.0182 -1.2539 -0.1219
10848TIP3    H254036   2.237   4.522  15.385  0.4652  0.1526 -0.6347
10849TIP3   OH254037   5.481   2.065  14.183 -0.2406  0.0029 -0.2203
10849TIP3    H154038   5.558   2.051  14.127  0.0705  0.6929  0.0247
10849TIP3    H254039   5.453   1.977  14.208  1.8087 -0.2437  1.4731
10850TIP3   OH254040   3.832   3.550  11.936  0.0445  0.3442  0.1391
10850TIP3    H154041   3.780   3.485  11.983 -0.6458  1.9072  1.6190
10850TIP3    H254042   3.788   3.558  11.851  0.0932 -1.0238 -0.0375
10851TIP3   OH254043   2.752   6.086   5.459 -0.6681  0.1843  0.5099
10851TIP3    H154044   2.805   6.163   5.437 -1.8461  1.4072  1.7870
10851TIP3    H254045   2.816   6.015   5.465  0.6650  1.3625  0.8094
10852TIP3   OH254046   5.554   5.419  11.414  1.0410 -0.2637  0.4666
10852TIP3    H154047   5.591   5.333  11.394  1.4136  0.0302 -0.1268
10852TIP3    H254048   5.542   5.461  11.329 -0.5581 -0.2977  0.6333
10853TIP3   OH254049   2.307   6.040  12.537 -0.4093 -0.0891  0.0214
10853TIP3    H154050   2.225   6.027  12.585 -0.1294  1.3419  0.9468
10853TIP3    H254051   2.365   5.971  12.569 -0.6277  0.0921  0.8215
10854TIP3   OH254052   3.748   6.206   4.408 -0.1920 -0.9293  0.6031
10854TIP3    H154053   3.771   6.177   4.320  2.0288  0.1983  0.7615
10854TIP3    H254054   3.688   6.138   4.440  1.2596 -2.9385 -0.6778
10855TIP3   OH254055   2.248   0.640   3.902  0.2302  0.0274  0.1810
10855TIP3    H154056   2.277   0.548   3.896 -0.5581 -0.1540 -1.6096
10855TIP3    H254057   2.296   0.675   3.977 -2.0440 -2.7631  3.2218
10856TIP3   OH254058   2.266   6.398   1.469  0.3337  0.0751  0.0740
10856TIP3    H154059   2.294   6.428   1.382 -0.1283 -0.0988 -0.1415
10856TIP3    H254060   2.343   6.353   1.504  0.3324 -0.4076 -0.5136
10857TIP3   OH254061   0.480   1.546   5.045 -0.0407  0.1828 -0.3482
10857TIP3    H154062   0.425   1.527   4.968  1.6821  1.4499 -1.9704
10857TIP3    H254063   0.520   1.462   5.066 -0.9867 -0.3098 -0.4293
10858TIP3   OH254064   1.734   1.406   4.661 -0.5948 -0.2634  0.0577
10858TIP3    H154065   1.751   1.474   4.726 -0.4303 -1.5743  1.4537
10858TIP3    H254066   1.786   1.432   4.585  0.1425  0.7225  0.8630
10859TIP3   OH254067   0.183   2.291  14.613  0.4931 -0.4753 -0.1735
10859TIP3    H154068   0.198   2.375  14.656 -1.3666  0.1959 -0.7562
10859TIP3    H254069   0.111   2.251  14.663  1.2910 -1.6943  0.0438
10860TIP3   OH254070   3.299   5.620  13.507 -0.1721  0.0522 -0.4095
10860TIP3    H154071   3.233   5.689  13.500  1.2016  1.4997  0.4967
10860TIP3    H254072   3.294   5.591  13.598 -0.4101 -0.7614 -0.6630
10861TIP3   OH254073   3.105   1.621  12.511 -0.0937  0.0470 -0.1753
10861TIP3    H154074   3.121   1.561  12.438  1.0306  1.8403 -1.5065
10861TIP3    H254075   3.062   1.567  12.578  0.1757 -2.0214 -1.5667
10862TIP3   OH254076   0.998   3.555  17.375  0.0767 -0.1791  0.4934
10862TIP3    H154077   1.040   3.474  17.402 -1.5483 -0.6017  1.9479
10862TIP3    H254078   0.904   3.535  17.376 -0.5312  2.2413  3.0318
10863TIP3   OH254079   1.089   0.940  12.571  0.1539 -0.2468 -0.0009
10863TIP3    H154080   1.156   0.873  12.584  1.5251  0.3487 -2.9109
10863TIP3    H254081   1.137   1.023  12.580 -0.4544  0.2179 -0.8103
10864TIP3   OH254082   1.292   1.692   4.106  0.2794  0.4698  0.0017
10864TIP3    H154083   1.321   1.703   4.196  0.9035  0.0329 -0.1364
10864TIP3    H254084   1.360   1.733   4.053  0.8855 -0.9378 -0.3482
10865TIP3   OH254085   3.339   6.260   4.084 -0.1147  0.5989  0.4715
10865TIP3    H154086   3.292   6.220   4.156 -1.2212 -0.4733 -0.7947
10865TIP3    H254087   3.274   6.316   4.041 -0.2865 -0.8114 -1.2339
10866TIP3   OH254088   3.948   1.260   2.007  0.0800  0.1469 -0.2218
10866TIP3    H154089   3.895   1.223   2.078 -0.0572 -0.8355 -0.8188
10866TIP3    H254090   3.932   1.354   2.012  2.3684  0.5444  2.9383
10867TIP3   OH254091   1.596   1.849   3.941  0.0206 -0.0081 -0.3137
10867TIP3    H154092   1.577   1.772   3.888 -0.9549 -0.1126  0.1644
10867TIP3    H254093   1.512   1.895   3.947  0.6353  1.2076 -0.7669
10868TIP3   OH254094   3.347   3.134  15.803  0.2247 -0.6098  0.1981
10868TIP3    H154095   3.349   3.062  15.866 -0.2242 -0.3024  0.5687
10868TIP3    H254096   3.329   3.092  15.719 -2.5568 -0.7319  0.7491
10869TIP3   OH254097   1.960   5.652   0.127  0.6641  0.4090  0.3852
10869TIP3    H154098   1.951   5.747   0.136  0.3599  0.3251  1.0775
10869TIP3    H254099   1.881   5.625   0.080  1.1920  0.5996 -0.6256
10870TIP3   OH254100   5.251   2.564  16.214 -0.1549 -0.1099 -0.4440
10870TIP3    H154101   5.256   2.478  16.255 -0.6171 -0.6403 -1.4499
10870TIP3    H254102   5.160   2.571  16.186  0.4395 -0.4515 -2.7100
10871TIP3   OH254103   1.925   4.077   0.117  0.8650  0.4422  0.2447
10871TIP3    H154104   1.862   4.033   0.061  0.8625 -1.0664  1.3508
10871TIP3    H254105   1.881   4.156   0.146 -0.8245 -0.8754  1.4910
10872TIP3   OH254106   0.997   4.213  13.099 -0.4144 -0.3509  0.0584
10872TIP3    H154107   1.078   4.163  13.110 -0.1723  0.0890  0.3219
10872TIP3    H254108   0.934   4.150  13.065  0.0345 -0.7033 -0.1258
10873TIP3   OH254109   4.310   1.859  16.420 -0.2280  0.7436  0.0938
10873TIP3    H154110   4.269   1.799  16.358 -0.8854  1.4156 -0.1405
10873TIP3    H254111   4.323   1.940  16.370  1.5389  0.5084  0.1161
10874TIP3   OH254112   2.291   3.906  12.097 -0.0724 -0.0394 -0.0310
10874TIP3    H154113   2.306   3.834  12.035 -0.1468  0.1064 -0.2165
10874TIP3    H254114   2.355   3.972  12.072  1.4323 -0.8673  1.4348
10875TIP3   OH254115   6.762   2.002   1.684 -0.0112  0.5308  0.1687
10875TIP3    H154116   6.825   2.070   1.709 -0.3055  0.5709  0.8189
10875TIP3    H254117   6.810   1.920   1.692 -0.2236  0.5048  1.3172
10876TIP3   OH254118   6.732   3.678   2.422 -0.1796 -0.4489 -0.1194
10876TIP3    H154119   6.770   3.729   2.494  0.0425 -0.3349 -0.3154
10876TIP3    H254120   6.639   3.699   2.424 -0.4314 -1.5540  1.0494
10877TIP3   OH254121   4.784   1.191  13.199 -0.0795  0.5251 -0.0305
10877TIP3    H154122   4.811   1.252  13.267  1.0848 -0.6808  0.6482
10877TIP3    H254123   4.718   1.136  13.240  1.0875 -0.6215  0.3772
10878TIP3   OH254124   5.579   2.704  11.006  0.1960  0.1254  0.1348
10878TIP3    H154125   5.498   2.755  11.003  0.5856  0.7275 -0.5543
10878TIP3    H254126   5.552   2.617  11.035 -0.4881  0.7040  1.2655
10879TIP3   OH254127   3.870   1.987   4.200  0.2184  0.2416 -0.1309
10879TIP3    H154128   3.922   1.924   4.150  0.2518  0.5655 -0.5132
10879TIP3    H254129   3.786   1.990   4.155  0.0192  0.0377  0.2313
10880TIP3   OH254130   2.248   2.913   5.650 -0.1946 -0.3017 -0.0473
10880TIP3    H154131   2.171   2.931   5.596 -2.0948  0.7809  2.7865
10880TIP3    H254132   2.238   2.821   5.676 -0.4096 -0.2298  0.1267
10881TIP3   OH254133   2.274   2.686   0.174  0.2219  0.0999  0.0521
10881TIP3    H154134   2.225   2.623   0.121 -1.3364  2.1174 -1.1017
10881TIP3    H254135   2.278   2.765   0.119  1.6011  1.1791  1.6102
10882TIP3   OH254136   0.659   4.588  12.307 -0.0294 -0.6184 -0.1668
10882TIP3    H154137   0.737   4.634  12.337 -0.7202 -0.9359  2.3406
10882TIP3    H254138   0.602   4.656  12.273  0.6486 -0.1782 -0.4474
10883TIP3   OH254139   0.975   2.366   4.286 -0.1009 -0.3234  0.2372
10883TIP3    H154140   0.934   2.418   4.216  2.4583  0.3838 -0.8686
10883TIP3    H254141   1.035   2.428   4.329 -0.0626 -1.3188  1.6668
10884TIP3   OH254142   4.056   2.492  16.484 -0.1534 -0.3253  0.0955
10884TIP3    H154143   4.117   2.418  16.480 -0.5829 -0.6424 -1.2079
10884TIP3    H254144   4.027   2.504  16.393 -2.9370 -0.9655  0.7994
10885TIP3   OH254145   2.302   2.856  11.754  0.2598 -0.5919  0.0309
10885TIP3    H154146   2.234   2.792  11.774 -0.1780 -0.8737 -2.1433
10885TIP3    H254147   2.357   2.812  11.689  0.3774  0.9606 -0.9607
10886TIP3   OH254148   3.230   2.873  15.866  0.4989 -0.4616 -0.0607
10886TIP3    H154149   3.249   2.889  15.774  1.7582  0.0455  0.2559
10886TIP3    H254150   3.146   2.827  15.866 -0.1803  0.6981 -1.3726
10887TIP3   OH254151   1.537   4.860   4.141 -0.4337 -0.2237  0.3236
10887TIP3    H154152   1.608   4.894   4.197 -0.2121  0.9321 -0.6297
10887TIP3    H254153   1.583   4.825   4.064 -0.8895  0.3585 -0.2125
10888TIP3   OH254154   6.181   2.246  14.839 -0.1544 -0.3416  0.3488
10888TIP3    H154155   6.192   2.335  14.805  1.0075  0.1690  1.9317
10888TIP3    H254156   6.243   2.193  14.788 -0.6058 -0.1894 -0.3699
10889TIP3   OH254157   3.020   3.269   5.393 -0.0804  0.4331  0.1908
10889TIP3    H154158   3.054   3.181   5.377 -0.1477  0.3825  0.3251
10889TIP3    H254159   3.091   3.313   5.441 -0.8388 -0.2020  1.9920
10890TIP3   OH254160   3.518   5.531   0.217  0.1224 -0.3203 -0.0026
10890TIP3    H154161   3.573   5.457   0.192 -0.2825 -0.9151  0.8061
10890TIP3    H254162   3.497   5.516   0.309  0.6464  1.2109  0.3942
10891TIP3   OH254163   0.905   3.867   5.523  0.0910  0.1396 -0.2897
10891TIP3    H154164   0.890   3.961   5.533  1.2347  0.3659 -0.5953
10891TIP3    H254165   0.954   3.859   5.442 -0.4718 -0.7801 -0.5529
10892TIP3   OH254166   6.028   2.094   5.794  0.2834  0.0125  0.2025
10892TIP3    H154167   6.025   1.999   5.804 -1.4646 -0.0952 -0.9319
10892TIP3    H254168   6.121   2.115   5.790  0.7041 -1.5797  1.0044
10893TIP3   OH254169   6.622   4.929   1.314 -0.4286 -0.3686  0.1531
10893TIP3    H154170   6.585   4.891   1.235  1.5287  0.1248 -1.0805
10893TIP3    H254171   6.713   4.950   1.291  0.7942 -1.8103  3.0625
10894TIP3   OH254172   3.367   2.567   5.445  0.0649 -0.7008 -0.1782
10894TIP3    H154173   3.397   2.649   5.405 -1.6466 -1.3577 -3.0992
10894TIP3    H254174   3.425   2.500   5.409  0.2724 -1.0033  0.7091
10895TIP3   OH254175   6.134   2.905  10.427 -0.0252 -0.1283 -0.0030
10895TIP3    H154176   6.046   2.894  10.392 -1.0721  0.7814  2.2059
10895TIP3    H254177   6.163   2.989  10.393  0.3505 -0.7695 -1.3530
10896TIP3   OH254178   1.091   6.599   5.126 -0.0759 -0.0553  0.2323
10896TIP3    H154179   1.012   6.589   5.179 -0.8651  1.0159 -0.7301
10896TIP3    H254180   1.161   6.564   5.182 -1.0155  0.2315  1.6280
10897TIP3   OH254181   2.810   6.326   1.668  0.1456 -0.6493 -0.6307
10897TIP3    H154182   2.841   6.415   1.683 -0.6918 -0.2386 -1.2373
10897TIP3    H254183   2.803   6.287   1.755  0.5566 -0.1367 -0.3674
10898TIP3   OH254184   6.745   5.943   0.581 -0.7990  0.5920 -0.6086
10898TIP3    H154185   6.815   5.962   0.643 -0.6865 -0.8921 -0.2436
10898TIP3    H254186   6.679   5.895   0.632  0.4020 -2.9257 -2.0476
10899TIP3   OH254187   0.356   4.658  17.050 -0.2434 -0.5102  0.3060
10899TIP3    H154188   0.414   4.640  16.976  0.3281 -0.8964  0.8364
10899TIP3    H254189   0.268   4.656  17.012  0.0584 -0.3353 -0.4276
10900TIP3   OH254190   5.397   0.295   0.648 -0.2806 -0.3745 -0.0771
10900TIP3    H154191   5.335   0.365   0.631 -1.1769 -0.5517  2.1574
10900TIP3    H254192   5.367   0.222   0.594  0.1705  0.6198 -1.7686
10901TIP3   OH254193   1.281   3.960   6.844  0.1796 -0.4710  0.2006
10901TIP3    H154194   1.210   3.964   6.780 -2.0878  2.7495  2.5283
10901TIP3    H254195   1.356   4.000   6.800  0.3603 -3.0066 -1.9908
10902TIP3   OH254196   5.657   3.409   1.740 -0.3265  0.0774 -0.2818
10902TIP3    H154197   5.600   3.391   1.815  0.0448 -0.8150 -0.2008
10902TIP3    H254198   5.710   3.484   1.768 -0.6869  0.2069  0.0698
10903TIP3   OH254199   4.221   4.936  13.248 -0.5276  0.0521 -0.2334
10903TIP3    H154200   4.175   4.854  13.269 -1.9858  1.0612  0.7121
10903TIP3    H254201   4.238   4.931  13.154 -1.9704 -0.6877 -0.4850
10904TIP3   OH254202   3.415   4.967  10.882  0.5838  0.2948  0.1381
10904TIP3    H154203   3.506   4.961  10.855  0.4433 -2.0898 -0.0448
10904TIP3    H254204   3.366   4.978  10.801  0.6575  0.7691  0.1591
10905TIP3   OH254205   5.489   0.000  14.799 -0.1737  0.2309 -0.4912
10905TIP3    H154206   5.451  -0.084  14.776 -0.0249 -0.3301  1.1890
10905TIP3    H254207   5.442   0.064  14.744  0.9814 -1.0507 -3.1775
10906TIP3   OH254208   5.874   0.375  16.590 -0.0465  0.3564  1.0224
10906TIP3    H154209   5.904   0.455  16.548 -1.2259  0.7326  0.8667
10906TIP3    H254210   5.944   0.311  16.572  0.9139  1.3376  1.1706
10907TIP3   OH254211   0.826   3.666   1.104 -0.3172  0.2748  0.5058
10907TIP3    H154212   0.834   3.674   1.199  0.1159  0.7305  0.4337
10907TIP3    H254213   0.838   3.756   1.071  0.8847 -0.0834 -0.0752
10908TIP3   OH254214   6.688   3.600  11.353  0.8625  0.4832 -0.1848
10908TIP3    H154215   6.679   3.508  11.379  0.4470 -0.2280 -2.5944
10908TIP3    H254216   6.633   3.608  11.275  0.6333  2.8910  0.1479
10909TIP3   OH254217   2.735   4.212  15.918 -1.2179  0.2376 -0.1516
10909TIP3    H154218   2.769   4.195  15.830  0.9713  0.9563  0.5014
10909TIP3    H254219   2.716   4.126  15.954 -0.3506 -0.1794 -0.6716
10910TIP3   OH254220   3.417   1.339   5.095  0.1277 -0.2169 -0.2355
10910TIP3    H154221   3.464   1.361   5.176 -0.0287 -0.4995 -0.0677
10910TIP3    H254222   3.482   1.296   5.040  0.7833  1.6888 -1.0558
10911TIP3   OH254223   5.188   4.784   5.323  0.2474  0.5727  0.1893
10911TIP3    H154224   5.158   4.802   5.413 -0.2116  1.9349 -0.1987
10911TIP3    H254225   5.215   4.870   5.290  0.1550  0.1359 -1.0676
10912TIP3   OH254226   6.532   1.911  14.351  0.2862  0.0067  0.1770
10912TIP3    H154227   6.541   1.855  14.428  1.7832  1.2792  0.9793
10912TIP3    H254228   6.442   1.897  14.322  0.0578 -1.4188  1.4116
10913TIP3   OH254229   6.380   4.254   2.983 -0.2756 -0.2977  0.0684
10913TIP3    H154230   6.370   4.235   3.077 -2.4628  0.6416  0.0896
10913TIP3    H254231   6.303   4.306   2.961 -1.3271 -2.8260 -2.8864
10914TIP3   OH254232   1.893   4.744  11.067  0.0223  0.3467 -0.2604
10914TIP3    H154233   1.927   4.772  10.982  2.6653  0.9332  0.9162
10914TIP3    H254234   1.801   4.773  11.066 -0.0339  0.3223 -2.8819
10915TIP3   OH254235   0.440   4.043  15.110 -0.1896 -0.1077 -0.6094
10915TIP3    H154236   0.364   4.086  15.070 -1.5670  0.0800  2.0191
10915TIP3    H254237   0.499   4.115  15.131 -1.3099  0.3217  1.3387
10916TIP3   OH254238   1.106   5.846  12.024  0.2603  0.1623  0.6175
10916TIP3    H154239   1.182   5.799  12.058 -0.1368 -0.6957  0.3269
10916TIP3    H254240   1.143   5.911  11.964  0.7034 -1.0692 -0.4812
10917TIP3   OH254241   1.213   4.204  15.298  0.4848  0.0257  0.2743
10917TIP3    H154242   1.272   4.277  15.280  0.6032 -0.3052 -0.7887
10917TIP3    H254243   1.264   4.126  15.274  0.1936 -0.3739  0.9312
10918TIP3   OH254244   0.554   0.541   2.803 -0.1359 -0.0904  0.2234
10918TIP3    H154245   0.531   0.632   2.822  2.0968  0.2504  1.7280
10918TIP3    H254246   0.637   0.527   2.849  1.2092 -1.9656 -2.4833
10919TIP3   OH254247   0.176   3.698   0.493  0.3125  0.4590  0.0495
10919TIP3    H154248   0.084   3.701   0.519  0.3758 -0.6455  0.4492
10919TIP3    H254249   0.218   3.768   0.544  0.0685 -0.3816  1.4594
10920TIP3   OH254250   4.983   5.849  17.034 -0.6882 -0.3183 -0.5641
10920TIP3    H154251   4.952   5.797  17.108 -1.0421  0.7385  0.0507
10920TIP3    H254252   4.989   5.939  17.067 -0.1620  0.0641 -1.6145
10921TIP3   OH254253   2.363   1.767  17.218  0.1339 -0.1673  0.4957
10921TIP3    H154254   2.272   1.744  17.235  0.2586  0.3459  2.0560
10921TIP3    H254255   2.361   1.861  17.200  0.3432 -0.1875  0.3591
10922TIP3   OH254256   0.355   0.569  13.221  0.2964  0.3087  0.4181
10922TIP3    H154257   0.388   0.633  13.158 -0.8663 -0.6908 -1.2878
10922TIP3    H254258   0.275   0.609  13.256 -0.2117 -0.0057 -0.3503
10923TIP3   OH254259   1.999   0.175   1.415  0.3099 -0.4834 -0.9568
10923TIP3    H154260   1.960   0.242   1.470 -1.6349 -2.5517  0.3700
10923TIP3    H254261   1.971   0.197   1.326 -1.0407 -0.0060 -0.4369
10924TIP3   OH254262   5.608   3.885  16.111 -0.0491  0.0172  0.7123
10924TIP3    H154263   5.581   3.794  16.102 -1.4197  0.3473  1.2090
10924TIP3    H254264   5.666   3.900  16.036 -1.0197 -0.8386 -0.2521
10925TIP3   OH254265   6.740   3.120   4.267 -0.1878  0.0408 -0.5199
10925TIP3    H154266   6.645   3.131   4.269 -0.2795 -0.4599 -1.6134
10925TIP3    H254267   6.754   3.046   4.209  0.8755  0.0879 -0.3345
10926TIP3   OH254268   5.924   4.797  13.559  0.0322 -0.2398 -0.4506
10926TIP3    H154269   5.958   4.792  13.470 -0.5987  1.3556 -0.8279
10926TIP3    H254270   5.844   4.849  13.551  1.5742  2.7088  1.4197
10927TIP3   OH254271   5.472   0.486   5.864  0.3305 -0.1373  0.2201
10927TIP3    H154272   5.473   0.569   5.815 -0.3517  0.3037  0.9180
10927TIP3    H254273   5.386   0.448   5.846  0.8358 -0.9493 -0.4989
10928TIP3   OH254274   6.752   3.174   2.492 -0.0412  0.0717 -0.0695
10928TIP3    H154275   6.695   3.247   2.467 -0.8765 -0.4191  0.3375
10928TIP3    H254276   6.804   3.208   2.565 -0.9015  0.0732  0.5647
10929TIP3   OH254277   4.937   0.739   3.337 -0.2053  0.9247  0.7284
10929TIP3    H154278   4.943   0.718   3.431 -2.1421 -0.3569  0.6217
10929TIP3    H254279   4.997   0.677   3.296 -1.6179 -0.6692  0.9245
10930TIP3   OH254280   0.095   6.678   2.323  0.2621 -0.4635  0.0471
10930TIP3    H154281   0.014   6.716   2.357 -0.0647 -0.7539 -0.3939
10930TIP3    H254282   0.161   6.747   2.336  0.6574 -1.2780  3.1904
10931TIP3   OH254283   4.867   2.466  12.793 -0.0702 -0.1815  0.5086
10931TIP3    H154284   4.902   2.452  12.881  0.8289  1.3532  0.4431
10931TIP3    H254285   4.906   2.397  12.740  0.1407 -0.5437  1.1190
10932TIP3   OH254286   4.821   2.241  13.588 -0.0652 -0.0972  0.7854
10932TIP3    H154287   4.783   2.164  13.629 -2.5315  1.3402  1.3999
10932TIP3    H254288   4.784   2.244  13.500  3.5005 -1.9477 -0.9701
10933TIP3   OH254289   4.309   1.357   1.942  0.1243 -0.4594 -0.3773
10933TIP3    H154290   4.267   1.278   1.976 -1.6726  0.5123 -0.2386
10933TIP3    H254291   4.275   1.428   1.996  2.9630  0.2852  0.5691
10934TIP3   OH254292   4.010   4.548   4.182 -0.0002 -0.1603  0.1061
10934TIP3    H154293   3.947   4.582   4.119  0.1584  0.7395  0.4202
10934TIP3    H254294   4.053   4.626   4.218  2.0138 -0.7503 -0.8171
10935TIP3   OH254295   6.067   0.836   4.741  0.0776 -0.1352 -0.5649
10935TIP3    H154296   6.078   0.905   4.805 -0.1685 -0.0822 -0.5791
10935TIP3    H254297   6.039   0.760   4.792 -0.0584 -0.1094 -0.5987
10936TIP3   OH254298   2.010   1.366   2.982  0.1163 -0.7148 -1.1646
10936TIP3    H154299   1.958   1.287   2.972 -0.6748 -0.2346 -0.9760
10936TIP3    H254300   2.054   1.357   3.066  0.6264 -1.2869 -1.4903
10937TIP3   OH254301   0.364   5.172   4.043  0.0515 -0.2177  0.5134
10937TIP3    H154302   0.341   5.180   3.951  2.3981 -1.5091 -0.2419
10937TIP3    H254303   0.415   5.251   4.062 -2.3048  1.2281  1.4422
10938TIP3   OH254304   0.372   1.652   5.807  0.2051 -0.2808 -0.8658
10938TIP3    H154305   0.363   1.610   5.722  3.4947 -1.1256 -0.9031
10938TIP3    H254306   0.392   1.580   5.867  0.8963  0.6581  0.0505
10939TIP3   OH254307   1.334   4.094   4.898  0.2408 -0.1507 -0.2201
10939TIP3    H154308   1.308   4.171   4.949  1.6475  0.7455 -0.8222
10939TIP3    H254309   1.364   4.031   4.964  0.4586  0.3644  0.1761
10940TIP3   OH254310   3.566   5.906   6.264 -0.1534  0.4194  0.5244
10940TIP3    H154311   3.476   5.895   6.234  0.6105 -2.4211 -1.0336
10940TIP3    H254312   3.597   5.985   6.220 -2.1679  2.2220  2.0992
10941TIP3   OH254313   4.333   2.039   3.001 -0.6464  0.1364  0.1096
10941TIP3    H154314   4.374   1.977   3.061  1.4053 -0.6109 -1.9465
10941TIP3    H254315   4.378   2.122   3.017  0.5908 -0.2878 -0.9716
10942TIP3   OH254316   5.260   0.572  13.452  0.3997 -1.0359 -0.1570
10942TIP3    H154317   5.188   0.622  13.413 -0.8580 -2.9539 -0.4031
10942TIP3    H254318   5.282   0.506  13.386 -0.7696 -3.4058  1.6475
10943TIP3   OH254319   3.032   3.300   2.952 -0.1984 -0.6888  0.2201
10943TIP3    H154320   3.046   3.298   3.046  0.2975  1.0314  0.2200
10943TIP3    H254321   3.054   3.390   2.926 -2.4274 -0.4651 -1.2027
10944TIP3   OH254322   1.619   5.936  14.396  0.4940 -0.3876  0.1423
10944TIP3    H154323   1.582   5.847  14.395 -0.8877  0.1598 -1.0647
10944TIP3    H254324   1.546   5.991  14.424  0.8061  0.5737 -0.8876
10945TIP3   OH254325   2.062   4.343  14.663 -0.5168  0.9542  0.1598
10945TIP3    H154326   2.102   4.379  14.743  1.5533 -1.1673  0.1777
10945TIP3    H254327   1.976   4.312  14.692  0.2391  0.1138  1.6413
10946TIP3   OH254328   4.649   3.125  14.563 -0.4696  0.4881 -0.6017
10946TIP3    H154329   4.620   3.114  14.653 -1.5112 -0.7280 -1.0598
10946TIP3    H254330   4.637   3.218  14.545  2.5269  1.3989  1.3927
10947TIP3   OH254331   5.062   4.033   0.904  0.6598  0.3070 -0.3330
10947TIP3    H154332   4.990   4.081   0.863 -0.2981 -1.1096 -0.3863
10947TIP3    H254333   5.023   3.951   0.934  1.8730  0.2636  1.2852
10948TIP3   OH254334   0.128   1.117   2.912 -0.8591 -0.3505  0.0422
10948TIP3    H154335   0.157   1.139   2.823  0.1726  1.1632  0.7233
10948TIP3    H254336   0.046   1.166   2.923 -0.2642  0.5797  0.4011
10949TIP3   OH254337   2.710   4.332  13.769 -0.4508 -0.2412 -0.1170
10949TIP3    H154338   2.767   4.397  13.809 -1.5522  1.0516 -0.5495
10949TIP3    H254339   2.762   4.296  13.697  1.2307 -1.9780  1.8526
10950TIP3   OH254340   6.436   6.028   0.475 -0.6757 -0.2230  0.3802
10950TIP3    H154341   6.352   6.065   0.451 -0.7353  0.5879  1.7651
10950TIP3    H254342   6.443   6.042   0.569  0.2140 -1.9123  0.6041
10951TIP3   OH254343   5.420   3.329   3.787 -0.4957 -0.3387  0.1872
10951TIP3    H154344   5.454   3.410   3.749 -0.7176  0.3369  1.3676
10951TIP3    H254345   5.362   3.358   3.858  0.4491 -1.5297  1.5053
10952TIP3   OH254346   5.104   2.926  16.529 -0.6019 -0.4146  0.5455
10952TIP3    H154347   5.147   2.868  16.466 -0.6012  0.7714 -0.5839
10952TIP3    H254348   5.017   2.942  16.492 -0.4466  0.6480  0.6100
10953TIP3   OH254349   3.396   6.682  12.286 -0.6178  0.3071 -0.0263
10953TIP3    H154350   3.489   6.681  12.309  0.3179  1.0472 -3.2401
10953TIP3    H254351   3.374   6.590  12.270 -0.3320  0.1615  0.4197
10954TIP3   OH254352   5.012   0.043   5.332 -0.1272 -0.4785 -0.0132
10954TIP3    H154353   4.999   0.081   5.245 -1.3050  2.0019  1.1115
10954TIP3    H254354   4.946  -0.025   5.339  1.3658 -2.2216 -1.7495
10955TIP3   OH254355   0.475   1.212  15.118 -0.0903  0.4568  0.0383
10955TIP3    H154356   0.497   1.147  15.051 -0.1473  0.3038  0.1683
10955TIP3    H254357   0.498   1.296  15.077 -0.1031  0.3637 -0.1641
10956TIP3   OH254358   3.779   1.454   2.667 -0.2484 -0.2328 -0.0777
10956TIP3    H154359   3.794   1.399   2.590 -0.9575 -1.5752  0.7264
10956TIP3    H254360   3.687   1.443   2.688 -0.1134  0.2813  0.8478
10957TIP3   OH254361   4.505   6.156   6.123 -0.3367  0.0255 -0.7025
10957TIP3    H154362   4.429   6.206   6.095 -0.7461  0.3219  0.8091
10957TIP3    H254363   4.548   6.213   6.187  2.1327  0.5793 -2.7164
10958TIP3   OH254364   6.570   5.972  15.473  0.0517 -0.0112 -0.3309
10958TIP3    H154365   6.479   5.944  15.484  0.1064  0.0293  0.2893
10958TIP3    H254366   6.602   5.983  15.563  0.1495  1.6361 -0.5360
10959TIP3   OH254367   5.475   2.905  11.678 -0.1578  0.1508  0.3252
10959TIP3    H154368   5.534   2.935  11.747  0.1999 -3.5188  1.8380
10959TIP3    H254369   5.391   2.945  11.699  0.2862  0.2222  2.0699
10960TIP3   OH254370   5.345   0.585  17.057 -0.3040  0.2557 -0.0504
10960TIP3    H154371   5.414   0.621  17.113  1.2182  0.8354 -2.1666
10960TIP3    H254372   5.271   0.646  17.067  0.8293  1.7626 -0.5256
10961TIP3   OH254373   3.024   2.782   2.275 -0.3520  0.2258  0.2607
10961TIP3    H154374   3.074   2.843   2.329  0.2206  1.4504 -1.5553
10961TIP3    H254375   2.932   2.801   2.296 -0.1878  1.8000 -0.3023
10962TIP3   OH254376   5.324   5.472  16.192  0.4710  0.1417 -0.1867
10962TIP3    H154377   5.350   5.411  16.122 -0.0153  1.0801 -1.2199
10962TIP3    H254378   5.397   5.533  16.198  1.0128 -0.5947  0.9344
10963TIP3   OH254379   2.279   4.815  17.328 -0.5491 -0.2064 -0.9506
10963TIP3    H154380   2.366   4.790  17.359 -1.4689 -1.4255  0.7921
10963TIP3    H254381   2.251   4.884  17.388 -0.3768  0.9983 -2.1924
10964TIP3   OH254382   2.133   2.089   5.359  0.1756  0.4093  0.0562
10964TIP3    H154383   2.091   2.041   5.287 -2.6759  0.6038  1.4391
10964TIP3    H254384   2.187   2.024   5.403  1.8631  0.2495 -2.0862
10965TIP3   OH254385   2.890   2.629  16.055  1.3683  0.9263 -0.2332
10965TIP3    H154386   2.882   2.534  16.044 -1.8227  0.9171  0.9970
10965TIP3    H254387   2.970   2.641  16.105  1.0286 -1.2919  0.9636
10966TIP3   OH254388   3.002   1.769   4.301 -0.4108 -0.3559 -0.1040
10966TIP3    H154389   3.062   1.770   4.226  0.5616 -1.2563  0.6368
10966TIP3    H254390   3.029   1.844   4.353 -0.4099 -0.3356 -0.1332
10967TIP3   OH254391   1.945   6.020  15.920  0.2589  0.0517 -0.1148
10967TIP3    H154392   1.992   5.938  15.905 -0.5758 -0.6478  0.9434
10967TIP3    H254393   1.856   6.003  15.888  0.7239  1.4582 -2.3762
10968TIP3   OH254394   4.764   2.073  11.523 -0.4910  0.6416 -0.3128
10968TIP3    H154395   4.694   2.033  11.574  1.2706 -2.4393 -0.0107
10968TIP3    H254396   4.719   2.118  11.451 -2.7976 -0.9405  0.0348
10969TIP3   OH254397   0.102   6.255  12.042 -0.0508  0.2089  0.1338
10969TIP3    H154398   0.024   6.250  11.988 -0.9404 -1.0232  1.4746
10969TIP3    H254399   0.104   6.346  12.073 -0.5793  0.4175 -0.4259
10970TIP3   OH254400   0.274   1.325   0.234  0.4324 -0.4017 -0.5406
10970TIP3    H154401   0.256   1.247   0.181  0.5919 -0.4898 -0.4642
10970TIP3    H254402   0.314   1.292   0.314  2.3813 -0.1165 -1.3405
10971TIP3   OH254403   3.679   2.213   3.981  0.0947 -0.0610 -0.2360
10971TIP3    H154404   3.748   2.151   3.957 -2.0126 -2.6650 -0.0729
10971TIP3    H254405   3.619   2.212   3.907 -1.7537 -1.0119  1.1866
10972TIP3   OH254406   4.336   1.951   0.959  0.4125  0.1827  0.7457
10972TIP3    H154407   4.411   2.006   0.980 -0.5507  0.9582  2.3414
10972TIP3    H254408   4.331   1.951   0.863  2.0122  0.6681  0.6455
10973TIP3   OH254409   0.708   2.171  15.837 -0.2747 -0.0208 -0.4555
10973TIP3    H154410   0.799   2.141  15.826  0.0740  0.5637  0.6185
10973TIP3    H254411   0.655   2.093  15.826  0.5438 -0.8820  1.3215
10974TIP3   OH254412   0.448   2.003   3.049 -0.7127 -0.2150  0.8608
10974TIP3    H154413   0.481   2.085   3.012 -0.2164 -0.7565  0.0817
10974TIP3    H254414   0.526   1.958   3.081 -0.8181 -0.9453  0.1332
10975TIP3   OH254415   5.480   2.573   5.172  0.6185  0.0911 -0.4827
10975TIP3    H154416   5.479   2.565   5.077 -0.4546  0.7333 -0.5448
10975TIP3    H254417   5.564   2.534   5.199  0.1795 -1.6763 -1.5249
10976TIP3   OH254418   2.786   1.740  15.707  0.4889  0.3037  0.2288
10976TIP3    H154419   2.697   1.753  15.675  0.6522 -0.7352 -0.6927
10976TIP3    H254420   2.776   1.719  15.800 -0.3925 -1.7834 -0.3072
10977TIP3   OH254421   4.594   4.691  16.569 -0.1037  0.3616  0.2465
10977TIP3    H154422   4.588   4.662  16.660  2.3901 -1.0633  0.0339
10977TIP3    H254423   4.602   4.610  16.518 -0.3658  1.1771 -1.1349
10978TIP3   OH254424   1.648   5.660   5.733 -0.0599 -0.9250  0.0698
10978TIP3    H154425   1.565   5.676   5.689  0.8030  1.7612 -0.7644
10978TIP3    H254426   1.638   5.703   5.818  1.3382  1.9699 -1.1086
10979TIP3   OH254427   1.400   3.405  15.442  0.5161  0.2013 -0.2494
10979TIP3    H154428   1.480   3.444  15.405  1.2428 -3.8230 -3.5816
10979TIP3    H254429   1.333   3.421  15.376  0.2383 -1.8881 -0.5198
10980TIP3   OH254430   5.687   4.383  13.557 -0.1005  0.4681  0.3019
10980TIP3    H154431   5.620   4.340  13.609  0.8294  0.5405  1.6239
10980TIP3    H254432   5.746   4.313  13.529  0.7595  0.6921  1.4617
10981TIP3   OH254433   0.159   2.802  11.098  0.1928 -0.1355 -0.2073
10981TIP3    H154434   0.236   2.766  11.055  0.1887  0.1154 -0.4249
10981TIP3    H254435   0.129   2.873  11.041 -0.2008 -0.2318 -0.1257
10982TIP3   OH254436   6.389   0.886   2.734 -0.6641 -0.0797  0.2699
10982TIP3    H154437   6.457   0.889   2.800 -1.0359 -0.3563  0.6671
10982TIP3    H254438   6.412   0.812   2.677 -0.1261  0.4062 -0.1547
10983TIP3   OH254439   5.653   2.275  15.228 -0.2125  0.3608 -0.4047
10983TIP3    H154440   5.640   2.279  15.322  3.1389 -0.2269  0.1948
10983TIP3    H254441   5.711   2.348  15.208  1.0798 -0.8932 -1.5436
10984TIP3   OH254442   2.798   5.521  11.273  0.6255 -0.5128 -0.1139
10984TIP3    H154443   2.881   5.553  11.237  0.5310 -1.3534 -1.1054
10984TIP3    H254444   2.776   5.445  11.220 -0.6598 -0.4599  0.3053
10985TIP3   OH254445   6.041   5.042   2.803  0.2811 -0.6417  0.0261
10985TIP3    H154446   5.999   5.101   2.741 -0.1542  0.0690  0.9726
10985TIP3    H254447   6.007   5.069   2.889  2.0219 -0.6173  0.7344
10986TIP3   OH254448   0.831   0.875   0.455  0.3241  0.3347  0.1115
10986TIP3    H154449   0.766   0.847   0.520  0.2236  1.7275  0.6506
10986TIP3    H254450   0.901   0.810   0.461 -0.2219 -0.2041  0.7780
10987TIP3   OH254451   3.348   4.551  12.820  0.7820  0.2595  0.1578
10987TIP3    H154452   3.255   4.549  12.800  0.9884 -0.0805 -0.8045
10987TIP3    H254453   3.354   4.600  12.903 -0.1999  0.6448  0.0093
10988TIP3   OH254454   5.239   6.279   3.286 -0.4767  0.1264  0.0081
10988TIP3    H154455   5.264   6.189   3.307 -2.8113 -0.0793  2.4388
10988TIP3    H254456   5.207   6.274   3.196 -0.4825 -1.4562  0.0649
10989TIP3   OH254457   5.885   3.415   1.920  0.2584  0.1031  0.5352
10989TIP3    H154458   5.842   3.358   1.857  0.4347  1.3456 -0.7673
10989TIP3    H254459   5.932   3.356   1.979  1.0742 -1.0895 -1.2296
10990TIP3   OH254460   2.827   0.616   4.332 -0.2242  0.4993 -0.7956
10990TIP3    H154461   2.762   0.686   4.341  0.7678  1.2482  1.3999
10990TIP3    H254462   2.891   0.651   4.270 -1.4897  0.0341 -2.4371
10991TIP3   OH254463   5.487   0.513   3.330 -0.3089 -0.0625 -0.0345
10991TIP3    H154464   5.514   0.492   3.241 -0.8121  2.1293 -0.7501
10991TIP3    H254465   5.486   0.428   3.375  0.7190 -1.1163 -1.8708
10992TIP3   OH254466   4.254   2.724  14.453 -0.1407 -0.2317  0.0756
10992TIP3    H154467   4.173   2.680  14.428  0.1760  0.0413 -1.5308
10992TIP3    H254468   4.295   2.666  14.517 -1.8509 -0.1074  1.3636
10993TIP3   OH254469   0.214   5.394  17.455 -0.2185  0.0158  0.2589
10993TIP3    H154470   0.149   5.465  17.450 -0.9694 -0.7158 -1.0787
10993TIP3    H254471   0.199   5.355  17.541 -1.0270  0.3584  0.2892
10994TIP3   OH254472   6.561   5.884   0.285 -0.1804 -0.1056 -0.4708
10994TIP3    H154473   6.510   5.942   0.342 -0.0687  1.0633 -1.5295
10994TIP3    H254474   6.502   5.812   0.266 -0.4960 -0.1178  0.4830
10995TIP3   OH254475   0.772   1.568   5.712  0.5122 -0.2103 -0.4531
10995TIP3    H154476   0.856   1.574   5.668  0.4511  0.7039 -0.4549
10995TIP3    H254477   0.786   1.607   5.798 -0.3096  1.4798 -1.0527
10996TIP3   OH254478   5.210   6.472   0.857  0.4374  0.2180  0.2532
10996TIP3    H154479   5.276   6.403   0.848  0.3251  0.0176  0.9776
10996TIP3    H254480   5.157   6.446   0.931 -0.3881  0.4510 -0.2442
10997TIP3   OH254481   2.917   4.047   0.340 -0.4942  0.5574  1.0448
10997TIP3    H154482   2.862   4.125   0.335 -0.7549  0.3240  0.0956
10997TIP3    H254483   2.980   4.066   0.409 -0.0820  1.9276  0.3276
10998TIP3   OH254484   4.510   5.054   1.285 -0.1647 -0.3149  0.1494
10998TIP3    H154485   4.497   4.963   1.258  0.4265 -1.2429  2.7642
10998TIP3    H254486   4.537   5.049   1.376  0.5145  2.4805  0.1921
10999TIP3   OH254487   4.703   1.173   1.574 -0.3656 -0.0683 -0.4969
10999TIP3    H154488   4.640   1.147   1.641 -1.2564  0.7989 -0.9661
10999TIP3    H254489   4.654   1.233   1.517  1.5503  2.7723  0.6146
11000TIP3   OH254490   3.813   5.300   5.077  0.1569  0.4994 -0.0775
11000TIP3    H154491   3.796   5.292   4.984  1.0939  0.2014 -0.2331
11000TIP3    H254492   3.850   5.215   5.102 -0.6017  0.3720  0.6884
11001TIP3   OH254493   4.774   5.696   2.819 -0.5647 -1.1470 -0.0463
11001TIP3    H154494   4.790   5.624   2.880 -0.9984 -1.9154 -0.8249
11001TIP3    H254495   4.693   5.672   2.774 -1.1086  0.1745  0.1747
11002TIP3   OH254496   1.701   4.661   0.247 -0.4557 -0.2642  0.1024
11002TIP3    H154497   1.730   4.733   0.303  0.6263  0.1007 -0.8574
11002TIP3    H254498   1.741   4.680   0.162  1.5276 -2.9735  0.2639
11003TIP3   OH254499   2.117   2.935   1.582 -0.0932  0.3168  0.1275
11003TIP3    H154500   2.184   2.962   1.644 -0.8421  1.3488  0.5186
11003TIP3    H254501   2.040   2.986   1.606 -1.4103 -1.7403  0.4838
11004TIP3   OH254502   1.950   4.545   6.787  0.4387  0.4171 -0.2571
11004TIP3    H154503   1.889   4.574   6.856  0.0318  1.2530 -0.9512
11004TIP3    H254504   2.036   4.572   6.819  0.2939  0.4566  0.1080
11005TIP3   OH254505   6.328   1.414  12.324  0.3764  0.2464 -0.3081
11005TIP3    H154506   6.340   1.500  12.363  1.4602  0.0261 -0.1219
11005TIP3    H254507   6.253   1.424  12.265  0.1768  1.1744  0.0938
11006TIP3   OH254508   1.861   6.288  12.082  0.4646  0.2330 -0.6638
11006TIP3    H154509   1.864   6.346  12.006  0.1803  1.2792  0.0975
11006TIP3    H254510   1.767   6.277  12.100  0.5433  1.4166  0.5759
11007TIP3   OH254511   1.659   2.205  16.076  0.6033 -0.0437  0.0697
11007TIP3    H154512   1.661   2.123  16.027 -0.9475 -0.5635  0.7999
11007TIP3    H254513   1.734   2.255  16.043  0.9967 -1.3402 -1.0939
11008TIP3   OH254514   1.390   6.235  12.105 -0.5194 -0.0498 -0.1629
11008TIP3    H154515   1.322   6.250  12.171 -0.2785 -0.3418  0.1581
11008TIP3    H254516   1.360   6.283  12.028 -0.4670  0.8851  0.3777
11009TIP3   OH254517   5.322   2.636   1.398  0.5586 -0.5030 -0.4194
11009TIP3    H154518   5.257   2.695   1.434  2.5655  2.6465 -1.5377
11009TIP3    H254519   5.384   2.622   1.470 -1.2106 -3.5631  0.6720
11010TIP3   OH254520   6.158   4.255   6.649  0.8483  0.1595 -0.3384
11010TIP3    H154521   6.176   4.244   6.555  0.1283 -0.7416 -0.3807
11010TIP3    H254522   6.238   4.293   6.684  0.8410  1.3236 -1.4660
11011TIP3   OH254523   5.732   5.975   4.804 -0.2920 -0.1549  0.0487
11011TIP3    H154524   5.825   5.961   4.788 -0.4407 -0.6696 -0.4265
11011TIP3    H254525   5.728   6.044   4.870  0.4102  0.3018 -0.3837
11012TIP3   OH254526   1.354   5.754  11.832  0.5008  0.2715  0.2014
11012TIP3    H154527   1.436   5.755  11.882  1.9663  0.0393 -2.0661
11012TIP3    H254528   1.332   5.661  11.823  0.9629  0.2392 -0.6689
11013TIP3   OH254529   1.150   1.215   1.099 -0.2041 -0.3756 -0.1975
11013TIP3    H154530   1.195   1.262   1.169  0.1692 -0.4087 -0.4126
11013TIP3    H254531   1.063   1.256   1.095 -0.3589 -0.6258  0.5308
11014TIP3   OH254532   2.192   0.247   6.508  0.3719  0.1295  0.3093
11014TIP3    H154533   2.209   0.164   6.551  0.0926 -1.1062 -1.8147
11014TIP3    H254534   2.279   0.281   6.486  0.5322 -1.5854 -2.2240
11015TIP3   OH254535   0.975   3.522   3.257  0.5353  0.0853  0.0312
11015TIP3    H154536   0.959   3.468   3.334 -0.9375  1.3147  0.6244
11015TIP3    H254537   0.929   3.478   3.186 -0.6440  0.5209  0.5087
11016TIP3   OH254538   2.429   0.665  14.049  0.0701  0.3222  0.4632
11016TIP3    H154539   2.462   0.754  14.036  1.1489  0.1743  1.8710
11016TIP3    H254540   2.507   0.611  14.054 -0.5889 -0.8162 -0.8507
11017TIP3   OH254541   2.028   0.484   3.278  0.1169 -0.5205  0.0705
11017TIP3    H154542   2.081   0.562   3.296 -0.8018  0.0452  0.3743
11017TIP3    H254543   1.948   0.498   3.329 -1.2437 -0.3503 -2.0176
11018TIP3   OH254544   4.353   2.464   3.610 -0.0524 -0.2606 -0.6399
11018TIP3    H154545   4.293   2.536   3.593  0.6418 -0.0509 -2.4708
11018TIP3    H254546   4.405   2.492   3.686  0.9961  1.7455 -2.0121
11019TIP3   OH254547   5.531   2.539  13.359  0.3850  0.3473  0.2409
11019TIP3    H154548   5.459   2.486  13.325  1.7196 -1.1480 -0.3777
11019TIP3    H254549   5.558   2.493  13.439 -0.6271  2.0493  1.6484
11020TIP3   OH254550   6.350   2.231   0.133  0.0966 -0.2847  0.5563
11020TIP3    H154551   6.385   2.246   0.221 -2.0322  3.3273  0.9926
11020TIP3    H254552   6.404   2.286   0.077 -1.0093  0.5277  0.2727
11021TIP3   OH254553   3.346   2.115   7.157  0.3989 -0.3108 -0.1550
11021TIP3    H154554   3.420   2.063   7.124  0.9064  0.3098 -0.0169
11021TIP3    H254555   3.293   2.132   7.079  0.2879 -0.9199 -0.2229
11022TIP3   OH254556   3.157   2.034  14.985  0.1956  0.2612 -0.3262
11022TIP3    H154557   3.091   2.053  15.052  1.2189 -0.0725  0.8112
11022TIP3    H254558   3.151   2.108  14.924 -1.7126 -0.1277 -0.6690
11023TIP3   OH254559   5.168   2.957   4.178 -0.0880 -0.1541 -0.3418
11023TIP3    H154560   5.120   3.004   4.110  0.2628 -0.5412 -0.8591
11023TIP3    H254561   5.260   2.979   4.163 -0.1513  2.3616  1.9675
11024TIP3   OH254562   4.735   2.414  16.792 -0.2930  0.4213  0.3821
11024TIP3    H154563   4.795   2.487  16.773  0.5631  0.1433  1.8787
11024TIP3    H254564   4.708   2.383  16.705  2.2248  0.1831 -0.4095
11025TIP3   OH254565   2.594   0.614  13.677  0.1312 -0.0716  0.4337
11025TIP3    H154566   2.680   0.614  13.634  0.1756 -0.4918  0.5242
11025TIP3    H254567   2.603   0.553  13.750  0.9004  2.5748  2.7481
11026TIP3   OH254568   1.500   4.028   0.891  0.3604 -0.1491 -0.2003
11026TIP3    H154569   1.426   4.016   0.952  0.7646  1.4138  0.6561
11026TIP3    H254570   1.459   4.046   0.807 -0.2848  1.4038  0.4094
11027TIP3   OH254571   5.021   3.789   2.287  0.1733  0.3864  0.2560
11027TIP3    H154572   5.104   3.823   2.256  0.4399 -0.5323 -0.0869
11027TIP3    H254573   4.960   3.803   2.214  0.7066 -1.4137 -0.6024
11028TIP3   OH254574   4.493   2.123  11.873 -0.2962  0.6476  0.6436
11028TIP3    H154575   4.582   2.136  11.906  0.1647  0.1953 -0.3795
11028TIP3    H254576   4.504   2.073  11.792 -1.4130  1.3024  0.0502
11029TIP3   OH254577   0.283   3.999   5.801 -0.0705  0.3673 -0.4339
11029TIP3    H154578   0.310   4.080   5.843 -0.0178 -0.6873  1.6975
11029TIP3    H254579   0.195   3.982   5.835  0.2551 -0.8890 -0.1628
11030TIP3   OH254580   1.280   3.667  17.300  0.4220  0.3420  0.3518
11030TIP3    H154581   1.194   3.669  17.342  0.9425  2.1528  1.4603
11030TIP3    H254582   1.342   3.681  17.371  1.5220  0.8569 -0.6635
11031TIP3   OH254583   6.703   4.225  16.240  0.1692  0.3306 -0.0359
11031TIP3    H154584   6.651   4.279  16.180 -1.5095  0.4525  1.4577
11031TIP3    H254585   6.731   4.285  16.309 -0.1515 -0.3364  0.6822
11032TIP3   OH254586   6.252   5.413   0.948 -0.1381  0.0037 -0.3303
11032TIP3    H154587   6.225   5.489   0.897  1.1090  0.1712 -0.7714
11032TIP3    H254588   6.199   5.418   1.028 -1.9285 -0.1134 -1.4455
11033TIP3   OH254589   3.271   5.880  12.425  0.3429  0.1262 -0.1644
11033TIP3    H154590   3.333   5.948  12.449  0.9961 -0.2919 -0.6511
11033TIP3    H254591   3.292   5.807  12.482  0.3935 -0.0677 -0.4302
11034TIP3   OH254592   2.514   5.482  17.082  0.1674 -0.2097  0.5193
11034TIP3    H154593   2.489   5.523  17.164  2.4635  2.9090 -0.1566
11034TIP3    H254594   2.441   5.499  17.023  0.1673  1.1025  0.8709
11035TIP3   OH254595   2.069   3.440  13.812  0.3078  0.2306  0.1560
11035TIP3    H154596   2.041   3.348  13.807  0.7156  0.1068  0.1098
11035TIP3    H254597   2.150   3.443  13.762  1.5802  0.1202  2.1347
11036TIP3   OH254598   5.338   5.815   1.144  0.1456  0.2170  0.4752
11036TIP3    H154599   5.347   5.828   1.050 -1.8592  1.8223  0.4390
11036TIP3    H254600   5.410   5.865   1.182  0.9465 -0.4116 -0.1732
11037TIP3   OH254601   6.242   6.698   2.218  0.1274 -0.1145 -0.2510
11037TIP3    H154602   6.151   6.682   2.241 -0.0912  1.0870 -0.2015
11037TIP3    H254603   6.251   6.667   2.129 -0.9767  1.8422 -1.1095
11038TIP3   OH254604   2.157   4.319   1.393  0.0787  0.0946  0.8299
11038TIP3    H154605   2.242   4.281   1.370 -0.5095 -1.8505  1.6898
11038TIP3    H254606   2.110   4.248   1.437 -2.1641  0.9820  0.0134
11039TIP3   OH254607   3.656   4.870  13.956  0.2255  0.8263  0.4589
11039TIP3    H154608   3.586   4.811  13.929  1.4426  0.1420 -1.4867
11039TIP3    H254609   3.611   4.948  13.988 -1.4117 -0.0195  0.3287
11040TIP3   OH254610   1.314   0.540  17.302 -0.7958  0.8201  0.2061
11040TIP3    H154611   1.279   0.530  17.214 -0.3414 -2.2044  0.2732
11040TIP3    H254612   1.242   0.578  17.352 -2.2663 -0.5515 -0.7751
11041TIP3   OH254613   4.462   3.253  16.457 -0.1824  0.0465 -1.0914
11041TIP3    H154614   4.549   3.258  16.497  0.5659  0.2349 -2.6855
11041TIP3    H254615   4.467   3.311  16.381 -1.3639 -0.7902 -1.8404
11042TIP3   OH254616   0.685   3.758   4.853 -0.5521  1.1378 -0.2370
11042TIP3    H154617   0.737   3.837   4.844  2.0156 -0.4309 -0.0048
11042TIP3    H254618   0.628   3.775   4.928  1.2308  2.1025  0.9617
11043TIP3   OH254619   6.298   0.699   4.032  0.4135  0.2044 -0.3482
11043TIP3    H154620   6.349   0.626   4.068 -0.5668 -0.0042  0.6704
11043TIP3    H254621   6.248   0.660   3.960  0.2476 -0.0296 -0.1093
11044TIP3   OH254622   2.216   6.331  14.269  0.2486  0.2172  0.0353
11044TIP3    H154623   2.263   6.260  14.314  1.0135 -0.6508 -2.0262
11044TIP3    H254624   2.198   6.296  14.182  0.4636  2.4958 -0.9872
11045TIP3   OH254625   1.928   5.050   6.474  0.4724  0.1236  0.1563
11045TIP3    H154626   1.993   5.120   6.485  0.5487  0.1876 -0.6145
11045TIP3    H254627   1.957   5.004   6.395 -1.0843  0.8818 -0.8882
11046TIP3   OH254628   1.335   3.272  14.886 -0.2754  0.0645  0.2507
11046TIP3    H154629   1.242   3.252  14.880 -0.2944 -0.7798  2.3512
11046TIP3    H254630   1.339   3.367  14.898 -0.6957  0.3888 -1.7953
11047TIP3   OH254631   4.814   3.620   3.712  0.4728  0.0995  0.0861
11047TIP3    H154632   4.888   3.601   3.769 -1.0338 -1.7599  1.5439
11047TIP3    H254633   4.810   3.546   3.652 -1.4853 -0.9613  1.4623
11048TIP3   OH254634   3.173   0.519   0.963 -0.6582  0.4527  0.0350
11048TIP3    H154635   3.249   0.477   0.922  0.4450  0.0814  2.2921
11048TIP3    H254636   3.104   0.453   0.959 -0.6996  0.5517 -1.4572
11049TIP3   OH254637   6.434   3.453  15.669 -0.6645 -0.4328 -0.8705
11049TIP3    H154638   6.433   3.484  15.579  1.7336  0.7963 -0.5532
11049TIP3    H254639   6.405   3.529  15.720  1.1798 -0.0056 -0.4004
11050TIP3   OH254640   4.721   3.046  13.571  0.0320 -0.3598 -0.4183
11050TIP3    H154641   4.736   3.022  13.480 -1.8799 -0.8627 -0.6450
11050TIP3    H254642   4.626   3.061  13.577  0.4829  2.7165  0.7912
11051TIP3   OH254643   0.367   2.149  15.445  0.6330  0.5750  0.4560
11051TIP3    H154644   0.322   2.066  15.430  1.9808 -0.2835  1.0195
11051TIP3    H254645   0.340   2.205  15.372 -0.0341 -0.4594 -0.1074
11052TIP3   OH254646   5.722   1.824   3.762 -0.5508 -0.0426  0.3078
11052TIP3    H154647   5.783   1.757   3.732  0.8706  0.2086  2.4296
11052TIP3    H254648   5.674   1.784   3.834 -0.2738  0.9090  1.0514
11053TIP3   OH254649   6.205   4.233  13.869  0.1513  0.2491 -0.5613
11053TIP3    H154650   6.176   4.151  13.828  1.5475 -0.1756 -0.7441
11053TIP3    H254651   6.162   4.302  13.817 -3.0696 -0.2901  1.0889
11054TIP3   OH254652   5.423   0.982  12.460 -0.5145  0.5515 -0.5168
11054TIP3    H154653   5.433   0.951  12.369  1.2905  2.3719 -0.9961
11054TIP3    H254654   5.340   0.944  12.488  0.5041 -2.9925 -1.7037
11055TIP3   OH254655   2.638   0.589   2.421 -0.6055 -0.1192 -0.3665
11055TIP3    H154656   2.698   0.649   2.465 -2.1549  0.5488  0.9135
11055TIP3    H254657   2.637   0.619   2.330 -0.0578  0.7249 -0.1066
11056TIP3   OH254658   3.897   4.692   6.126  0.1650 -0.0075 -0.4512
11056TIP3    H154659   3.882   4.662   6.215 -0.2102  0.7380 -0.2588
11056TIP3    H254660   3.892   4.613   6.073 -0.0311 -0.3940  0.1365
11057TIP3   OH254661   3.694   6.182   3.267 -0.3112  0.0045  0.1125
11057TIP3    H154662   3.689   6.123   3.342 -2.1416 -1.0893 -0.8053
11057TIP3    H254663   3.725   6.126   3.195 -1.4260  0.2878 -0.6159
11058TIP3   OH254664   0.693   2.653  11.982  0.1882 -0.4912 -0.2583
11058TIP3    H154665   0.620   2.715  11.980 -1.1440 -2.0117 -0.9893
11058TIP3    H254666   0.681   2.604  12.063  0.5723 -0.5412 -0.2305
11059TIP3   OH254667   6.230   1.342  13.127 -0.4642  0.5177  0.1551
11059TIP3    H154668   6.291   1.352  13.055 -0.6087 -1.1389 -0.2332
11059TIP3    H254669   6.170   1.273  13.099 -1.6560  1.1069  1.1152
11060TIP3   OH254670   5.027   1.494   6.467  0.2876  0.0305  0.2779
11060TIP3    H154671   4.995   1.540   6.390 -1.3940 -0.9635  0.3519
11060TIP3    H254672   4.949   1.478   6.520  1.5974  2.4947  3.2476
11061TIP3   OH254673   2.195   3.546   5.849  0.7287 -0.2753 -0.9330
11061TIP3    H154674   2.123   3.484   5.841  1.7748 -1.8017  0.7581
11061TIP3    H254675   2.270   3.493   5.877  2.4450  1.3006 -2.2541
11062TIP3   OH254676   0.916   0.470  12.818  0.3278  0.0162 -0.1767
11062TIP3    H154677   0.856   0.407  12.779  1.3714 -0.4161 -1.1092
11062TIP3    H254678   1.001   0.453  12.777  0.7540  1.6680 -0.0656
11063TIP3   OH254679   6.017   4.776   2.750  0.4573 -0.0019 -0.4589
11063TIP3    H154680   5.931   4.776   2.709  0.3255 -0.7536 -0.1798
11063TIP3    H254681   6.042   4.869   2.752 -0.4480  0.2489 -0.3163
11064TIP3   OH254682   0.118   5.115   0.985 -0.4058  0.2121  0.2151
11064TIP3    H154683   0.197   5.085   1.031  0.2594 -0.9873 -1.5670
11064TIP3    H254684   0.054   5.130   1.055  0.2502 -2.3542  1.5218
11065TIP3   OH254685   2.218   3.567   3.113  0.5562  0.6765  0.0147
11065TIP3    H154686   2.274   3.628   3.065  0.1378 -0.1391 -1.5761
11065TIP3    H254687   2.133   3.573   3.069  0.1044  0.0505  0.7897
11066TIP3   OH254688   5.206   1.969  11.991  0.0518  0.4672 -0.2688
11066TIP3    H154689   5.130   1.985  11.934  0.2894 -0.8148 -0.9776
11066TIP3    H254690   5.265   1.916  11.938  0.7566  0.1317  0.8240
11067TIP3   OH254691   0.984   0.920  11.687  0.5929 -0.0779 -0.0120
11067TIP3    H154692   0.998   1.013  11.700 -0.9296  0.2469 -0.4503
11067TIP3    H254693   0.895   0.905  11.720 -0.1296 -0.8735 -2.1679
11068TIP3   OH254694   2.730   5.099   0.736 -0.1490  0.8201 -0.0022
11068TIP3    H154695   2.709   5.110   0.829  2.1785 -1.9918  1.0161
11068TIP3    H254696   2.662   5.041   0.703 -0.2632  0.7793  0.3028
11069TIP3   OH254697   6.006   0.485   1.985  0.4728  0.5971 -0.2463
11069TIP3    H154698   6.030   0.393   1.988  0.3497  0.5855  1.5989
11069TIP3    H254699   5.919   0.486   1.944 -0.0850 -0.2775  0.8480
11070TIP3   OH254700   2.212   4.672  14.796  0.0557 -0.6159  0.0031
11070TIP3    H154701   2.268   4.740  14.833 -0.2070  0.0965 -0.8833
11070TIP3    H254702   2.180   4.623  14.872 -0.4060  0.7571  0.7153
11071TIP3   OH254703   1.933   1.003  11.444 -0.0498 -0.2135 -0.2275
11071TIP3    H154704   1.989   1.077  11.465 -0.4025  0.0944 -0.3693
11071TIP3    H254705   1.949   0.986  11.351 -1.0220  0.5950 -0.5584
11072TIP3   OH254706   5.843   6.000   2.265 -0.2349 -0.3145 -0.3064
11072TIP3    H154707   5.936   6.024   2.267  0.1156 -1.6240 -0.0327
11072TIP3    H254708   5.842   5.907   2.288 -1.4407 -0.8067 -2.1640
11073TIP3   OH254709   0.319   4.092  12.257 -0.2040  0.0071 -0.1333
11073TIP3    H154710   0.264   4.063  12.329  0.6277  0.3758  0.6709
11073TIP3    H254711   0.262   4.149  12.205 -0.3380  1.1815  1.2262
11074TIP3   OH254712   4.340   4.699  12.357 -0.0862  0.3556  0.5929
11074TIP3    H154713   4.312   4.635  12.422 -2.1501 -1.7139 -2.1058
11074TIP3    H254714   4.406   4.653  12.305  2.6749  2.4863  1.9729
11075TIP3   OH254715   3.742   3.198   0.598 -0.1238 -0.3061 -0.4812
11075TIP3    H154716   3.680   3.129   0.575 -0.2130 -0.8544  1.2169
11075TIP3    H254717   3.777   3.171   0.684  1.6114  0.5584 -0.8590
11076TIP3   OH254718   5.985   1.946  13.713 -0.3274 -0.1085 -0.0622
11076TIP3    H154719   6.036   1.873  13.678  2.2956  0.8843  1.3815
11076TIP3    H254720   5.903   1.906  13.742  0.4858 -2.2408 -0.4989
11077TIP3   OH254721   4.472   4.449   2.621 -0.1346  0.4801 -0.2651
11077TIP3    H154722   4.510   4.362   2.605 -0.2234 -0.3258  3.1276
11077TIP3    H254723   4.378   4.436   2.610 -0.2154 -0.1100  0.8738
11078TIP3   OH254724   1.462   1.977   2.027 -0.5113  1.2619  0.4734
11078TIP3    H154725   1.470   2.010   2.116 -0.9590  1.3705  0.4747
11078TIP3    H254726   1.520   2.032   1.975  1.5970 -0.2727  1.0659
11079TIP3   OH254727   3.227   5.303  16.819  0.0174  0.0255  0.2602
11079TIP3    H154728   3.134   5.323  16.824 -1.3339 -4.1656 -2.4470
11079TIP3    H254729   3.241   5.236  16.886  0.3042 -1.2898 -1.0443
11080TIP3   OH254730   5.135   4.002   5.949  0.7437  0.2322  0.3703
11080TIP3    H154731   5.070   4.056   5.904  1.0055  1.1257  1.0442
11080TIP3    H254732   5.098   3.913   5.946  0.7155  0.2740 -1.4982
11081TIP3   OH254733   4.044   2.175   4.582 -0.5447 -0.5683 -0.0780
11081TIP3    H154734   4.004   2.240   4.641 -1.9245 -3.0934  2.0116
11081TIP3    H254735   3.984   2.169   4.508 -0.3092  0.5962 -0.3849
11082TIP3   OH254736   5.539   0.620  13.256 -0.0415 -0.7431  0.4385
11082TIP3    H154737   5.450   0.619  13.221  0.2989  1.1163 -0.5939
11082TIP3    H254738   5.572   0.532  13.238 -1.4105 -1.2317  0.1744
11083TIP3   OH254739   1.093   1.815   5.954 -0.2026  0.0153 -0.0598
11083TIP3    H154740   1.105   1.851   5.866  0.0068 -0.8130 -0.3793
11083TIP3    H254741   1.007   1.773   5.951 -0.6081  0.7713  0.4227
11084TIP3   OH254742   5.696   4.743   4.939  0.5895  0.1362 -0.2920
11084TIP3    H154743   5.628   4.790   4.988  1.7280  0.1502  1.3602
11084TIP3    H254744   5.672   4.651   4.946 -0.9259  0.2973 -2.4163
11085TIP3   OH254745   5.210   1.786  15.600  0.7911  0.1631  0.7358
11085TIP3    H154746   5.157   1.865  15.607  0.8496  0.1538  1.4012
11085TIP3    H254747   5.223   1.773  15.506  0.8787  1.0077  0.6273
11086TIP3   OH254748   3.105   4.976   4.932  0.1792 -0.1233  0.2051
11086TIP3    H154749   3.096   5.038   4.860  2.5297 -1.6809 -1.5720
11086TIP3    H254750   3.018   4.935   4.940 -0.5034  1.0914 -0.7335
11087TIP3   OH254751   5.636   2.254   5.268 -0.6569 -0.4538  0.1722
11087TIP3    H154752   5.696   2.300   5.209 -0.1604 -1.3436 -0.0366
11087TIP3    H254753   5.653   2.291   5.354 -2.6593  2.1812 -0.4314
11088TIP3   OH254754   3.075   0.320  13.532  0.0050 -0.0550  0.6257
11088TIP3    H154755   3.158   0.360  13.555  0.1729 -0.7458  1.2560
11088TIP3    H254756   3.034   0.382  13.472  1.4791 -0.2473 -0.6451
11089TIP3   OH254757   2.521   5.080   2.507 -0.2228  0.2603  0.6640
11089TIP3    H154758   2.442   5.057   2.458  1.5495  1.0836 -2.9796
11089TIP3    H254759   2.545   5.000   2.554 -2.5423 -0.3193  0.9725
11090TIP3   OH254760   5.459   5.082  12.963  0.4418  0.1768  0.0629
11090TIP3    H154761   5.434   4.990  12.961 -0.1716  0.3290  0.5110
11090TIP3    H254762   5.409   5.120  13.035  2.7909  0.2548  1.7959
11091TIP3   OH254763   4.664   6.151  12.463 -0.5437 -0.5674  0.1831
11091TIP3    H154764   4.751   6.173  12.433 -0.3977 -1.8978 -0.4716
11091TIP3    H254765   4.622   6.110  12.387 -1.1839 -1.3565  0.9334
11092TIP3   OH254766   4.169   6.359   1.281  0.4179  0.0619  0.5963
11092TIP3    H154767   4.167   6.322   1.192 -0.5140 -1.0990  1.0659
11092TIP3    H254768   4.184   6.452   1.268 -1.6850  0.2656 -0.9045
11093TIP3   OH254769   0.823   4.983  17.427  0.0085  0.3590 -0.1036
11093TIP3    H154770   0.909   4.941  17.426 -0.3699 -0.4965 -2.6231
11093TIP3    H254771   0.838   5.067  17.471  1.4345 -1.0088  2.2766
11094TIP3   OH254772   2.461   2.839   1.217 -0.2065  0.6854 -0.1235
11094TIP3    H154773   2.515   2.914   1.242  0.0635 -0.1024  1.8178
11094TIP3    H254774   2.489   2.768   1.275 -1.1386 -0.6582 -1.2320
11095TIP3   OH254775   4.586   1.182  14.954 -0.2347 -0.1892 -0.3181
11095TIP3    H154776   4.551   1.259  14.998  0.0229  0.5103 -1.3018
11095TIP3    H254777   4.517   1.156  14.893 -0.5562 -1.0978  0.4094
11096TIP3   OH254778   2.219   3.984   0.645 -0.6589  0.2099 -0.7126
11096TIP3    H154779   2.184   3.929   0.715  0.7029  0.1081 -0.0751
11096TIP3    H254780   2.247   4.064   0.690  1.6801 -0.4776 -0.8280
11097TIP3   OH254781   4.848   5.889  16.796  0.5127  0.1456 -0.4159
11097TIP3    H154782   4.893   5.867  16.877 -0.8743  1.7364  0.8752
11097TIP3    H254783   4.820   5.980  16.809 -2.8284 -0.6504 -1.1644
11098TIP3   OH254784   2.303   2.819   0.412 -0.1076 -0.4718  0.2924
11098TIP3    H154785   2.215   2.835   0.447  0.0580  0.3281  0.3749
11098TIP3    H254786   2.289   2.759   0.339 -0.7549 -0.1704  0.1585
11099TIP3   OH254787   0.959   0.702   7.064  0.0591  0.7349 -0.3233
11099TIP3    H154788   0.989   0.627   7.012 -2.8354 -0.1923 -0.8475
11099TIP3    H254789   1.037   0.732   7.111  1.1860 -3.2236  0.6884
11100TIP3   OH254790   4.243   2.356   2.681  0.1950 -0.0316  0.6240
11100TIP3    H154791   4.237   2.374   2.587 -0.7823  0.2767  0.7371
11100TIP3    H254792   4.226   2.262   2.688 -1.5802  0.2518  0.6320
11101TIP3   OH254793   0.744   4.511   0.550  0.0329  0.0439 -0.6268
11101TIP3    H154794   0.775   4.423   0.529  0.0375 -0.4170  1.1259
11101TIP3    H254795   0.655   4.514   0.515 -0.1375 -0.8438 -0.2849
11102TIP3   OH254796   4.475   3.727   4.629 -0.1329 -0.0888  0.0803
11102TIP3    H154797   4.489   3.820   4.608  1.4156 -0.5162 -0.9552
11102TIP3    H254798   4.499   3.720   4.722 -2.2798  0.8949  0.7757
11103TIP3   OH254799   6.450   1.407  11.832  0.3666 -0.6551 -0.3548
11103TIP3    H154800   6.452   1.392  11.738 -0.6943 -1.6953 -0.2201
11103TIP3    H254801   6.359   1.395  11.858  0.4837  0.4127  0.6989
11104TIP3   OH254802   3.337   3.564   4.075  0.4067  0.0564 -0.0994
11104TIP3    H154803   3.292   3.646   4.097 -0.2724  0.0837 -1.4580
11104TIP3    H254804   3.429   3.589   4.069  0.2324  0.6787 -0.2840
11105TIP3   OH254805   1.745   6.405   3.057 -0.3525 -0.4223  0.2825
11105TIP3    H154806   1.824   6.361   3.088 -0.7588 -0.3983  1.4068
11105TIP3    H254807   1.744   6.489   3.103 -1.4194 -0.7475  0.8945
11106TIP3   OH254808   3.338   3.606  16.049  0.1729 -0.0682 -0.1037
11106TIP3    H154809   3.402   3.678  16.052  2.4060 -1.7800 -2.2694
11106TIP3    H254810   3.391   3.527  16.063 -2.0406 -1.4005  1.2383
11107TIP3   OH254811   3.164   6.134   2.651 -0.2084 -0.5038  0.1343
11107TIP3    H154812   3.111   6.076   2.706  0.4473 -0.8761  0.3826
11107TIP3    H254813   3.163   6.093   2.565  0.5401 -1.0777  0.3933
11108TIP3   OH254814   2.836   3.675   5.963 -0.0829 -0.3441  0.1602
11108TIP3    H154815   2.835   3.720   6.047 -0.6759 -1.7757  0.9399
11108TIP3    H254816   2.756   3.622   5.962 -1.0996  1.0675 -2.1262
11109TIP3   OH254817   3.522   3.492  12.562 -0.5651 -0.8315  0.5100
11109TIP3    H154818   3.498   3.453  12.646 -0.4414 -0.5857  0.6618
11109TIP3    H254819   3.541   3.418  12.505  2.6401 -1.0137  1.6456
11110TIP3   OH254820   6.208   3.911  10.673 -0.5006  0.5302 -0.1864
11110TIP3    H154821   6.279   3.934  10.613 -2.0342  0.7499 -2.0237
11110TIP3    H254822   6.232   3.825  10.709  0.5529  0.4857 -0.9861
11111TIP3   OH254823   1.442   0.319  14.509  0.6982  0.2227  0.4596
11111TIP3    H154824   1.419   0.331  14.417  1.0877  1.5114  0.5094
11111TIP3    H254825   1.514   0.380  14.524 -0.6833  1.5677  2.0963
11112TIP3   OH254826   5.645   0.266   5.420  0.1377  0.0911 -0.3113
11112TIP3    H154827   5.646   0.210   5.497 -0.9159 -0.8020 -0.9125
11112TIP3    H254828   5.629   0.354   5.455 -0.9118 -0.3791  0.4708
11113TIP3   OH254829   3.760   1.614   4.244  0.4988 -0.1704 -1.1919
11113TIP3    H154830   3.805   1.588   4.163  2.5400  1.4891 -0.6762
11113TIP3    H254831   3.803   1.563   4.313  1.1287  0.9115 -0.7717
11114TIP3   OH254832   4.933   5.474  11.867 -0.2418 -0.0155  0.4250
11114TIP3    H154833   4.854   5.427  11.894 -1.0966  0.5040 -1.0854
11114TIP3    H254834   4.927   5.479  11.772  2.0697 -0.7216  0.1684
11115TIP3   OH254835   5.099   6.036   0.853  0.4837 -0.3778  0.2747
11115TIP3    H154836   5.014   6.066   0.884 -0.2210 -0.1278 -1.7315
11115TIP3    H254837   5.083   5.945   0.827  0.7020 -0.2233 -0.4374
11116TIP3   OH254838   4.201   4.039  12.236  0.4225 -0.2032  0.0952
11116TIP3    H154839   4.129   4.092  12.272 -0.2044  0.2282 -1.6729
11116TIP3    H254840   4.229   4.088  12.158  0.7881 -1.7355 -0.7803
11117TIP3   OH254841   0.957   3.268   5.893 -0.3876 -0.1546  0.2385
11117TIP3    H154842   0.882   3.215   5.864 -0.6263  0.5030 -0.3726
11117TIP3    H254843   1.009   3.208   5.946 -0.0813 -1.3307 -1.3303
11118TIP3   OH254844   1.695   1.688  16.831  0.3376  0.0705 -0.3542
11118TIP3    H154845   1.675   1.694  16.738  1.0853 -2.0417 -0.6993
11118TIP3    H254846   1.788   1.712  16.837  0.2879  0.2144 -0.1450
11119TIP3   OH254847   0.728   5.204  16.823 -0.5362  0.3346 -0.5760
11119TIP3    H154848   0.689   5.263  16.888  0.9081  0.6266  0.0557
11119TIP3    H254849   0.705   5.116  16.853 -0.9609  0.5089 -0.3862
11120TIP3   OH254850   2.028   5.317   2.075  0.3559 -0.0281  0.0022
11120TIP3    H154851   2.122   5.299   2.077  0.2520 -0.5703  0.2221
11120TIP3    H254852   2.004   5.305   1.983  0.2496 -1.2711  0.1792
11121TIP3   OH254853   5.176   5.258  12.110 -0.3506 -0.0590 -0.4708
11121TIP3    H154854   5.197   5.326  12.046  1.2266  0.0823  0.1661
11121TIP3    H254855   5.194   5.297  12.195  0.3771 -1.1919 -0.0826
11122TIP3   OH254856   3.341   3.672   2.676  0.1640  0.1238 -0.1470
11122TIP3    H154857   3.298   3.661   2.591  1.7335  0.8358 -1.0780
11122TIP3    H254858   3.432   3.647   2.661  1.3788  3.7218  0.3053
11123TIP3   OH254859   2.442   0.329  12.162  0.2320 -0.5445  0.0594
11123TIP3    H154860   2.486   0.293  12.239  1.0059  0.6674  0.2072
11123TIP3    H254861   2.423   0.420  12.186  1.1321  0.0613 -1.4460
11124TIP3   OH254862   0.719   4.409   5.378 -0.5988 -0.4502 -0.4486
11124TIP3    H154863   0.698   4.488   5.329  1.4317 -0.3703 -1.2815
11124TIP3    H254864   0.637   4.387   5.423 -0.6993  3.3423  1.6430
11125TIP3   OH254865   3.681   1.117   1.120  0.3363  0.2976  0.2319
11125TIP3    H154866   3.754   1.161   1.164 -0.3562 -0.2350  1.9775
11125TIP3    H254867   3.719   1.034   1.090  0.5429  0.1716  0.8254
11126TIP3   OH254868   1.255   3.165  17.033  0.3306  0.0423 -0.1101
11126TIP3    H154869   1.258   3.231  17.102 -1.1994 -0.4084  0.4263
11126TIP3    H254870   1.188   3.197  16.973  0.5619 -0.3428 -0.5775
11127TIP3   OH254871   5.955   4.541   5.088 -0.8682 -0.1078 -0.2592
11127TIP3    H154872   5.869   4.535   5.046 -0.8556  0.9342 -0.4565
11127TIP3    H254873   5.939   4.590   5.169 -0.6169 -0.7445  0.1838
11128TIP3   OH254874   0.939   3.405  15.998 -0.3214 -0.6196 -0.0484
11128TIP3    H154875   0.917   3.347  15.926 -2.5202 -0.9513  0.8077
11128TIP3    H254876   0.905   3.491  15.971 -1.4651 -0.8169  0.6810
11129TIP3   OH254877   1.159   2.150  13.802 -0.0928 -0.3182 -0.0368
11129TIP3    H154878   1.205   2.169  13.884 -0.9862 -3.1559  1.2293
11129TIP3    H254879   1.227   2.111  13.745 -0.0432 -0.8007  0.3481
11130TIP3   OH254880   5.507   5.224  16.365  0.9571  0.1806 -0.3085
11130TIP3    H154881   5.580   5.178  16.324  0.4995  0.2717 -1.2675
11130TIP3    H254882   5.472   5.279  16.295  0.2172  0.4358  0.2476
11131TIP3   OH254883   1.825   2.755  16.942 -0.3368  0.2494 -0.4116
11131TIP3    H154884   1.739   2.787  16.970 -1.0190 -0.5911 -1.4831
11131TIP3    H254885   1.806   2.678  16.888  1.1114 -0.1622 -0.3770
11132TIP3   OH254886   6.407   1.451  13.354 -0.6625  0.4328  0.7565
11132TIP3    H154887   6.365   1.411  13.278  0.4349  0.7169 -0.0178
11132TIP3    H254888   6.496   1.416  13.354  0.2995  2.6901  0.1387
11133TIP3   OH254889   6.024   0.462   3.411 -0.1099 -0.4786 -0.4756
11133TIP3    H154890   6.042   0.504   3.495 -0.2189 -1.2725 -0.0448
11133TIP3    H254891   5.978   0.528   3.360  0.9984  0.4210 -0.3524
11134TIP3   OH254892   3.387   3.624   5.402  0.6507 -0.1188  0.0238
11134TIP3    H154893   3.362   3.631   5.310 -0.8154 -0.8270  0.3430
11134TIP3    H254894   3.349   3.701   5.444  0.2431 -0.4461  0.2596
11135TIP3   OH254895   3.956   0.692  13.397  0.0433 -0.0270  0.3565
11135TIP3    H154896   3.861   0.702  13.405 -0.2593 -1.2976 -1.0688
11135TIP3    H254897   3.978   0.735  13.315  0.7671  0.5835  0.8659
11136TIP3   OH254898   4.266   3.009  14.829  0.0429 -0.5800 -0.3102
11136TIP3    H154899   4.194   3.063  14.798 -0.2437 -1.5650 -1.4095
11136TIP3    H254900   4.288   2.953  14.755  0.6212 -1.6698  0.6518
11137TIP3   OH254901   4.955   4.974   6.740  0.4606 -0.4799  0.2193
11137TIP3    H154902   5.010   5.005   6.668 -1.4723  2.9637  0.0040
11137TIP3    H254903   4.892   4.915   6.700 -0.9996  1.8885 -1.1651
11138TIP3   OH254904   5.408   6.095   2.504  0.5398 -0.0206  0.3444
11138TIP3    H154905   5.363   6.011   2.497  0.0112  0.3437 -0.8830
11138TIP3    H254906   5.489   6.083   2.455  0.5593  0.1305  0.3376
11139TIP3   OH254907   4.137   4.854   6.124  0.5433  0.6583  0.1359
11139TIP3    H154908   4.161   4.863   6.216  1.9506  0.5801 -0.1952
11139TIP3    H254909   4.056   4.802   6.125 -0.6054  2.3532  1.4031
11140TIP3   OH254910   2.982   4.812   5.620 -0.5314  0.5770  0.3242
11140TIP3    H154911   3.054   4.853   5.669  0.3702  1.0112 -1.3145
11140TIP3    H254912   2.980   4.859   5.537 -1.4398 -0.7317 -0.4195
11141TIP3   OH254913   0.370   5.744  11.519 -0.3874 -0.4256 -0.2247
11141TIP3    H154914   0.308   5.733  11.447 -0.2769  1.1203 -0.5918
11141TIP3    H254915   0.445   5.688  11.495 -0.2442  0.2571 -1.4552
11142TIP3   OH254916   3.043   3.365  17.353 -0.3608  0.3192  0.0136
11142TIP3    H154917   3.049   3.460  17.344  0.2584  0.3456  0.5666
11142TIP3    H254918   3.015   3.351  17.443 -2.7208  0.0032 -0.7040
11143TIP3   OH254919   1.118   1.179  11.739  0.5680 -0.2944  0.0151
11143TIP3    H154920   1.100   1.271  11.758  0.4693  0.0035 -1.3992
11143TIP3    H254921   1.211   1.168  11.759  0.2285 -0.3024  1.6676
11144TIP3   OH254922   5.136   1.218   1.815 -0.1876  0.1560 -0.0905
11144TIP3    H154923   5.192   1.290   1.840  1.5521 -0.8574 -0.8841
11144TIP3    H254924   5.135   1.160   1.891  0.7241 -0.3313 -0.4392
11145TIP3   OH254925   2.724   5.482   3.570  0.2179 -0.1348  0.3857
11145TIP3    H154926   2.774   5.409   3.607  0.0603  0.7453  2.4985
11145TIP3    H254927   2.633   5.453   3.575  0.1448  0.2330  1.3490
11146TIP3   OH254928   1.274   1.692  15.004  0.5253 -0.0503  0.2407
11146TIP3    H154929   1.324   1.743  15.067  0.3902  1.0149 -0.4819
11146TIP3    H254930   1.287   1.737  14.920 -0.5129 -0.5471 -0.2162
11147TIP3   OH254931   2.086   2.096   2.622  0.0243  0.4469  0.3661
11147TIP3    H154932   2.064   2.181   2.584 -1.4969  0.6677  1.6242
11147TIP3    H254933   2.001   2.059   2.647  0.8071 -0.6103  1.5462
11148TIP3   OH254934   1.299   4.582  12.727 -0.5442 -0.3046 -0.7878
11148TIP3    H154935   1.289   4.654  12.665 -1.4416 -0.7647 -1.2097
11148TIP3    H254936   1.281   4.621  12.812 -2.0276 -0.2118 -1.1149
11149TIP3   OH254937   6.676   0.757  12.837  0.1816 -0.0014  0.2318
11149TIP3    H154938   6.626   0.768  12.918 -0.7726 -0.3279 -0.2963
11149TIP3    H254939   6.623   0.801  12.770  1.6572  1.5273  0.0132
11150TIP3   OH254940   4.290   4.329   5.922 -0.3668  0.2771 -0.3374
11150TIP3    H154941   4.348   4.280   5.863 -1.4830 -0.1797 -1.0805
11150TIP3    H254942   4.233   4.379   5.864 -0.8190  0.6088  0.3833
11151TIP3   OH254943   6.010   5.321  12.992  0.1113 -0.0122  0.0927
11151TIP3    H154944   6.084   5.296  12.936 -1.2286  0.0379 -1.7935
11151TIP3    H254945   5.936   5.272  12.956 -0.8833  0.3185  1.6293
11152TIP3   OH254946   3.642   3.372  13.440 -0.2932 -0.1320  0.0625
11152TIP3    H154947   3.548   3.389  13.428 -0.4232  0.8764  2.1367
11152TIP3    H254948   3.680   3.458  13.461  0.8156 -0.7718  0.7844
11153TIP3   OH254949   6.227   4.279  16.124 -0.0071 -0.2469  0.3085
11153TIP3    H154950   6.255   4.283  16.215  0.9543 -0.0172  0.0161
11153TIP3    H254951   6.257   4.193  16.094  0.0737 -0.1375  0.0776
11154TIP3   OH254952   4.512   4.611   0.815 -0.7945  0.5730  0.0215
11154TIP3    H154953   4.532   4.543   0.751  1.1167  0.0254  1.1162
11154TIP3    H254954   4.555   4.690   0.781 -1.6886  0.8643 -0.4652
11155TIP3   OH254955   5.506   6.566  16.906 -0.1087  0.3718  0.0786
11155TIP3    H154956   5.459   6.484  16.893  2.3152 -1.3653  1.3168
11155TIP3    H254957   5.525   6.597  16.818  0.0712 -1.1463 -0.4462
11156TIP3   OH254958   3.651   2.530   5.966  0.0250 -0.2718 -0.5228
11156TIP3    H154959   3.732   2.482   5.950 -0.5577 -1.8194  0.7850
11156TIP3    H254960   3.670   2.583   6.044 -0.0090 -0.0768 -0.6460
11157TIP3   OH254961   6.677   1.443  16.790  0.1493  0.5232 -0.8755
11157TIP3    H154962   6.607   1.477  16.845 -0.3050  0.4034 -1.3663
11157TIP3    H254963   6.744   1.512  16.791  0.6014  0.0875  0.6303
11158TIP3   OH254964   3.222   4.626   5.771 -0.6035  0.5162  0.4387
11158TIP3    H154965   3.260   4.618   5.859  0.4672 -0.0247 -0.0521
11158TIP3    H254966   3.200   4.719   5.763 -0.5310  0.6079  1.2083
11159TIP3   OH254967   5.186   2.527   3.567  0.5343 -0.0991 -0.0042
11159TIP3    H154968   5.129   2.585   3.516  1.9535  2.0473  0.7302
11159TIP3    H254969   5.274   2.551   3.541  1.2005 -1.2400  1.0846
11160TIP3   OH254970   6.710   3.273   4.656  0.2692 -0.4111 -0.0546
11160TIP3    H154971   6.693   3.241   4.745 -1.8077 -0.0474 -0.2672
11160TIP3    H254972   6.655   3.219   4.600 -0.2601  0.9045 -0.8475
11161TIP3   OH254973   5.213   5.909   6.221 -0.5419 -0.3804 -0.1452
11161TIP3    H154974   5.286   5.847   6.222  0.5258  0.7881 -1.4411
11161TIP3    H254975   5.210   5.944   6.310 -0.9467 -1.9941  0.5132
11162TIP3   OH254976   1.684   5.467  11.497  0.2792  0.0137  0.3747
11162TIP3    H154977   1.621   5.398  11.476 -0.6211  0.9554 -0.1177
11162TIP3    H254978   1.757   5.453  11.436 -1.1958  1.2144 -1.7855
11163TIP3   OH254979   3.553   0.676   1.044  0.4000  0.2412 -0.3197
11163TIP3    H154980   3.583   0.591   1.013 -0.4280 -0.7911  1.5107
11163TIP3    H254981   3.580   0.678   1.136 -1.7415  0.8767  0.3425
11164TIP3   OH254982   4.547   4.895   1.579  0.2601 -0.1889 -0.4651
11164TIP3    H154983   4.516   4.951   1.651 -2.8965  1.3115 -2.7402
11164TIP3    H254984   4.477   4.830   1.568  0.8700 -0.6209 -1.9361
11165TIP3   OH254985   2.730   1.909  17.025 -0.4023  0.3524 -0.1443
11165TIP3    H154986   2.780   1.843  17.073 -0.4049  1.3138  1.2206
11165TIP3    H254987   2.666   1.858  16.974  1.1126 -0.8100 -0.9628
11166TIP3   OH254988   2.093   0.299   6.205 -0.2844  0.4763 -0.3753
11166TIP3    H154989   2.174   0.261   6.171 -0.6461 -1.5266  0.8255
11166TIP3    H254990   2.112   0.315   6.298 -0.7622  1.5291 -0.4477
11167TIP3   OH254991   2.198   3.938   1.522 -0.2320  0.1221 -0.2200
11167TIP3    H154992   2.229   4.023   1.493  1.6252 -0.4725 -0.1362
11167TIP3    H254993   2.163   3.953   1.610 -0.0126  0.8059 -0.2464
11168TIP3   OH254994   6.685   1.529   3.082 -0.1547 -0.3600  0.7109
11168TIP3    H154995   6.643   1.606   3.120 -1.5639 -0.3202 -0.8116
11168TIP3    H254996   6.634   1.455   3.116  0.2876 -0.5203  1.0297
11169TIP3   OH254997   6.479   0.025  13.970 -0.1653  0.1866 -0.2561
11169TIP3    H154998   6.411   0.004  13.906  0.1378 -0.0882 -0.4965
11169TIP3    H254999   6.476   0.120  13.979 -1.6072  0.0527  0.8952
11170TIP3   OH255000   1.041   1.978  14.831 -0.3873 -0.0063 -0.1061
11170TIP3    H155001   1.134   1.959  14.838 -0.2505  0.8739  0.7853
11170TIP3    H255002   1.014   1.938  14.748  0.4691 -1.4398  0.2749
11171TIP3   OH255003   2.390   4.108   5.444 -0.6431 -0.1078 -0.3122
11171TIP3    H155004   2.472   4.067   5.469  0.2711  1.8327  0.0980
11171TIP3    H255005   2.370   4.169   5.515 -1.4311  0.8079 -1.2634
11172TIP3   OH255006   4.903   4.656   5.287 -0.3666 -0.8199 -0.7123
11172TIP3    H155007   4.990   4.696   5.289 -1.8412  2.8109  1.3762
11172TIP3    H255008   4.872   4.670   5.198  0.1585  0.5512 -0.7046
11173TIP3   OH255009   0.740   0.289  12.054 -0.0085  0.0602 -0.0038
11173TIP3    H155010   0.677   0.227  12.016  0.1495 -0.1347  0.0464
11173TIP3    H255011   0.775   0.336  11.978 -0.8217  0.7577  0.0451
11174TIP3   OH255012   3.709   5.506  15.543 -0.0442  0.0394  0.0236
11174TIP3    H155013   3.658   5.426  15.531 -0.0029 -0.1527  1.0288
11174TIP3    H255014   3.679   5.564  15.473 -0.1221 -0.8215 -0.6716
11175TIP3   OH255015   0.718   5.035   3.336  0.0754  0.0026  0.0096
11175TIP3    H155016   0.758   4.950   3.356  0.1290  0.1407  0.4918
11175TIP3    H255017   0.732   5.046   3.242 -1.7440 -1.4936 -0.5206
11176TIP3   OH255018   1.476   5.367  13.788 -0.0406  0.2878 -0.1416
11176TIP3    H155019   1.528   5.443  13.765  1.4746 -0.8254 -0.5336
11176TIP3    H255020   1.520   5.330  13.865  0.6007 -1.4371 -1.2792
11177TIP3   OH255021   0.176   6.028  13.662 -0.1482  0.0584 -0.9397
11177TIP3    H155022   0.103   5.981  13.703 -0.9889  0.3608 -2.0434
11177TIP3    H255023   0.195   5.978  13.583  1.5145 -0.5705 -0.1693
11178TIP3   OH255024   4.798   5.248  11.380 -0.2608  0.0851 -0.0871
11178TIP3    H155025   4.746   5.262  11.301 -0.7858 -0.2158  0.1970
11178TIP3    H255026   4.736   5.213  11.444 -0.3737  2.3791  1.1702
11179TIP3   OH255027   1.295   5.912   3.781 -0.4998 -0.3280 -0.2322
11179TIP3    H155028   1.226   5.911   3.715 -0.1353 -1.9901 -0.6282
11179TIP3    H255029   1.315   5.820   3.797 -0.0168  0.0506  1.6279
11180TIP3   OH255030   0.573   5.971  15.097 -0.1378  0.0389 -0.0202
11180TIP3    H155031   0.644   5.923  15.138 -1.8432 -1.4877  1.3253
11180TIP3    H255032   0.610   6.003  15.014  2.0682 -0.6746  0.6256
11181TIP3   OH255033   1.317   1.180  15.055  0.1284 -0.3426  0.0486
11181TIP3    H155034   1.302   1.271  15.082 -1.9778 -0.5522 -0.2456
11181TIP3    H255035   1.268   1.128  15.119  1.4225 -1.2944  0.2882
11182TIP3   OH255036   6.132   3.231  11.967 -0.0028 -0.4412  0.5171
11182TIP3    H155037   6.105   3.198  11.882 -3.0051  1.0101  0.7874
11182TIP3    H255038   6.147   3.325  11.953 -1.5394  0.0255  1.7391
11183TIP3   OH255039   5.358   1.599   0.817 -0.1465 -0.3549  0.3260
11183TIP3    H155040   5.289   1.555   0.867  1.2874 -2.0636  0.8954
11183TIP3    H255041   5.383   1.536   0.749 -0.0344  0.7747 -0.7318
11184TIP3   OH255042   4.500   2.597  11.237 -0.6297  0.2836  0.2976
11184TIP3    H155043   4.549   2.670  11.274  1.6861  0.0037 -1.9359
11184TIP3    H255044   4.567   2.535  11.207 -2.4456 -1.6525 -0.0667
11185TIP3   OH255045   0.172   3.270  12.064 -0.2770 -0.1344 -0.4530
11185TIP3    H155046   0.142   3.320  11.989 -0.8458  1.2514  0.6497
11185TIP3    H255047   0.134   3.315  12.140  0.9883 -0.9623  0.7253
11186TIP3   OH255048   6.739   1.728   0.513  0.1368  0.1841  0.0070
11186TIP3    H155049   6.754   1.728   0.418  0.0462  1.5460 -0.0273
11186TIP3    H255050   6.812   1.778   0.549 -0.3944  0.5871  0.5468
11187TIP3   OH255051   5.534   3.877   1.596  0.1178 -0.4070 -0.7753
11187TIP3    H155052   5.488   3.793   1.590  0.2086 -0.3775 -2.0886
11187TIP3    H255053   5.467   3.942   1.573 -0.0051 -0.0780  0.4271
11188TIP3   OH255054   3.683   3.313   2.733 -0.2765  0.1816  0.2525
11188TIP3    H155055   3.663   3.287   2.823  0.6616 -1.5609  0.0068
11188TIP3    H255056   3.618   3.265   2.680 -0.2458  0.4785 -0.0528
11189TIP3   OH255057   0.948   6.686  10.542  0.2404  0.2968  0.1290
11189TIP3    H155058   0.878   6.734  10.499  2.0908  1.3514 -1.9417
11189TIP3    H255059   0.993   6.751  10.595  1.7098  0.5308 -1.3245
11190TIP3   OH255060   5.201   5.894  11.165  0.3132  0.0376 -0.3830
11190TIP3    H155061   5.109   5.873  11.150  0.3486 -0.1843 -0.2873
11190TIP3    H255062   5.243   5.882  11.080 -0.0658  1.8737 -0.8821
11191TIP3   OH255063   1.377   4.025  16.592  0.0410  0.3260  0.2122
11191TIP3    H155064   1.369   4.120  16.583  0.8470  0.4064  0.3084
11191TIP3    H255065   1.317   4.003  16.664  2.0373  1.1720  2.2377
11192TIP3   OH255066   4.725   3.835   0.423 -0.9838 -0.1994 -0.2205
11192TIP3    H155067   4.724   3.877   0.336 -0.1255 -0.1187 -0.2046
11192TIP3    H255068   4.679   3.753   0.411 -0.7664 -0.2432 -0.7935
11193TIP3   OH255069   4.856   5.868   5.027  0.2189  0.0063 -0.0504
11193TIP3    H155070   4.823   5.779   5.012 -2.4496  1.1099 -1.3291
11193TIP3    H255071   4.855   5.909   4.941 -0.0777  1.7484  0.7483
11194TIP3   OH255072   0.919   1.280  11.217 -0.2499 -0.5571  0.1681
11194TIP3    H155073   0.953   1.243  11.298  2.0022 -1.8566 -1.2406
11194TIP3    H255074   0.904   1.204  11.160 -0.7618  0.3718 -0.9907
11195TIP3   OH255075   1.485   2.457   1.015 -0.0542 -0.2436 -0.3050
11195TIP3    H155076   1.508   2.395   0.946 -3.4106 -1.5551 -0.4042
11195TIP3    H255077   1.467   2.402   1.091 -0.4705  0.8567  0.4077
11196TIP3   OH255078   1.581   0.419   5.746  0.0622  0.4803  0.0005
11196TIP3    H155079   1.600   0.333   5.784 -0.3847  0.1837 -0.4346
11196TIP3    H255080   1.598   0.481   5.817  0.9121  0.0823  0.1513
11197TIP3   OH255081   3.886   2.019   3.915  0.0694  0.6680  0.2533
11197TIP3    H155082   3.884   1.945   3.853 -2.1708 -0.9888  2.1514
11197TIP3    H255083   3.951   2.079   3.878  0.4980 -1.2873 -2.4628
11198TIP3   OH255084   2.357   0.912   5.490  0.3233 -0.3572  0.2726
11198TIP3    H155085   2.414   0.980   5.455  0.0900  0.8201  2.0735
11198TIP3    H255086   2.401   0.882   5.570 -1.8365  1.0884  2.1155
11199TIP3   OH255087   3.495   2.575  14.380 -0.0689 -0.4065 -0.2357
11199TIP3    H155088   3.439   2.547  14.308 -0.0452 -2.3129  0.4222
11199TIP3    H255089   3.578   2.598  14.339 -0.3465 -0.5723 -0.9025
11200TIP3   OH255090   5.448   0.894   1.197 -0.0844 -0.1178  0.3165
11200TIP3    H155091   5.413   0.811   1.164  0.0911 -0.1697  0.2609
11200TIP3    H255092   5.386   0.921   1.265 -2.1068  1.4382 -1.9388
11201TIP3   OH255093   3.727   1.434  13.363  0.1182 -0.3572  0.4855
11201TIP3    H155094   3.723   1.522  13.399  1.2942  0.5829 -1.5496
11201TIP3    H255095   3.799   1.392  13.410  0.9228  0.4851  0.0356
11202TIP3   OH255096   6.442   4.096   0.123 -0.7322 -0.3951  0.1158
11202TIP3    H155097   6.473   4.007   0.141  0.1725 -0.2611 -0.6841
11202TIP3    H255098   6.393   4.087   0.041  0.7991  0.0983 -0.9033
11203TIP3   OH255099   5.801   5.907  15.489  0.0351  0.8037 -0.0043
11203TIP3    H155100   5.768   5.886  15.402 -0.2135  1.0123  0.0370
11203TIP3    H255101   5.749   5.853  15.548  0.5008  0.3371 -0.0146
11204TIP3   OH255102   0.796   6.059   5.693  0.1696 -0.1486 -0.9997
11204TIP3    H155103   0.867   6.109   5.732 -0.2048 -0.7221  0.5004
11204TIP3    H255104   0.717   6.112   5.709  0.0189 -0.3753 -0.9757
11205TIP3   OH255105   1.490   1.183   5.618 -0.4743  0.5545 -0.4436
11205TIP3    H155106   1.530   1.096   5.613  0.5984  1.0330 -0.5311
11205TIP3    H255107   1.396   1.167   5.612 -0.4675 -0.8079  2.0975
11206TIP3   OH255108   1.353   4.444  15.658 -0.2374  0.0103  0.2881
11206TIP3    H155109   1.373   4.482  15.572  0.1009  2.2772  1.3151
11206TIP3    H255110   1.437   4.411  15.690  0.3614  2.2213  1.1410
11207TIP3   OH255111   6.117   3.990   4.858 -0.4511  0.6286 -0.2655
11207TIP3    H155112   6.081   3.979   4.770 -1.3522  1.7907 -0.0743
11207TIP3    H255113   6.060   4.056   4.899  0.3910  0.6450  0.9344
11208TIP3   OH255114   0.668   3.704   1.601  0.2056 -0.2331  0.4194
11208TIP3    H155115   0.594   3.651   1.633 -0.3349  0.5425  0.4742
11208TIP3    H255116   0.742   3.643   1.599 -0.1500 -0.7179  1.5215
11209TIP3   OH255117   5.572   2.814  12.093 -0.6856 -0.0706 -0.0411
11209TIP3    H155118   5.565   2.903  12.128 -0.0304 -0.3966  0.9897
11209TIP3    H255119   5.661   2.809  12.057 -0.0475 -0.8301  1.5439
11210TIP3   OH255120   3.926   3.384  14.896 -0.1715  0.4639 -0.4775
11210TIP3    H155121   3.871   3.418  14.967  0.9184  3.3478 -0.8544
11210TIP3    H255122   3.992   3.331  14.941  0.1965  1.8193  0.6663
11211TIP3   OH255123   1.153   1.802   1.090  0.8536 -0.6782  0.2638
11211TIP3    H155124   1.116   1.875   1.141 -1.1966 -1.5829  0.1649
11211TIP3    H255125   1.248   1.814   1.097  0.6437  0.0920  3.0551
11212TIP3   OH255126   5.354   2.531   1.845 -0.2698  0.2285 -0.2523
11212TIP3    H155127   5.260   2.532   1.860 -0.2454 -2.1330  0.5084
11212TIP3    H255128   5.385   2.452   1.890  2.2284  1.4420  0.3506
11213TIP3   OH255129   4.533   1.284   5.375 -0.3676 -0.8316 -0.3393
11213TIP3    H155130   4.605   1.271   5.437  0.8359  0.0410 -1.4799
11213TIP3    H255131   4.475   1.347   5.418  0.5832 -0.0434 -0.1867
11214TIP3   OH255132   2.408   1.731  15.029 -0.2058 -0.6361 -0.5880
11214TIP3    H155133   2.417   1.645  14.987  0.1960 -0.3197 -1.1603
11214TIP3    H255134   2.355   1.714  15.106  0.5397 -1.5372 -0.2573
11215TIP3   OH255135   0.493   3.915   5.049 -0.0409 -0.3965  0.5776
11215TIP3    H155136   0.456   3.976   5.113  1.2502  1.3934 -0.3107
11215TIP3    H255137   0.564   3.872   5.096  0.6412  0.6208  0.5175
11216TIP3   OH255138   6.012   0.455  12.663 -0.0690 -0.2107  0.0936
11216TIP3    H155139   6.013   0.516  12.590  0.4423  1.5710  1.5076
11216TIP3    H255140   6.098   0.412  12.659  0.7303  1.2449  0.6782
11217TIP3   OH255141   5.774   6.563   2.002 -0.0184 -0.1795 -0.2029
11217TIP3    H155142   5.717   6.537   1.931  0.4449 -0.2583 -0.5532
11217TIP3    H255143   5.776   6.488   2.061 -1.0472  0.1891  0.3159
11218TIP3   OH255144   6.368   1.913   2.378 -0.0101  0.2843  0.2775
11218TIP3    H155145   6.436   1.894   2.442 -0.5739 -0.1007  0.7678
11218TIP3    H255146   6.309   1.974   2.423 -1.5873 -1.6348  0.9175
11219TIP3   OH255147   5.648   1.192  12.373  0.1408 -0.0672  0.4804
11219TIP3    H155148   5.569   1.210  12.423  0.2899 -0.4145  0.8494
11219TIP3    H255149   5.687   1.116  12.417  0.9138  0.3793  0.5911
11220TIP3   OH255150   3.943   4.442   3.176 -0.3050  0.0815 -0.0745
11220TIP3    H155151   3.941   4.366   3.234 -0.1641 -0.3279 -0.5998
11220TIP3    H255152   4.026   4.434   3.129 -0.1071  0.7734  0.1479
11221TIP3   OH255153   5.407   2.192  16.629  0.0320 -0.3970  0.1685
11221TIP3    H155154   5.316   2.202  16.598  0.0061  1.2795  0.6976
11221TIP3    H255155   5.408   2.107  16.673 -1.5974  0.0236  1.1126
11222TIP3   OH255156   0.368   2.496  13.529 -0.0447 -0.1149 -0.0577
11222TIP3    H155157   0.456   2.459  13.519 -0.1527 -0.6020  0.7381
11222TIP3    H255158   0.348   2.485  13.622 -0.6524  0.6686 -0.0852
11223TIP3   OH255159   0.135   5.384   1.032 -0.2087 -0.1234  0.3740
11223TIP3    H155160   0.101   5.421   0.951  1.0753  0.2819 -0.0095
11223TIP3    H255161   0.080   5.308   1.049 -0.2571 -0.4378 -1.0848
11224TIP3   OH255162   3.292   5.890   3.057  0.2041  0.1886 -0.0131
11224TIP3    H155163   3.242   5.863   3.134  0.0682 -0.0893 -0.1961
11224TIP3    H255164   3.277   5.984   3.050  1.1262  0.4254  0.9534
11225TIP3   OH255165   3.298   2.590   6.460 -0.0360 -0.0731 -0.9107
11225TIP3    H155166   3.238   2.644   6.510  0.9863  2.7920 -2.5312
11225TIP3    H255167   3.357   2.552   6.525 -0.8640  0.6703  0.3134
11226TIP3   OH255168   6.667   1.534  11.973  0.2848  0.2854  0.2319
11226TIP3    H155169   6.591   1.502  11.926  1.1786 -0.4981 -0.7229
11226TIP3    H255170   6.631   1.592  12.040 -1.1528 -0.2239 -0.0655
11227TIP3   OH255171   2.406   6.630   5.762  0.4908  0.3445 -0.4174
11227TIP3    H155172   2.334   6.578   5.729  0.4977  0.9961 -1.5197
11227TIP3    H255173   2.386   6.720   5.736  0.9183  0.7822  0.6567
11228TIP3   OH255174   5.707   1.218  14.058  0.6345  0.0569  0.2851
11228TIP3    H155175   5.638   1.215  13.991  0.6776 -1.5680  0.2779
11228TIP3    H255176   5.750   1.303  14.044 -0.1202  0.2584 -0.9698
11229TIP3   OH255177   6.364   0.492  11.995  0.5640  0.7455  0.2674
11229TIP3    H155178   6.356   0.418  11.934 -1.3920  0.5004  0.7609
11229TIP3    H255179   6.404   0.454  12.073  0.5432  0.4336  0.1280
11230TIP3   OH255180   1.875   2.772  11.741 -0.4929  0.5823  0.2906
11230TIP3    H155181   1.845   2.856  11.776 -0.1375 -0.0052  2.0946
11230TIP3    H255182   1.795   2.724  11.720 -0.7499  0.7139  0.9324
11231TIP3   OH255183   3.785   2.693  14.613 -0.0993  0.0717  0.3501
11231TIP3    H155184   3.782   2.725  14.704  0.2212  1.8980 -0.2262
11231TIP3    H255185   3.718   2.744  14.568 -0.7958 -1.3708 -0.3099
11232TIP3   OH255186   1.565   2.663  12.975  0.0416 -0.3600  0.1886
11232TIP3    H155187   1.579   2.570  12.994  1.9219 -0.5093 -1.4723
11232TIP3    H255188   1.485   2.666  12.923 -1.4534 -0.6804  2.3387
11233TIP3   OH255189   5.713   4.945  13.445 -0.2580  0.2691 -0.2339
11233TIP3    H155190   5.697   4.921  13.354 -0.7339  2.8870 -0.9426
11233TIP3    H255191   5.630   4.985  13.473  0.0084 -0.1637  1.2365
11234TIP3   OH255192   1.111   2.623  16.806 -0.2212 -0.7341 -0.5827
11234TIP3    H155193   1.056   2.618  16.885  0.1813  4.7197  0.4594
11234TIP3    H255194   1.051   2.650  16.737  0.3614  1.0163 -0.4540
11235TIP3   OH255195   6.533   5.360  14.226 -0.0162  0.2059  0.5207
11235TIP3    H155196   6.489   5.441  14.200  0.3057 -0.2591 -1.6554
11235TIP3    H255197   6.626   5.375  14.204  0.0043 -0.8217 -0.1738
11236TIP3   OH255198   1.361   1.368   2.335  0.5263 -0.2425  0.4241
11236TIP3    H155199   1.271   1.378   2.305  0.7183  1.7202  0.3935
11236TIP3    H255200   1.353   1.350   2.429  0.1015  1.8543  0.8407
11237TIP3   OH255201   0.887   3.976   1.053  0.0192 -0.3236  0.3140
11237TIP3    H155202   0.968   4.025   1.041 -0.2930  0.2036  0.3261
11237TIP3    H255203   0.864   3.945   0.965 -0.0813  0.0355  0.2118
11238TIP3   OH255204   2.341   2.582   4.398  0.3108 -0.1358  0.0579
11238TIP3    H155205   2.396   2.512   4.363  0.6579  0.2998 -0.2774
11238TIP3    H255206   2.360   2.658   4.343 -1.1661 -0.1618 -0.5411
11239TIP3   OH255207   5.060   3.688  11.487  0.1261 -0.2469  0.2599
11239TIP3    H155208   5.033   3.757  11.547 -1.3386  0.3027 -0.9582
11239TIP3    H255209   5.144   3.718  11.452 -0.3388  0.7704 -0.0074
11240TIP3   OH255210   1.308   0.889  11.547 -0.0773 -0.2775 -0.0641
11240TIP3    H155211   1.305   0.980  11.577  1.0895 -0.1232 -0.3439
11240TIP3    H255212   1.349   0.841  11.619 -0.0416 -0.4436 -0.1933
11241TIP3   OH255213   5.273   5.238  17.352 -0.5405 -0.0642  0.1737
11241TIP3    H155214   5.277   5.296  17.276  1.3283  0.8918  0.9398
11241TIP3    H255215   5.190   5.192  17.342 -0.5633  0.3537 -2.1970
11242TIP3   OH255216   4.447   3.650  11.259  0.0066  0.4621  0.0070
11242TIP3    H155217   4.504   3.621  11.188 -0.7779  0.8794 -0.8263
11242TIP3    H255218   4.436   3.744  11.244 -2.3317  0.1143 -0.9804
11243TIP3   OH255219   6.517   0.827   1.000  0.2983 -0.2088 -0.3433
11243TIP3    H155220   6.491   0.743   0.964  0.3371 -0.2981 -0.1638
11243TIP3    H255221   6.576   0.806   1.073  1.4721  0.0177 -1.2062
11244TIP3   OH255222   4.040   1.174  12.359 -0.7643  0.1233  0.1343
11244TIP3    H155223   3.988   1.211  12.289 -1.8963  1.2789  1.5297
11244TIP3    H255224   3.987   1.186  12.438  1.1562  0.4332  1.4580
11245TIP3   OH255225   2.032   6.219  16.508  0.3144 -0.1070  0.4409
11245TIP3    H155226   2.112   6.190  16.464  1.3423 -0.0235  2.1715
11245TIP3    H255227   1.975   6.141  16.508 -0.0385  0.0945 -1.6219
11246TIP3   OH255228   3.764   2.262  16.230 -0.1149  0.0521 -0.3051
11246TIP3    H155229   3.753   2.240  16.322  0.0139  0.2754 -0.2344
11246TIP3    H255230   3.680   2.298  16.203 -0.3175 -0.5011 -0.4142
11247TIP3   OH255231   5.235   6.621   6.069  0.3139 -0.2773  0.4545
11247TIP3    H155232   5.172   6.549   6.069  0.6734 -0.6306  1.6868
11247TIP3    H255233   5.320   6.578   6.084  0.5757  0.3581  0.8502
11248TIP3   OH255234   2.618   1.483   6.482 -0.7163 -0.5771  0.0000
11248TIP3    H155235   2.524   1.476   6.464 -0.6410 -1.3117 -0.1280
11248TIP3    H255236   2.634   1.578   6.490 -1.2507 -0.3775 -1.1143
11249TIP3   OH255237   3.774   5.002   1.930 -0.1047  0.4006 -0.2709
11249TIP3    H155238   3.775   4.910   1.906  0.1359  0.6721 -1.3815
11249TIP3    H255239   3.684   5.019   1.959 -0.3062 -0.0472 -0.6273
11250TIP3   OH255240   2.070   3.577   0.341  0.2226  0.3638  0.5815
11250TIP3    H155241   2.090   3.603   0.251 -3.3076  1.5921 -0.0178
11250TIP3    H255242   2.093   3.653   0.394  2.1489 -0.3023  0.8098
11251TIP3   OH255243   6.500   3.942  13.433 -0.1604 -0.4295  0.1533
11251TIP3    H155244   6.550   4.023  13.420 -2.3519  0.9932  0.1418
11251TIP3    H255245   6.469   3.920  13.345  0.4643 -1.3578  0.1485
11252TIP3   OH255246   2.661   1.406  14.023 -0.0601  0.1820  0.0759
11252TIP3    H155247   2.589   1.463  14.049  0.4722  1.1493 -0.5119
11252TIP3    H255248   2.696   1.445  13.943  1.0575 -0.3176  0.2908
11253TIP3   OH255249   0.384   2.690  15.831  0.4959  0.6820  0.2805
11253TIP3    H155250   0.432   2.761  15.873  2.3032  1.4436 -2.6851
11253TIP3    H255251   0.448   2.619  15.825 -0.0034  0.2670 -0.2887
11254TIP3   OH255252   4.631   5.720  16.776 -0.4054 -0.3987  0.1046
11254TIP3    H155253   4.708   5.767  16.807 -1.5405  0.3337  1.9980
11254TIP3    H255254   4.566   5.788  16.761 -0.9376 -1.0689 -0.7145
11255TIP3   OH255255   0.810   4.608   6.351  0.1519  0.1362  0.3187
11255TIP3    H155256   0.885   4.592   6.408  0.5804  1.0085  0.0146
11255TIP3    H255257   0.763   4.525   6.349  1.8773 -0.8584 -0.6182
11256TIP3   OH255258   6.586   3.797  12.799  0.0148  0.1855 -0.2295
11256TIP3    H155259   6.619   3.749  12.723 -0.6462  2.3705 -2.0199
11256TIP3    H255260   6.635   3.880  12.798 -0.9703  0.8056  0.9030
11257TIP3   OH255261   5.166   4.147   4.917  0.1945 -0.4699  0.2318
11257TIP3    H155262   5.130   4.067   4.956 -0.3313 -1.3128 -1.7989
11257TIP3    H255263   5.181   4.123   4.825  0.9369  1.4974 -0.2049
11258TIP3   OH255264   4.628   0.088   4.122 -0.0635  0.7466 -0.5568
11258TIP3    H155265   4.545   0.089   4.074 -1.3256  0.8763  1.5035
11258TIP3    H255266   4.658  -0.002   4.116 -0.9388  0.4377 -0.3648
11259TIP3   OH255267   5.923   3.072   5.062 -0.9092  0.3675 -0.3070
11259TIP3    H155268   5.937   3.119   5.145 -1.2008  1.1598 -0.7010
11259TIP3    H255269   5.995   3.009   5.059 -0.8494  0.3743  0.5184
11260TIP3   OH255270   2.928   2.664  13.578 -0.0259 -0.8546 -0.6646
11260TIP3    H155271   2.950   2.730  13.512 -1.0441  0.2510  0.0698
11260TIP3    H255272   3.002   2.664  13.638  0.4303 -1.1156 -1.2193
11261TIP3   OH255273   3.499   5.139  13.189  0.2947  0.0127 -0.0676
11261TIP3    H155274   3.563   5.098  13.131  0.3668 -0.6662  0.4808
11261TIP3    H255275   3.422   5.153  13.134  0.5918 -0.0001 -0.4938
11262TIP3   OH255276   0.456   1.494  16.352 -0.4432 -0.3408  0.5506
11262TIP3    H155277   0.418   1.518  16.267  1.2501  3.9294  0.7477
11262TIP3    H255278   0.388   1.514  16.415 -0.4671 -0.0136  0.4225
11263TIP3   OH255279   1.970   4.965   6.110 -0.1519 -0.0796  0.9411
11263TIP3    H155280   1.937   4.967   6.020  1.0232 -2.0665  0.3892
11263TIP3    H255281   1.892   4.954   6.164 -0.9167  1.5742  0.2359
11264TIP3   OH255282   0.428   2.866   3.106 -0.0101 -0.1160  0.2488
11264TIP3    H155283   0.410   2.788   3.158  1.2990 -2.1102 -2.0780
11264TIP3    H255284   0.415   2.939   3.167 -1.3844 -2.0907  2.5118
11265TIP3   OH255285   1.396   3.061  14.722  0.2740 -0.1315 -0.0131
11265TIP3    H155286   1.328   3.063  14.655  0.3886 -0.4889 -0.1387
11265TIP3    H255287   1.371   3.131  14.783 -0.4967 -0.6034  0.2354
11266TIP3   OH255288   1.574   4.288  15.649 -0.0637  0.2083  0.0544
11266TIP3    H155289   1.523   4.215  15.683  0.2483  0.4613  1.0820
11266TIP3    H255290   1.620   4.251  15.573 -0.2589 -0.5376  0.2888
11267TIP3   OH255291   5.896   4.720  12.177 -0.3760 -0.2054 -0.3454
11267TIP3    H155292   5.899   4.761  12.091  0.9754  1.4962  0.4503
11267TIP3    H255293   5.983   4.682  12.189  0.2118  1.4367  1.0651
11268TIP3   OH255294   4.773   6.566  14.733 -0.0778 -0.2662  0.2008
11268TIP3    H155295   4.722   6.525  14.663 -1.1871 -0.8720  1.3182
11268TIP3    H255296   4.759   6.660  14.722  1.3283 -0.2249 -1.5287
11269TIP3   OH255297   3.330   4.126   5.523 -0.1028 -0.1712 -0.7623
11269TIP3    H155298   3.403   4.172   5.482 -0.3780  0.2547 -0.7913
11269TIP3    H255299   3.252   4.172   5.490 -0.3504 -0.1702 -0.1887
11270TIP3   OH255300   2.145   2.456   4.127 -0.0472  0.3376 -0.6655
11270TIP3    H155301   2.175   2.484   4.213 -1.1993  0.2013 -0.1950
11270TIP3    H255302   2.140   2.361   4.133 -2.1603  0.4286 -0.1344
11271TIP3   OH255303   1.884   3.680  11.772  0.3625  0.4691 -0.1822
11271TIP3    H155304   1.936   3.682  11.692  0.3187 -2.7781 -0.4266
11271TIP3    H255305   1.947   3.691  11.843  1.1181 -1.1081 -0.5644
11272TIP3   OH255306   0.417   1.392   3.433 -0.0123 -0.1466  0.6073
11272TIP3    H155307   0.441   1.396   3.526  1.0137  0.1697  0.3511
11272TIP3    H255308   0.363   1.470   3.419  0.6296  0.3357  0.7443
11273TIP3   OH255309   6.501   2.051   3.479  0.2880 -0.4054  0.0282
11273TIP3    H155310   6.469   2.077   3.392  0.5494  1.5393  0.4796
11273TIP3    H255311   6.575   1.993   3.461 -0.7060 -1.4092 -1.0255
11274TIP3   OH255312   5.416   0.218   1.034  0.2148  0.3018 -0.4627
11274TIP3    H155313   5.363   0.177   0.966  0.2564  2.3726 -1.8252
11274TIP3    H255314   5.505   0.219   0.997  0.2938  1.1862 -0.2584
11275TIP3   OH255315   1.669   1.269   4.256  0.5059  0.1040  0.0373
11275TIP3    H155316   1.759   1.261   4.286  0.6633 -0.5524 -0.6094
11275TIP3    H255317   1.672   1.335   4.187  0.8378 -1.2912 -1.3337
11276TIP3   OH255318   0.269   3.756   6.135 -0.0813 -0.4169 -0.2187
11276TIP3    H155319   0.174   3.765   6.128 -0.0890  1.2571  1.4325
11276TIP3    H255320   0.283   3.708   6.216  0.5082  1.0616  0.5819
11277TIP3   OH255321   4.333   2.014   3.377  0.1834 -0.1161  0.5213
11277TIP3    H155322   4.346   1.938   3.320 -1.4140 -0.7030  0.8800
11277TIP3    H255323   4.392   2.080   3.342  2.2540 -1.7677  0.7072
11278TIP3   OH255324   0.262   0.810   6.015 -0.1599 -0.6617 -0.7879
11278TIP3    H155325   0.321   0.763   6.074 -0.0711 -0.2549 -0.5459
11278TIP3    H255326   0.242   0.891   6.061  1.4098  0.5505 -2.0686
11279TIP3   OH255327   0.449   1.917   0.627  0.2149  0.1308  0.7527
11279TIP3    H155328   0.436   1.908   0.533  1.0444 -1.3102  0.7446
11279TIP3    H255329   0.428   2.008   0.645  0.9855  0.7105 -0.9984
11280TIP3   OH255330   5.159   4.021   0.215  0.3200  0.6724 -0.1049
11280TIP3    H155331   5.150   4.107   0.256  0.8020  0.0740  1.3288
11280TIP3    H255332   5.075   3.977   0.230  0.7524  0.1763  0.9470
11281TIP3   OH255333   0.289   4.712  13.721  0.0591  0.3857  0.1004
11281TIP3    H155334   0.308   4.633  13.670  1.0026  0.1195  0.8307
11281TIP3    H255335   0.277   4.681  13.811  1.7685  1.1730  0.6552
11282TIP3   OH255336   1.365   1.478   1.297  0.3277 -0.1317  0.2286
11282TIP3    H155337   1.427   1.425   1.246  1.4142  1.0321  0.2802
11282TIP3    H255338   1.418   1.550   1.332 -1.1863  1.3244 -0.3038
11283TIP3   OH255339   4.415   1.250   5.122  0.0415  0.2602 -0.0782
11283TIP3    H155340   4.400   1.253   5.216  0.1849 -1.1192  0.0023
11283TIP3    H255341   4.446   1.161   5.105 -1.3182  0.0299 -1.6089
11284TIP3   OH255342   5.676   2.453  12.229 -0.0045  0.0414  0.1278
11284TIP3    H155343   5.739   2.433  12.298 -0.5545 -1.8891  0.1367
11284TIP3    H255344   5.604   2.496  12.274  1.2189  2.2220  0.1244
11285TIP3   OH255345   6.046   2.515   5.428  0.0453  0.2711  0.2665
11285TIP3    H155346   6.116   2.487   5.486 -0.8683  1.5769  2.1006
11285TIP3    H255347   6.028   2.438   5.373  3.7674  0.3014 -1.2998
11286TIP3   OH255348   0.262   6.071  14.831 -0.4221 -0.0222 -0.1946
11286TIP3    H155349   0.205   6.101  14.902 -0.2550  1.5846 -0.6980
11286TIP3    H255350   0.252   5.976  14.831 -1.3142  0.0379  1.2220
11287TIP3   OH255351   6.499   6.362  14.909 -0.3095 -0.1373 -0.4832
11287TIP3    H155352   6.545   6.415  14.974  0.2740 -0.6146 -0.5034
11287TIP3    H255353   6.552   6.283  14.900 -0.9435 -0.5383 -0.7687
11288TIP3   OH255354   5.026   5.785   0.778  0.1227 -0.5237 -0.8931
11288TIP3    H155355   5.074   5.710   0.813 -1.1522 -0.2638  1.6307
11288TIP3    H255356   4.936   5.755   0.772 -0.5893  1.0132  1.0758
11289TIP3   OH255357   1.798   1.857  11.293  0.0627 -0.1567  0.0205
11289TIP3    H155358   1.706   1.848  11.269  0.3848 -0.6722 -1.0652
11289TIP3    H255359   1.815   1.781  11.350  0.2777 -1.1037 -1.2773
11290TIP3   OH255360   0.064   4.270  15.909 -0.0572  0.4803  0.0359
11290TIP3    H155361   0.099   4.334  15.971 -0.1042  0.6662 -0.1267
11290TIP3    H255362   0.120   4.193  15.919  1.2214  1.2031 -1.1276
11291TIP3   OH255363   4.955   1.696  11.908 -0.2091  0.3128 -0.3593
11291TIP3    H155364   4.931   1.630  11.973  1.5534  0.1160  0.1526
11291TIP3    H255365   4.963   1.778  11.958 -0.4630  0.5119 -0.6380
11292TIP3   OH255366   0.702   0.172  16.147 -0.2862  0.4262 -0.1833
11292TIP3    H155367   0.621   0.185  16.098 -0.2678 -0.4588 -0.4575
11292TIP3    H255368   0.765   0.139  16.083 -0.8208 -2.7080  0.7449
11293TIP3   OH255369   3.267   3.627   1.994  0.0078 -0.6985  0.3333
11293TIP3    H155370   3.334   3.583   1.940  0.2339 -1.6040  1.3144
11293TIP3    H255371   3.243   3.562   2.059 -1.4631 -0.1874  0.3298
11294TIP3   OH255372   3.394   2.988   1.604 -0.0105  0.6912  0.4842
11294TIP3    H155373   3.477   2.976   1.652  0.9249  0.7420 -1.0668
11294TIP3    H255374   3.348   2.905   1.617  0.4094  0.5493  1.1291
11295TIP3   OH255375   1.584   0.973   4.625  0.3238 -0.1127  0.5012
11295TIP3    H155376   1.580   0.941   4.715  3.1198  0.3667  0.8878
11295TIP3    H255377   1.674   0.954   4.597 -0.3850  0.0349 -2.1035
11296TIP3   OH255378   0.494   0.252  17.311  0.4130  0.5242  0.3722
11296TIP3    H155379   0.403   0.256  17.339  0.1014 -0.8229 -0.3983
11296TIP3    H255380   0.513   0.159  17.301  1.5468  0.8269 -0.5417
11297TIP3   OH255381   1.583   6.521  15.895 -0.2753 -0.5153 -0.0727
11297TIP3    H155382   1.600   6.480  15.810  2.4177 -0.2596  0.2333
11297TIP3    H255383   1.669   6.552  15.923 -1.0122 -0.8795  2.9126
11298TIP3   OH255384   0.063   2.175  16.173 -0.4143  0.3653 -0.1105
11298TIP3    H155385   0.106   2.220  16.246  1.4204  1.7899 -1.9496
11298TIP3    H255386  -0.027   2.162  16.203  0.2795  0.8075  2.4075
11299TIP3   OH255387   6.178   0.940  13.634 -0.2744 -0.1436 -0.1534
11299TIP3    H155388   6.176   0.889  13.553  1.4739 -1.3534  0.5110
11299TIP3    H255389   6.151   1.028  13.608  1.3147 -0.2083 -2.2822
11300TIP3   OH255390   2.956   3.185   6.308 -0.5234 -0.3089  0.6169
11300TIP3    H155391   2.913   3.172   6.392  1.5725 -2.2437  1.4726
11300TIP3    H255392   3.042   3.223   6.330  0.6287 -2.1431 -0.4735
11301TIP3   OH255393   2.898   0.549   6.498 -0.6102 -0.4670  0.4710
11301TIP3    H155394   2.815   0.506   6.520 -0.1032 -1.6213  0.1997
11301TIP3    H255395   2.964   0.495   6.541  0.0517  0.0052  0.0497
11302TIP3   OH255396   2.516   1.782   2.693 -0.0925  0.2256 -0.4934
11302TIP3    H155397   2.561   1.700   2.672  1.2791 -0.2143  3.3410
11302TIP3    H255398   2.575   1.850   2.662  0.6033 -0.3204 -0.3986
11303TIP3   OH255399   1.796   1.162  16.413  0.4521  0.0303 -0.3232
11303TIP3    H155400   1.836   1.219  16.479 -0.8661 -0.0664  0.5920
11303TIP3    H255401   1.810   1.209  16.330  0.0692  1.3123  0.3096
11304TIP3   OH255402   2.408   0.756   1.018  0.6383 -0.0619  0.1436
11304TIP3    H155403   2.392   0.848   0.997 -1.2100 -0.7545 -1.9447
11304TIP3    H255404   2.471   0.727   0.952  2.8136  0.1319  2.0385
11305TIP3   OH255405   0.648   4.311   4.725 -0.4349  0.5356  0.6162
11305TIP3    H155406   0.564   4.274   4.750 -0.8918  1.5725  0.6343
11305TIP3    H255407   0.644   4.402   4.753  1.0545  0.3663  1.4793
11306TIP3   OH255408   4.268   4.139   1.917 -0.2064  0.2123 -0.4682
11306TIP3    H155409   4.329   4.136   1.844  0.2554  1.0724 -0.1371
11306TIP3    H255410   4.225   4.054   1.917  0.9410 -0.3772 -0.7570
11307TIP3   OH255411   0.820   2.068   0.854  0.4782  0.3382  0.2139
11307TIP3    H155412   0.854   2.149   0.892 -0.8729  0.2909  1.6178
11307TIP3    H255413   0.803   2.089   0.762  1.0820  1.3427  0.3274
11308TIP3   OH255414   0.922   6.441  12.555  1.0300 -0.2198 -0.0586
11308TIP3    H155415   0.846   6.384  12.567  0.8222 -0.4705 -2.2292
11308TIP3    H255416   0.892   6.527  12.587  0.0872 -0.4736 -0.2247
11309TIP3   OH255417   1.088   1.705   2.241  0.1301 -0.8109 -0.6954
11309TIP3    H155418   1.153   1.765   2.203 -0.7412  1.8429  1.6427
11309TIP3    H255419   1.005   1.732   2.202 -0.1959 -0.9945 -0.1312
11310TIP3   OH255420   4.068   5.786  15.487 -0.0242 -0.2336 -0.0836
11310TIP3    H155421   4.150   5.772  15.439  0.8608 -0.7090  1.4518
11310TIP3    H255422   4.097   5.815  15.574 -1.5517  1.0468  0.0404
11311TIP3   OH255423   0.087   4.886  15.740 -0.6357  0.0001  0.1273
11311TIP3    H155424   0.171   4.926  15.718 -0.3335 -1.1074 -0.8202
11311TIP3    H255425   0.028   4.960  15.754  0.2832  0.7834 -0.0619
11312TIP3   OH255426   5.656   0.713   1.390  1.2365 -0.5076  0.1302
11312TIP3    H155427   5.624   0.635   1.436  0.3673 -0.6572 -0.7116
11312TIP3    H255428   5.637   0.785   1.450 -2.2630 -0.3583 -0.9669
11313TIP3   OH255429   1.662   5.041  11.186 -0.1310  0.5691 -0.5100
11313TIP3    H155430   1.620   5.105  11.128  0.2725  0.6484 -0.7201
11313TIP3    H255431   1.661   4.959  11.136 -1.3402  0.2173  0.0637
11314TIP3   OH255432   1.406   0.257   3.073  0.9030  0.1077 -0.6043
11314TIP3    H155433   1.474   0.208   3.027  0.2259  0.6833 -2.2828
11314TIP3    H255434   1.324   0.230   3.031  0.2789  0.8529  0.0974
11315TIP3   OH255435   1.296   4.483   5.187 -0.4271 -0.3213  0.2704
11315TIP3    H155436   1.382   4.518   5.162 -0.1252 -0.8200  0.6032
11315TIP3    H255437   1.280   4.516   5.275  0.3071 -1.7804  0.9945
11316TIP3   OH255438   0.286   4.532   5.236  0.1312  0.5734 -0.1106
11316TIP3    H155439   0.337   4.495   5.165 -0.9415 -0.7472 -0.2318
11316TIP3    H255440   0.336   4.608   5.265  0.8275  0.8415 -1.9370
11317TIP3   OH255441   2.265   3.505  14.447 -0.1299  0.2365  0.2234
11317TIP3    H155442   2.344   3.453  14.456 -0.1238  0.1784 -0.1396
11317TIP3    H255443   2.255   3.549  14.532  0.6625  0.7716  0.0537
11318TIP3   OH255444   6.177   2.416   5.921  0.1162  0.2239 -0.2097
11318TIP3    H155445   6.127   2.402   5.841 -1.0119 -2.3708  0.8282
11318TIP3    H255446   6.262   2.374   5.904 -0.2888 -0.7367  0.0691
11319TIP3   OH255447   2.996   3.194   3.954  0.3141  0.4789 -0.1202
11319TIP3    H155448   2.964   3.284   3.957  1.0715  0.7766 -0.6204
11319TIP3    H255449   3.087   3.202   3.925  1.1446 -0.2509  2.0706
11320TIP3   OH255450   1.556   5.094   0.472 -0.4434  0.4673 -0.3618
11320TIP3    H155451   1.490   5.154   0.506  1.4190  2.6653 -0.3721
11320TIP3    H255452   1.619   5.086   0.544 -0.9898 -2.1562 -0.0800
11321TIP3   OH255453   1.606   3.515  15.198 -0.1203  0.0187 -0.7963
11321TIP3    H155454   1.674   3.558  15.146 -1.2932  0.2082 -2.2262
11321TIP3    H255455   1.592   3.431  15.154  0.4239 -0.8280  0.5558
11322TIP3   OH255456   1.505   6.672  12.767 -0.0283  0.6292 -0.5690
11322TIP3    H155457   1.583   6.629  12.802 -0.7911  0.5309  1.1139
11322TIP3    H255458   1.537   6.726  12.694  1.7503  1.2718  0.6250
11323TIP3   OH255459   1.627   0.414   6.368 -0.3143 -0.2567  0.3072
11323TIP3    H155460   1.614   0.321   6.350  0.1517 -0.3223  0.3046
11323TIP3    H255461   1.636   0.454   6.281  3.2318 -0.7570  0.3059
11324TIP3   OH255462   4.171   5.710   6.493  0.4355 -0.2960  0.0750
11324TIP3    H155463   4.234   5.662   6.546  2.0724  1.2479 -0.3556
11324TIP3    H255464   4.189   5.802   6.512 -1.4620  0.2160 -0.3686
11325TIP3   OH255465   1.890   1.507   4.435  0.2873 -0.0525 -0.3036
11325TIP3    H155466   1.942   1.585   4.414  1.2679  0.0420  2.2020
11325TIP3    H255467   1.942   1.434   4.402  1.7339  0.1002  1.4595
11326TIP3   OH255468   0.951   0.141   5.579 -0.9923  0.3277  0.1966
11326TIP3    H155469   0.914   0.053   5.582 -0.2151 -0.0110  0.0194
11326TIP3    H255470   0.904   0.189   5.647  0.1809 -0.8674  1.9333
11327TIP3   OH255471   5.995   5.116  11.764 -0.0221 -0.4396  0.3571
11327TIP3    H155472   6.087   5.111  11.789  0.1070  0.7408  0.1722
11327TIP3    H255473   5.947   5.105  11.846  0.2827 -0.9564  0.4682
11328TIP3   OH255474   2.307   3.941   3.213  0.1115 -0.3222  0.1867
11328TIP3    H155475   2.282   4.033   3.217 -1.3358 -0.7201  1.3588
11328TIP3    H255476   2.403   3.941   3.219  0.0569  1.0640  1.7417
11329TIP3   OH255477   0.704   4.659   5.756  0.2711 -0.2212 -0.1150
11329TIP3    H155478   0.780   4.694   5.801  0.9376  0.4475 -1.6844
11329TIP3    H255479   0.650   4.620   5.825  0.4406  2.1704  1.4545
11330TIP3   OH255480   4.627   1.638  10.981 -0.2581 -0.0600  0.1301
11330TIP3    H155481   4.603   1.585  10.904 -1.2273  0.5241  0.0138
11330TIP3    H255482   4.562   1.614  11.047  1.3013 -1.4851  1.2227
11331TIP3   OH255483   2.119   0.549  13.620 -0.3334  0.2077 -0.0161
11331TIP3    H155484   2.137   0.554  13.526  0.0796 -1.5902 -0.0775
11331TIP3    H255485   2.187   0.489  13.654 -1.1627 -0.0721  1.2189
11332TIP3   OH255486   1.483   5.578  13.464 -0.0393  0.6254  0.4127
11332TIP3    H155487   1.533   5.602  13.386  0.9920 -1.4936  0.3458
11332TIP3    H255488   1.538   5.605  13.538  1.2821 -1.5781  0.3389
11333TIP3   OH255489   1.724   5.634  16.060 -0.5306  0.1085  0.4991
11333TIP3    H155490   1.709   5.724  16.031 -0.8520 -0.6664 -1.9659
11333TIP3    H255491   1.818   5.622  16.054 -0.4968  0.2512  0.7418
11334TIP3   OH255492   3.009   0.762   1.379  0.4256  0.2805 -0.6092
11334TIP3    H155493   2.958   0.686   1.407  2.0179 -0.0301  1.6857
11334TIP3    H255494   3.076   0.725   1.321  1.6136 -0.2485  1.0245
11335TIP3   OH255495   5.064   4.276   0.344 -0.4139  0.5513  0.1044
11335TIP3    H155496   5.073   4.368   0.367 -0.4655  0.5348  0.1938
11335TIP3    H255497   5.054   4.231   0.428  2.1455  0.1630  0.2820
11336TIP3   OH255498   6.527   4.196  13.199 -0.4172  0.5109 -0.2566
11336TIP3    H155499   6.487   4.146  13.128 -0.1239 -1.7042  1.0600
11336TIP3    H255500   6.453   4.241  13.240 -0.6932  1.1656 -1.4035
11337TIP3   OH255501   3.669   2.924   4.123 -0.0197 -0.7816  0.5349
11337TIP3    H155502   3.617   2.923   4.043  0.2225  1.4104  0.2827
11337TIP3    H255503   3.630   2.994   4.176  0.8035 -1.1319  1.6457
11338TIP3   OH255504   5.178   5.584   0.596  0.2098  0.6392  0.3175
11338TIP3    H155505   5.137   5.505   0.561  0.3641  0.4982  0.4481
11338TIP3    H255506   5.129   5.656   0.557  0.2191  0.4826  0.0108
11339TIP3   OH255507   4.962   1.557  15.151  0.2194 -0.3886 -1.2217
11339TIP3    H155508   4.994   1.520  15.233  1.0842  0.6714 -1.0479
11339TIP3    H255509   4.954   1.483  15.092  2.2539 -0.8379 -1.0074
11340TIP3   OH255510   2.092   5.661   4.022 -0.0103  0.1345  0.3714
11340TIP3    H155511   2.041   5.628   3.948  0.7016 -0.0662 -0.0357
11340TIP3    H255512   2.093   5.756   4.010  0.9738  0.0292 -0.4581
11341TIP3   OH255513   2.439   4.293  13.827  0.0203 -0.2153  0.1144
11341TIP3    H155514   2.524   4.327  13.855 -0.7354  1.3103  0.6505
11341TIP3    H255515   2.431   4.208  13.872  0.4125  0.5305  1.6435
11342TIP3   OH255516   5.744   2.429  14.291  0.1457  0.5408 -0.0848
11342TIP3    H155517   5.779   2.391  14.211  1.3166  0.1798  0.5630
11342TIP3    H255518   5.812   2.490  14.319  0.6950 -0.7910  1.6674
11343TIP3   OH255519   0.541   3.030   6.125  0.6903  0.0754  0.2254
11343TIP3    H155520   0.513   3.122   6.120  0.8361  0.1534  0.7822
11343TIP3    H255521   0.464   2.984   6.157  0.1288 -0.2421 -1.4705
11344TIP3   OH255522   0.943   0.583   4.288  0.7127 -0.3977  0.0265
11344TIP3    H155523   1.039   0.581   4.282  0.7644  1.1592 -0.1581
11344TIP3    H255524   0.913   0.552   4.203  1.0311 -1.3029  0.2327
11345TIP3   OH255525   0.005   4.371  13.559 -0.3561 -0.1104  0.0823
11345TIP3    H155526   0.039   4.409  13.640  1.4281 -0.4224 -0.4654
11345TIP3    H255527   0.083   4.337  13.515 -0.9014  2.1650 -2.9112
11346TIP3   OH255528   4.980   3.859   0.349 -0.2565 -0.1393 -0.6435
11346TIP3    H155529   4.919   3.853   0.423 -0.3385  0.4859 -0.6565
11346TIP3    H255530   5.037   3.783   0.359 -1.9711 -1.6000 -1.4742
11347TIP3   OH255531   1.592   0.921  16.794  0.2019  0.2850  0.7102
11347TIP3    H155532   1.635   0.921  16.708 -0.3062  0.2254  0.4462
11347TIP3    H255533   1.557   1.009  16.804  2.2381  1.0109  1.9005
11348TIP3   OH255534   4.925   2.504   2.301 -0.2898 -0.0092  0.0085
11348TIP3    H155535   4.863   2.528   2.370  0.6085  1.5340  0.3147
11348TIP3    H255536   5.010   2.503   2.345  0.0597 -0.9937 -0.6599
11349TIP3   OH255537   3.198   4.067   1.812  0.2649 -0.3021  0.2966
11349TIP3    H155538   3.223   3.990   1.760  0.5061  0.4671 -0.7493
11349TIP3    H255539   3.104   4.078   1.793  0.1884 -0.4419  0.5898
11350TIP3   OH255540   5.719   3.916  15.851 -0.1915  0.4625  0.1436
11350TIP3    H155541   5.652   3.894  15.786  1.0603 -2.1406 -0.4072
11350TIP3    H255542   5.794   3.945  15.799  0.6378 -1.1124  0.4234
11351TIP3   OH255543   1.799   3.871  11.546 -0.0834 -0.2013  0.2243
11351TIP3    H155544   1.881   3.825  11.529  2.2515  4.0545 -1.5903
11351TIP3    H255545   1.737   3.836  11.482  1.8516 -0.2449 -1.7319
11352TIP3   OH255546   3.884   6.403   2.559 -0.0163  0.1327 -0.7378
11352TIP3    H155547   3.899   6.381   2.651  0.7061  0.1525 -0.8429
11352TIP3    H255548   3.905   6.496   2.553  1.9917 -0.2997 -1.3195
11353TIP3   OH255549   5.463   1.584  16.039 -0.0799  0.8351 -0.0551
11353TIP3    H155550   5.405   1.597  16.114 -0.9926 -1.2118 -0.3476
11353TIP3    H255551   5.406   1.547  15.971  1.1135  0.9245 -1.1465
11354TIP3   OH255552   6.223   6.251  10.622  0.1426  0.2036 -0.4899
11354TIP3    H155553   6.164   6.263  10.697  0.3787 -2.1841  0.1376
11354TIP3    H255554   6.165   6.227  10.550  0.1204  0.5056 -0.5778
11355TIP3   OH255555   3.444   1.135   4.516 -0.0786  0.3274  0.5781
11355TIP3    H155556   3.432   1.214   4.464  1.1846  1.2838  1.6566
11355TIP3    H255557   3.539   1.125   4.522 -0.1155  0.8492  3.4752
11356TIP3   OH255558   1.237   1.655   0.157  0.2346  0.2639 -0.1306
11356TIP3    H155559   1.188   1.659   0.239  2.1133 -0.0014  1.0691
11356TIP3    H255560   1.313   1.712   0.172 -0.2063  1.5352 -2.3074
11357TIP3   OH255561   0.599   4.472  13.751  0.1238 -0.0930 -0.1214
11357TIP3    H155562   0.663   4.410  13.717 -0.0333  0.0250 -0.6407
11357TIP3    H255563   0.525   4.466  13.691  0.3052  0.9564 -0.4805
11358TIP3   OH255564   0.354   1.722  15.787 -0.0509 -0.1271 -0.0685
11358TIP3    H155565   0.374   1.636  15.749 -0.2334 -0.8214  1.3343
11358TIP3    H255566   0.268   1.744  15.752  0.5165  0.0642 -1.3918
11359TIP3   OH255567   2.841   1.705  12.846  0.1681  0.6396  0.2589
11359TIP3    H155568   2.754   1.734  12.818 -0.3443  0.0304  1.1475
11359TIP3    H255569   2.831   1.688  12.940  0.8913 -0.6858  0.1162
11360TIP3   OH255570   4.374   4.587  17.326 -0.2752 -0.1346 -0.5850
11360TIP3    H155571   4.302   4.530  17.354  0.3406 -0.2158  0.9236
11360TIP3    H255572   4.444   4.571  17.389  0.7617  0.5963 -1.5021
11361TIP3   OH255573   2.860   5.259   3.727  0.3106 -0.0565 -0.8613
11361TIP3    H155574   2.929   5.215   3.677  0.9387 -0.6358  0.4600
11361TIP3    H255575   2.788   5.196   3.728  0.8845 -0.7472  0.2666
11362TIP3   OH255576   1.893   2.728  15.102  0.2519 -0.0316  0.1361
11362TIP3    H155577   1.953   2.751  15.173  0.0161 -1.5336  0.8503
11362TIP3    H255578   1.903   2.800  15.039  2.1862  0.1784  0.6047
11363TIP3   OH255579   0.671   0.626   2.087  0.1484  0.2780 -0.0024
11363TIP3    H155580   0.591   0.673   2.112 -0.5707 -0.2606 -1.1947
11363TIP3    H255581   0.684   0.562   2.158 -1.0161 -0.2442 -0.2327
11364TIP3   OH255582   1.701   2.485  16.541 -0.0040  0.9260  0.2233
11364TIP3    H155583   1.740   2.484  16.453  1.9196  0.5021  1.0195
11364TIP3    H255584   1.645   2.562  16.542  0.9169  1.6563 -0.9859
11365TIP3   OH255585   0.505   0.215   5.830  0.1491 -0.1768 -0.4018
11365TIP3    H155586   0.583   0.255   5.867  1.1302 -1.7881 -0.6158
11365TIP3    H255587   0.453   0.288   5.796  0.5533  1.0926  1.5789
11366TIP3   OH255588   0.235   2.594  12.198 -0.0707  0.4845 -0.3675
11366TIP3    H155589   0.281   2.575  12.280 -0.2335  0.5524 -0.2600
11366TIP3    H255590   0.145   2.609  12.225 -0.1374  0.4417 -0.5684
11367TIP3   OH255591   1.779   5.254   0.115 -0.3468  0.1605  0.0099
11367TIP3    H155592   1.762   5.348   0.111  0.6409  0.3363 -0.7358
11367TIP3    H255593   1.815   5.233   0.028 -2.1022 -1.2405 -0.4394
11368TIP3   OH255594   0.635   5.854   1.075  0.0533  0.2979 -0.0728
11368TIP3    H155595   0.597   5.940   1.058  0.9704  0.5297 -1.0867
11368TIP3    H255596   0.564   5.792   1.059 -0.6992  0.8677  0.9553
11369TIP3   OH255597   1.956   4.692   6.528  0.0625 -0.3302  0.2818
11369TIP3    H155598   1.929   4.650   6.609 -0.5838 -0.2005  0.1401
11369TIP3    H255599   2.039   4.649   6.505 -0.0221 -0.7371  0.7249
11370TIP3   OH255600   6.443   0.240   4.337  0.1857  0.1131 -0.2205
11370TIP3    H155601   6.460   0.158   4.382 -1.8454  1.2955  3.0544
11370TIP3    H255602   6.492   0.306   4.387 -2.1052  1.4791  0.3922
11371TIP3   OH255603   5.456   5.334   5.394 -0.2877 -0.1056  0.1017
11371TIP3    H155604   5.516   5.401   5.428 -0.7264  0.5889 -0.4506
11371TIP3    H255605   5.422   5.291   5.472  0.1830  0.1615  0.4611
11372TIP3   OH255606   3.340   1.902   2.643  0.3634  0.2570  0.0779
11372TIP3    H155607   3.407   1.966   2.665  0.7036  0.3905 -1.2677
11372TIP3    H255608   3.330   1.909   2.548 -0.9946 -0.3140  0.1500
11373TIP3   OH255609   2.515   5.348   2.520 -0.0368  0.3562 -0.1599
11373TIP3    H155610   2.509   5.253   2.507  0.1313  0.1335  1.2492
11373TIP3    H255611   2.425   5.377   2.523 -0.1909 -0.1517  1.8071
11374TIP3   OH255612   6.155   6.439  13.285  0.1168 -0.4020  0.1640
11374TIP3    H155613   6.223   6.501  13.313  0.9314 -0.8143 -0.8381
11374TIP3    H255614   6.197   6.387  13.216 -0.9725 -1.1962  0.0796
11375TIP3   OH255615   1.595   5.025  14.282  1.2631 -0.0518  0.3216
11375TIP3    H155616   1.535   4.952  14.265 -0.5536  1.1000  1.4486
11375TIP3    H255617   1.653   5.027  14.206  1.8530 -3.0696  0.5542
11376TIP3   OH255618   3.181   1.894  16.272  0.1461  0.3454 -0.1937
11376TIP3    H155619   3.262   1.843  16.279  1.7594  2.6564 -0.6272
11376TIP3    H255620   3.144   1.868  16.187  2.1334  1.4290 -1.4704
11377TIP3   OH255621   0.153   0.168   2.111 -0.7069 -0.2528 -0.0288
11377TIP3    H155622   0.079   0.120   2.148 -1.0390  0.5470  0.3742
11377TIP3    H255623   0.126   0.260   2.113 -0.1814 -0.0612 -1.0142
11378TIP3   OH255624   5.493   3.345   1.012  0.1761  0.3958 -0.0533
11378TIP3    H155625   5.528   3.296   0.937 -0.6653 -0.0510 -0.1671
11378TIP3    H255626   5.502   3.437   0.987 -1.6143  0.2476 -1.4462
11379TIP3   OH255627   5.260   2.672   0.707 -0.0282 -0.3576 -0.3775
11379TIP3    H155628   5.230   2.582   0.695  0.8598 -0.6184 -0.7434
11379TIP3    H255629   5.238   2.716   0.624 -0.2178 -0.3038 -0.3000
11380TIP3   OH255630   6.206   6.328   4.498 -0.5887 -0.2633 -0.3263
11380TIP3    H155631   6.205   6.275   4.577 -0.7736  0.4869  0.1864
11380TIP3    H255632   6.293   6.369   4.497 -0.1971 -1.0601 -1.0690
11381TIP3   OH255633   6.227   1.728  14.157  0.1646 -0.2795  0.0969
11381TIP3    H155634   6.163   1.660  14.178  1.6091 -1.3161  1.3189
11381TIP3    H255635   6.217   1.793  14.226 -1.0120  0.6594 -0.9091
11382TIP3   OH255636   0.282   1.316   1.054 -0.8865  0.6240  0.6780
11382TIP3    H155637   0.258   1.258   1.127  1.9108 -0.1900  1.0535
11382TIP3    H255638   0.273   1.261   0.976 -0.2540  0.3118  0.8187
11383TIP3   OH255639   2.303   6.366  10.878  0.4735 -0.1001  0.3679
11383TIP3    H155640   2.349   6.337  10.799 -1.2902 -2.9219  0.2143
11383TIP3    H255641   2.373   6.383  10.942  1.8441  0.1370 -1.1255
11384TIP3   OH255642   2.911   6.725   0.076 -0.6967 -0.0620  0.3083
11384TIP3    H155643   2.961   6.790   0.027  0.2617 -0.7039  0.4130
11384TIP3    H255644   2.917   6.646   0.022 -1.6425 -0.1461  0.3042
11385TIP3   OH255645   4.777   3.750   1.755  0.6033  0.0958 -0.0255
11385TIP3    H155646   4.700   3.769   1.809 -0.0539  1.3662 -1.3679
11385TIP3    H255647   4.743   3.700   1.681  0.9855  0.9694 -0.8111
11386TIP3   OH255648   0.325   6.562   0.007  0.3253 -0.3629 -0.3116
11386TIP3    H155649   0.365   6.476   0.025 -1.6902 -1.3304 -0.1574
11386TIP3    H255650   0.266   6.545  -0.067 -1.3348  0.4687  0.7595
11387TIP3   OH255651   4.757   6.272   0.919  0.6954  0.1688 -0.1231
11387TIP3    H155652   4.785   6.316   0.840 -1.1048  0.0529 -0.8847
11387TIP3    H255653   4.764   6.338   0.988 -0.0244  1.0446 -0.8667
11388TIP3   OH255654   3.429   6.074  12.014 -0.2149 -0.2930  0.3363
11388TIP3    H155655   3.404   6.014  11.944  0.3962 -1.3689  0.9934
11388TIP3    H255656   3.400   6.031  12.094 -2.1361  1.5556  0.7080
11389TIP3   OH255657   0.764   2.907  11.331  0.3247  0.3833 -0.2349
11389TIP3    H155658   0.808   2.832  11.291 -1.6925 -1.8838  1.5146
11389TIP3    H255659   0.835   2.967  11.354  1.9820 -0.7463 -2.0815
11390TIP3   OH255660   3.487   3.378  16.060 -0.2967 -0.8068  0.3819
11390TIP3    H155661   3.581   3.382  16.078 -0.2687 -0.1315  0.1050
11390TIP3    H255662   3.464   3.286  16.076  0.2462 -0.8108  1.2206
11391TIP3   OH255663   0.609   0.157  11.398 -0.3884  0.2293 -0.4698
11391TIP3    H155664   0.531   0.120  11.356  0.1197  0.0449 -1.2639
11391TIP3    H255665   0.631   0.093  11.467 -1.4570  0.7336  0.3814
11392TIP3   OH255666   2.976   4.637  13.240 -0.0866  0.3369  0.1005
11392TIP3    H155667   2.884   4.632  13.214 -0.4792  0.9628  1.2840
11392TIP3    H255668   2.991   4.558  13.291 -0.7778  1.5161  2.2400
11393TIP3   OH255669   4.906   0.656   5.679 -0.5007 -0.7069  0.4932
11393TIP3    H155670   4.942   0.586   5.624 -0.6336 -0.0329 -0.4712
11393TIP3    H255671   4.980   0.715   5.695 -0.6486 -0.4909  0.3822
11394TIP3   OH255672   1.708   3.312   0.314 -0.1053 -0.2537  0.0054
11394TIP3    H155673   1.614   3.292   0.308 -0.5627  0.8134  2.3213
11394TIP3    H255674   1.749   3.252   0.252 -2.2243 -1.4345 -0.3682
11395TIP3   OH255675   6.114   5.442   2.924 -0.0461 -0.4299 -0.6222
11395TIP3    H155676   6.195   5.407   2.886 -0.5224 -0.5635 -1.5416
11395TIP3    H255677   6.084   5.507   2.861 -0.2482  0.1841  0.0977
11396TIP3   OH255678   5.979   4.721   3.103 -0.2140 -0.2353  0.2566
11396TIP3    H155679   6.057   4.763   3.139 -0.3315  0.1470  0.0644
11396TIP3    H255680   5.945   4.669   3.176 -0.4075  0.4840  0.6864
11397TIP3   OH255681   6.127   3.131  16.395 -0.2472  0.1036 -0.3570
11397TIP3    H155682   6.067   3.074  16.443  0.5749  0.7406  1.5319
11397TIP3    H255683   6.075   3.165  16.322 -1.3929 -1.3269 -0.2573
11398TIP3   OH255684   4.270   4.585  16.823  0.2975  0.0576  0.6476
11398TIP3    H155685   4.193   4.596  16.879  0.2563 -0.4608  0.7003
11398TIP3    H255686   4.244   4.517  16.761 -0.7880  2.6633 -2.0038
11399TIP3   OH255687   6.502   5.272  11.860 -0.3933  0.1789  0.5456
11399TIP3    H155688   6.594   5.296  11.853 -0.4188  0.0689 -0.4216
11399TIP3    H255689   6.496   5.188  11.813 -1.4228  1.4195 -1.7212
11400TIP3   OH255690   1.220   3.957   3.394  0.1578  0.4324  0.0151
11400TIP3    H155691   1.210   4.040   3.441  0.4471 -1.1416  3.1369
11400TIP3    H255692   1.315   3.940   3.395 -0.1210 -1.7715  3.2030
11401TIP3   OH255693   0.985   1.857  13.603 -0.4016 -0.0186 -0.0432
11401TIP3    H155694   1.070   1.889  13.572 -0.0263 -0.2936  0.6831
11401TIP3    H255695   0.958   1.922  13.668 -0.4149 -0.3003  0.2360
11402TIP3   OH255696   3.096   3.542   6.259  1.2425 -0.2282  0.8394
11402TIP3    H155697   3.136   3.476   6.316 -1.5454 -1.8727  1.0729
11402TIP3    H255698   3.026   3.495   6.214  1.0512  1.9155 -1.2691
11403TIP3   OH255699   5.257   1.940  13.660  0.1611 -0.0674  0.0068
11403TIP3    H155700   5.204   1.873  13.703  0.1612 -0.7350 -1.0021
11403TIP3    H255701   5.341   1.936  13.705  0.1249 -0.6707  0.0334
11404TIP3   OH255702   1.203   3.709   5.883 -0.7388 -0.0189  0.7271
11404TIP3    H155703   1.169   3.630   5.842 -1.4042  0.7134 -0.1868
11404TIP3    H255704   1.236   3.680   5.968 -1.9649 -1.0917  0.8723
11405TIP3   OH255705   4.816   2.497  13.335  0.4377  0.2830 -0.3663
11405TIP3    H155706   4.880   2.430  13.356  0.5544  0.2840 -0.7198
11405TIP3    H255707   4.821   2.559  13.409  0.3989 -0.0404 -0.0892
11406TIP3   OH255708   4.397   0.564   5.627 -0.0594 -0.4206 -0.3721
11406TIP3    H155709   4.374   0.519   5.708 -0.7454  0.4091 -0.0925
11406TIP3    H255710   4.471   0.620   5.651 -1.4749  1.3105  0.2249
11407TIP3   OH255711   6.539   4.287   1.492  0.1802  0.0168  0.1033
11407TIP3    H155712   6.464   4.340   1.464 -0.1056 -0.3656  0.1457
11407TIP3    H255713   6.526   4.274   1.586 -0.5671 -1.4057 -0.1666
11408TIP3   OH255714   3.587   5.574   5.816 -0.2999  0.1450  0.2493
11408TIP3    H155715   3.655   5.528   5.866  0.4430  1.5890  0.6394
11408TIP3    H255716   3.528   5.609   5.882  0.5363  1.8311  0.1523
11409TIP3   OH255717   6.667   6.569  13.594  0.7067 -0.2855  0.1383
11409TIP3    H155718   6.640   6.481  13.619  1.2732  0.0500  2.0706
11409TIP3    H255719   6.756   6.558  13.561 -0.2034 -0.7963 -2.3999
11410TIP3   OH255720   0.935   0.264   2.219 -0.2865  0.2565  0.0187
11410TIP3    H155721   1.020   0.310   2.221 -0.4451  0.5308  0.6865
11410TIP3    H255722   0.947   0.191   2.279 -0.3094 -0.0938 -0.4027
11411TIP3   OH255723   2.377   4.704  13.962 -0.8527  0.8227  0.5500
11411TIP3    H155724   2.354   4.648  14.035 -0.1163 -0.3344 -0.0743
11411TIP3    H255725   2.352   4.654  13.884  0.6626  0.9262 -0.0451
11412TIP3   OH255726   0.659   4.078   5.224  0.5373  0.2346  0.2653
11412TIP3    H155727   0.699   4.079   5.136  0.3867 -0.5475  0.1770
11412TIP3    H255728   0.705   4.147   5.272  0.3309  0.9563 -0.5555
11413TIP3   OH255729   1.973   4.546  13.022 -0.4407 -0.3958 -0.1614
11413TIP3    H155730   1.973   4.454  12.999 -0.8181 -0.7205  1.0425
11413TIP3    H255731   2.028   4.551  13.100 -0.6237  0.3522 -0.0688
11414TIP3   OH255732   6.756   1.776  12.779 -0.3890  0.7071  0.4734
11414TIP3    H155733   6.672   1.805  12.742  0.4171  2.9232  0.2101
11414TIP3    H255734   6.741   1.686  12.805 -3.1095  1.2566  1.1258
11415TIP3   OH255735   5.884   1.349  11.864  0.0260 -0.4100 -0.5974
11415TIP3    H155736   5.817   1.341  11.795 -1.0935  2.1642  0.0550
11415TIP3    H255737   5.833   1.351  11.946  1.0357 -0.0605  0.0358
11416TIP3   OH255738   0.283   4.398   3.072  0.0282 -0.3739 -0.0771
11416TIP3    H155739   0.224   4.388   3.147 -0.1670 -0.0782 -0.1866
11416TIP3    H255740   0.224   4.414   2.998  0.2411 -0.1700 -0.2031
11417TIP3   OH255741   0.443   5.571  14.335  0.3242 -0.2452 -0.3467
11417TIP3    H155742   0.527   5.535  14.306  0.4816  1.1311 -1.7103
11417TIP3    H255743   0.378   5.531  14.278  0.5634  1.9631 -2.2854
11418TIP3   OH255744   3.277   6.159   3.039 -0.3666 -0.3344  0.6507
11418TIP3    H155745   3.193   6.158   3.086  0.0020 -0.5912  1.3079
11418TIP3    H255746   3.280   6.246   2.997 -0.8452 -0.2320  0.8248
11419TIP3   OH255747   5.256   0.061  11.921  0.5669  0.4082 -0.2152
11419TIP3    H155748   5.219  -0.024  11.899 -0.0070  0.8614 -1.0425
11419TIP3    H255749   5.184   0.123  11.906  1.5689  1.2861 -1.6215
11420TIP3   OH255750   2.901   4.661  13.560  0.1882 -0.3665  0.8510
11420TIP3    H155751   2.920   4.585  13.505  0.0276  0.6247 -0.6509
11420TIP3    H255752   2.985   4.687  13.596  1.0979  1.2847 -2.1237
11421TIP3   OH255753   2.353   1.643  13.989 -0.1922 -0.8643  0.1577
11421TIP3    H155754   2.399   1.659  13.906  0.3675 -1.4954  0.3370
11421TIP3    H255755   2.282   1.583  13.965 -0.4737 -0.4795  0.0136
11422TIP3   OH255756   0.637   4.410  15.128 -0.3158 -0.1721 -0.3570
11422TIP3    H155757   0.624   4.405  15.034 -0.7056 -0.1778 -0.3058
11422TIP3    H255758   0.661   4.321  15.154 -1.2381 -0.4251 -0.3083
11423TIP3   OH255759   0.409   3.445   4.622  0.1867 -0.1635  0.3106
11423TIP3    H155760   0.348   3.370   4.618 -0.2562  0.2502 -1.4759
11423TIP3    H255761   0.496   3.405   4.610 -0.0346 -0.4363 -0.4990
11424TIP3   OH255762   4.715   2.651  17.148 -0.2667  0.3982 -0.1966
11424TIP3    H155763   4.786   2.590  17.127 -0.9755  0.0805 -1.8637
11424TIP3    H255764   4.755   2.737  17.141  0.4085  0.1766  0.7846
11425TIP3   OH255765   2.808   0.272   0.639 -0.6766 -0.4625 -0.3413
11425TIP3    H155766   2.751   0.287   0.563 -1.3928  0.0018  0.2772
11425TIP3    H255767   2.837   0.359   0.665 -0.1495 -0.6522 -0.2904
11426TIP3   OH255768   6.659   2.239  16.913  0.3133  0.0280 -0.2676
11426TIP3    H155769   6.690   2.323  16.879 -1.0590  0.5207 -0.4053
11426TIP3    H255770   6.592   2.211  16.849 -0.5239 -0.2749  0.7075
11427TIP3   OH255771   1.267   1.903   2.683  0.1284  0.5963  0.1365
11427TIP3    H155772   1.357   1.899   2.717  0.0149 -0.3114  0.3578
11427TIP3    H255773   1.243   1.996   2.690  1.3512  1.0019 -0.7511
11428TIP3   OH255774   2.440   6.271  11.739 -0.4487 -0.5711  0.0758
11428TIP3    H155775   2.423   6.194  11.794 -0.9844 -0.6686 -0.2210
11428TIP3    H255776   2.525   6.303  11.769 -1.0416 -0.2136  1.4242
11429TIP3   OH255777   0.604   3.358  11.069 -0.2676 -0.0996  0.3560
11429TIP3    H155778   0.633   3.402  10.990 -0.7759 -1.1591 -0.4539
11429TIP3    H255779   0.621   3.265  11.053 -0.0951 -0.3055  1.6162
11430TIP3   OH255780   6.489   5.921  13.178 -0.2446 -0.0345  0.7001
11430TIP3    H155781   6.473   5.839  13.130  2.3160 -0.9114  1.1942
11430TIP3    H255782   6.545   5.972  13.120  2.9336 -1.1256  2.5881
11431TIP3   OH255783   2.615   4.334  12.018 -0.3761  0.0888  0.1147
11431TIP3    H155784   2.549   4.366  12.080 -0.0327  3.2255 -0.9522
11431TIP3    H255785   2.569   4.331  11.934  0.3683  0.6688 -0.3289
11432TIP3   OH255786   2.943   3.900  14.299  0.1847 -0.9503  0.7597
11432TIP3    H155787   2.950   3.944  14.214 -1.6598 -0.2061  0.9723
11432TIP3    H255788   2.925   3.808  14.277 -0.5563 -0.7066  0.3429
11433TIP3   OH255789   2.525   6.448  14.588 -0.2120 -0.1249  0.5762
11433TIP3    H155790   2.476   6.380  14.635 -0.7148  0.9119  1.5884
11433TIP3    H255791   2.459   6.506  14.553  0.2473  1.1512  1.7430
11434TIP3   OH255792   4.001   4.389   0.211 -0.6068  0.3214 -0.6420
11434TIP3    H155793   4.040   4.318   0.263  1.0157  0.9760 -0.8938
11434TIP3    H255794   3.950   4.440   0.274  0.3744  0.4321  0.0886
11435TIP3   OH255795   3.344   5.622  17.180  0.1179  0.3323  0.3525
11435TIP3    H155796   3.373   5.537  17.210 -0.1324  0.1872  0.1876
11435TIP3    H255797   3.276   5.603  17.115  0.9643  0.6241 -0.6489
11436TIP3   OH255798   5.460   5.326   2.744  0.3660  0.3483 -0.8646
11436TIP3    H155799   5.545   5.290   2.769  0.4909  0.4473 -1.1359
11436TIP3    H255800   5.432   5.272   2.670 -1.0727 -1.4477  0.8705
11437TIP3   OH255801   1.141   2.506   2.040 -0.6021  0.8624 -0.0618
11437TIP3    H155802   1.162   2.414   2.024  2.5354  1.4956 -0.1193
11437TIP3    H255803   1.091   2.533   1.963  0.2902 -0.2785 -1.0707
11438TIP3   OH255804   3.467   2.126   0.485  0.2766  0.2612 -0.1434
11438TIP3    H155805   3.374   2.135   0.510  0.2317  0.6146 -0.4170
11438TIP3    H255806   3.490   2.037   0.510  0.3374  0.6991  1.4948
11439TIP3   OH255807   4.801   3.897   5.713  0.2135 -0.0542 -0.0329
11439TIP3    H155808   4.870   3.918   5.650  0.2253 -0.2100 -0.0726
11439TIP3    H255809   4.780   3.805   5.695 -1.3119  0.4890 -1.2827
11440TIP3   OH255810   5.180   4.757   6.343  0.0700 -0.3482 -0.1585
11440TIP3    H155811   5.271   4.784   6.355  0.5672 -1.9722 -0.0209
11440TIP3    H255812   5.153   4.802   6.263  0.4733  1.3745  0.6315
11441TIP3   OH255813   4.915   2.553   5.112 -0.0016  0.1524 -0.3129
11441TIP3    H155814   4.983   2.515   5.167 -0.0546 -2.9118 -2.1069
11441TIP3    H255815   4.833   2.519   5.149 -0.1175 -0.8696 -1.4449
11442TIP3   OH255816   4.498   0.128  14.113 -0.4253  0.0907  0.4851
11442TIP3    H155817   4.526   0.160  14.027 -0.9130 -0.5328  0.0921
11442TIP3    H255818   4.538   0.190  14.175 -2.3620  2.2845 -0.2980
11443TIP3   OH255819   2.639   4.238  17.400  0.0094  0.5677 -0.3329
11443TIP3    H155820   2.624   4.163  17.342 -2.4417 -0.5074  1.4849
11443TIP3    H255821   2.603   4.312  17.352 -0.5171 -0.0120 -0.8626
11444TIP3   OH255822   5.624   3.408   2.825 -0.1004 -0.0270 -0.0096
11444TIP3    H155823   5.643   3.433   2.915 -0.0582 -1.5975  0.4320
11444TIP3    H255824   5.567   3.332   2.832 -1.3888  0.7652 -1.3211
11445TIP3   OH255825   0.609   2.587  13.892  0.0350 -0.2765  0.0722
11445TIP3    H155826   0.605   2.603  13.798  0.4043 -0.9857 -0.0740
11445TIP3    H255827   0.686   2.636  13.921 -0.4483  0.4650  0.1246
11446TIP3   OH255828   0.375   0.746   4.984 -0.7851  0.4254  0.4673
11446TIP3    H155829   0.409   0.828   5.019  1.0594  0.8981 -2.1828
11446TIP3    H255830   0.307   0.772   4.921 -2.3760 -0.3047  1.7837
11447TIP3   OH255831   5.361   1.167  13.434  0.2414  0.2576  0.1115
11447TIP3    H155832   5.279   1.180  13.481  0.0288 -1.9047  0.4412
11447TIP3    H255833   5.339   1.187  13.343 -0.6344 -0.1935  0.2089
11448TIP3   OH255834   4.703   3.419   5.442 -0.5685  0.7816  0.4466
11448TIP3    H155835   4.615   3.382   5.437 -1.0694  2.0447 -0.5046
11448TIP3    H255836   4.757   3.358   5.391 -0.9611  0.2327  0.6729
11449TIP3   OH255837   2.518   4.372   2.768  0.3497  0.4314  0.5582
11449TIP3    H155838   2.566   4.397   2.847  0.0587 -2.0697  1.6157
11449TIP3    H255839   2.451   4.311   2.799  1.3834 -2.0872 -1.7757
11450TIP3   OH255840   5.620   0.479   5.593 -0.2356  0.3040 -0.1373
11450TIP3    H155841   5.544   0.432   5.627 -1.9671  1.2526 -2.4055
11450TIP3    H255842   5.682   0.479   5.666 -2.8474  0.5487  2.2975
11451TIP3   OH255843   5.299   3.515   1.336  0.1001 -0.3641 -0.1137
11451TIP3    H155844   5.280   3.423   1.320 -0.9659 -0.2049  0.1975
11451TIP3    H255845   5.275   3.530   1.427 -0.7947  0.4746 -0.4674
11452TIP3   OH255846   6.189   4.265   2.358 -0.4991  0.1502 -0.2418
11452TIP3    H155847   6.162   4.301   2.274 -0.6947  1.5754  0.4102
11452TIP3    H255848   6.283   4.281   2.361 -0.9894  3.4171  1.2860
11453TIP3   OH255849   1.829   0.894   4.005  0.3135  0.4775 -0.0166
11453TIP3    H155850   1.881   0.840   3.946  0.6027  0.7073  0.0263
11453TIP3    H255851   1.839   0.853   4.091  0.4703  0.5560  0.0019
11454TIP3   OH255852   2.984   5.359   2.855  0.1603 -0.4488  0.1843
11454TIP3    H155853   3.031   5.322   2.780  1.0778  0.1249  0.4704
11454TIP3    H255854   3.046   5.355   2.927 -0.6115 -0.7024  0.8556
11455TIP3   OH255855   4.048   4.700   5.855 -0.2756 -0.4876 -0.7413
11455TIP3    H155856   4.140   4.724   5.855 -0.6604  1.0694 -0.1595
11455TIP3    H255857   4.017   4.721   5.942 -0.9733 -1.9503 -0.6066
11456TIP3   OH255858   3.489   6.651   6.465  0.4205 -0.4018  0.0170
11456TIP3    H155859   3.447   6.575   6.425  1.2304  0.4811 -2.7316
11456TIP3    H255860   3.538   6.615   6.539 -2.2493 -1.9299  1.2043
11457TIP3   OH255861   5.391   4.172  15.116 -0.5131  0.0386  0.0734
11457TIP3    H155862   5.331   4.242  15.089 -0.3476  0.2698  0.2955
11457TIP3    H255863   5.347   4.130  15.190  0.1898  1.0845  1.1312
11458TIP3   OH255864   5.446   5.953  15.482 -0.6830  0.2028  0.0691
11458TIP3    H155865   5.360   5.995  15.490 -0.9400 -0.4064  0.4830
11458TIP3    H255866   5.479   5.946  15.571 -0.8856 -0.9838  0.0643
11459TIP3   OH255867   2.764   0.982   3.185  0.2538  0.1080 -0.1822
11459TIP3    H155868   2.752   0.890   3.209 -0.8458 -0.0778 -1.3640
11459TIP3    H255869   2.676   1.015   3.169  0.7764  0.0672 -4.3052
11460TIP3   OH255870   3.706   5.582  12.038  0.0636  0.2533 -0.3381
11460TIP3    H155871   3.690   5.490  12.017 -0.9450  0.7389 -1.8768
11460TIP3    H255872   3.619   5.622  12.039  0.5339  1.3073 -0.3307
11461TIP3   OH255873   4.501   1.179  13.711  0.3495  0.5552  0.5133
11461TIP3    H155874   4.596   1.164  13.713  0.0480 -1.6627  0.8994
11461TIP3    H255875   4.470   1.125  13.639 -0.6548  1.0638  0.5555
11462TIP3   OH255876   0.175   1.577  17.404  0.1995 -0.0916 -0.3282
11462TIP3    H155877   0.093   1.530  17.388 -0.4139  0.9125 -0.2029
11462TIP3    H255878   0.184   1.580  17.499  0.2251  0.0534 -0.3333
11463TIP3   OH255879   5.741   0.818  13.438  0.5684 -0.1061 -0.5605
11463TIP3    H155880   5.655   0.830  13.480  0.2484 -1.9441 -0.6292
11463TIP3    H255881   5.804   0.832  13.508  0.1017 -1.3555  0.1421
11464TIP3   OH255882   1.506   5.419   4.637  0.1978 -0.3388  0.6621
11464TIP3    H155883   1.429   5.378   4.596 -0.8554  0.5466  1.7026
11464TIP3    H255884   1.481   5.510   4.649  1.4391 -0.0311  1.0017
11465TIP3   OH255885   2.649   5.203   0.059 -0.2887  0.0484  0.1068
11465TIP3    H155886   2.582   5.142   0.027 -0.4858 -0.0392  0.6719
11465TIP3    H255887   2.689   5.239  -0.020 -1.7526  0.9294 -0.2661
11466TIP3   OH255888   4.280   0.965  15.873 -0.3179 -0.0206 -0.0203
11466TIP3    H155889   4.336   0.980  15.949 -0.3342 -1.8976  0.4232
11466TIP3    H255890   4.193   0.951  15.910 -0.4495 -0.3178 -0.4354
11467TIP3   OH255891   6.243   3.091  14.357 -0.0322 -0.2483 -0.5868
11467TIP3    H155892   6.261   3.045  14.439 -0.9849 -0.4298 -0.4606
11467TIP3    H255893   6.326   3.091  14.310  0.2559 -1.1368 -0.1025
11468TIP3   OH255894   0.315   6.570   1.112 -0.2119 -0.4298  1.1051
11468TIP3    H155895   0.225   6.536   1.110 -0.0403 -0.8889 -0.2783
11468TIP3    H255896   0.328   6.601   1.202 -3.2468  3.5765  0.4738
11469TIP3   OH255897   3.911   3.906   1.961 -0.6070 -0.4182 -0.4412
11469TIP3    H155898   3.884   3.824   1.920  0.1996  0.1937 -2.2977
11469TIP3    H255899   3.876   3.975   1.903 -0.8357  0.5476  0.7973
11470TIP3   OH255900   5.260   2.923  12.802  0.5204  0.5453 -0.3313
11470TIP3    H155901   5.282   2.830  12.795  0.3077  0.4361  0.3812
11470TIP3    H255902   5.221   2.945  12.717  1.3257  0.1970 -0.7967
11471TIP3   OH255903   5.361   3.557  17.021  0.5680 -0.0108  0.1587
11471TIP3    H155904   5.424   3.617  16.981  0.6467  0.4086  0.8876
11471TIP3    H255905   5.340   3.598  17.105 -1.0882  0.1452 -0.2913
11472TIP3   OH255906   3.498   6.600   0.982 -0.0405 -0.6042  0.2546
11472TIP3    H155907   3.421   6.555   1.019  0.3016 -0.1198  1.6242
11472TIP3    H255908   3.463   6.683   0.948 -0.3484 -1.0206 -0.4614
11473TIP3   OH255909   6.359   4.237  16.361 -0.0188  0.1888  0.3076
11473TIP3    H155910   6.391   4.156  16.401  0.0457  0.0484 -0.0245
11473TIP3    H255911   6.439   4.287  16.342  0.0484 -0.3314 -0.8850
11474TIP3   OH255912   1.241   1.453  17.475  0.1289 -0.4795 -0.0257
11474TIP3    H155913   1.259   1.531  17.527  0.0439 -0.7164  0.3660
11474TIP3    H255914   1.183   1.400  17.531  1.5290 -1.5954  0.4145
11475TIP3   OH255915   3.412   1.942  15.239  0.5392  0.3445  0.6891
11475TIP3    H155916   3.336   1.933  15.297 -0.2745  2.3635  0.0246
11475TIP3    H255917   3.410   1.863  15.185 -1.7455  0.7981 -0.0036
11476TIP3   OH255918   3.453   2.751   1.361  0.1306  0.2210  0.0876
11476TIP3    H155919   3.408   2.735   1.443  1.5313  0.8073  1.0043
11476TIP3    H255920   3.391   2.723   1.293 -1.7454  1.3327  1.2582
11477TIP3   OH255921   0.241   3.482  13.681  0.0456  0.4049 -0.0750
11477TIP3    H155922   0.249   3.525  13.596  1.2004 -0.7280 -0.5643
11477TIP3    H255923   0.331   3.477  13.714 -0.2434 -0.3020  0.6414
11478TIP3   OH255924   3.813   0.472  11.830  0.7000 -0.0557 -0.0674
11478TIP3    H155925   3.756   0.422  11.888 -0.3278  0.0637 -0.9429
11478TIP3    H255926   3.825   0.556  11.875 -0.6482  0.2972 -0.3118
11479TIP3   OH255927   3.841   0.453   0.770 -1.0970 -0.0023 -0.5590
11479TIP3    H155928   3.747   0.440   0.758 -0.8469 -1.5158 -1.1460
11479TIP3    H255929   3.848   0.535   0.819 -2.6197  1.2229 -2.2587
11480TIP3   OH255930   0.144   2.333   1.182 -0.0727 -0.3952 -0.7572
11480TIP3    H155931   0.154   2.410   1.127  0.1988 -0.3582 -0.6561
11480TIP3    H255932   0.233   2.303   1.199 -0.1924 -1.4333 -1.7863
11481TIP3   OH255933   3.407   1.285  16.616  0.0591 -0.0577 -0.2983
11481TIP3    H155934   3.431   1.339  16.692  0.3035 -1.0120  0.3194
11481TIP3    H255935   3.410   1.346  16.542  0.8685  0.6618  0.2979
11482TIP3   OH255936   0.593   3.775  13.356  0.4067 -0.2045  0.0786
11482TIP3    H155937   0.684   3.796  13.338 -0.1603  1.4466 -1.2311
11482TIP3    H255938   0.548   3.792  13.273 -1.2891  0.3302  1.0525
11483TIP3   OH255939   3.794   1.413   0.628 -0.0825  0.3054 -0.3993
11483TIP3    H155940   3.884   1.386   0.645 -0.3326 -0.3002 -0.0021
11483TIP3    H255941   3.775   1.378   0.541 -0.6006 -1.3757  0.3481
11484TIP3   OH255942   1.343   3.068  12.282 -0.7552  0.7483  0.0605
11484TIP3    H155943   1.400   3.059  12.206 -1.3776  1.9552 -0.5677
11484TIP3    H255944   1.258   3.034  12.252 -0.9825  1.1570  0.2409
11485TIP3   OH255945   2.424   1.423  11.581  0.9652  0.6641 -0.0634
11485TIP3    H155946   2.429   1.327  11.578 -1.1660  0.5190 -0.7360
11485TIP3    H255947   2.442   1.449  11.490 -1.0335  0.6703 -0.5066
11486TIP3   OH255948   2.727   4.877   5.418  0.2439  0.0481 -0.3311
11486TIP3    H155949   2.687   4.790   5.423 -2.2495  1.1188  0.0395
11486TIP3    H255950   2.804   4.866   5.362  0.4486 -2.5179  0.3625
11487TIP3   OH255951   3.693   0.653   3.535 -0.1431 -0.0905  0.5976
11487TIP3    H155952   3.637   0.648   3.613 -0.5747  0.5637  0.3436
11487TIP3    H255953   3.631   0.649   3.462  0.1382  0.6597  0.3120
11488TIP3   OH255954   5.403   2.184  15.095 -0.4447  0.0096  0.0194
11488TIP3    H155955   5.379   2.246  15.026 -0.8280  0.3568  0.4597
11488TIP3    H255956   5.469   2.231  15.147  0.3430 -0.5004 -0.4907
11489TIP3   OH255957   4.894   6.570  11.337 -0.0397  0.3179 -0.3763
11489TIP3    H155958   4.889   6.596  11.245 -0.3122  0.9932 -0.1802
11489TIP3    H255959   4.814   6.519  11.352  0.5485 -0.7441 -0.7913
11490TIP3   OH255960   5.650   2.065   5.592  0.3731  0.1103 -0.1625
11490TIP3    H155961   5.614   2.082   5.679  0.3544  0.3424 -0.2175
11490TIP3    H255962   5.676   2.150   5.558 -3.2688  0.6959 -2.0273
11491TIP3   OH255963   0.729   4.302  16.628  0.8031 -0.4554  0.1070
11491TIP3    H155964   0.733   4.385  16.580 -1.1624 -0.5088 -0.2409
11491TIP3    H255965   0.672   4.246  16.574  0.0935 -1.1865  1.5554
11492TIP3   OH255966   0.020   5.201   1.928  0.0676 -0.3540 -0.8194
11492TIP3    H155967  -0.048   5.261   1.957 -0.0751 -0.6629 -0.5024
11492TIP3    H255968  -0.027   5.121   1.903  0.3742 -0.8995  0.2811
11493TIP3   OH255969   2.201   1.278  14.767  0.1406  0.0267  0.0244
11493TIP3    H155970   2.132   1.313  14.824 -0.0084  2.2033 -1.3456
11493TIP3    H255971   2.178   1.186  14.755 -3.0597  0.8012 -0.9886
11494TIP3   OH255972   4.383   2.558  11.727 -0.4554 -0.2974 -0.3960
11494TIP3    H155973   4.431   2.628  11.771 -0.6109  0.6560 -1.6907
11494TIP3    H255974   4.299   2.598  11.702  0.2108 -0.3082 -2.8993
11495TIP3   OH255975   2.695   5.526   6.532 -0.4704  0.1268  0.3054
11495TIP3    H155976   2.716   5.562   6.446  0.3071 -1.3481 -0.1563
11495TIP3    H255977   2.706   5.599   6.593  1.6769  0.5353 -0.5078
11496TIP3   OH255978   0.471   1.183   5.848  0.9018  0.4920 -0.1614
11496TIP3    H155979   0.386   1.187   5.805  1.8632 -3.4658 -2.9912
11496TIP3    H255980   0.453   1.138   5.931  0.0743  0.8002 -0.1657
11497TIP3   OH255981   4.465   2.647  16.663 -0.0296 -0.4546 -0.3163
11497TIP3    H155982   4.460   2.699  16.744  0.8719 -1.7285  0.5924
11497TIP3    H255983   4.556   2.657  16.634 -0.2841 -0.2191 -1.0427
11498TIP3   OH255984   5.407   3.916  14.618 -0.0916  0.0752 -0.2622
11498TIP3    H155985   5.451   3.831  14.616  1.7769  0.9932 -2.1993
11498TIP3    H255986   5.441   3.958  14.697  0.5344 -0.2227 -0.3641
11499TIP3   OH255987   0.809   3.020  11.857 -0.0342  1.0647 -0.0093
11499TIP3    H155988   0.788   2.928  11.839 -0.0847  0.9887  0.4396
11499TIP3    H255989   0.899   3.031  11.827 -0.5698  1.3059 -1.6518
11500TIP3   OH255990   0.872   0.340   6.827 -0.3034  1.3006 -0.2126
11500TIP3    H155991   0.922   0.405   6.876  0.8775 -1.3222  2.4249
11500TIP3    H255992   0.787   0.336   6.872  0.2401 -0.0493  0.7879
11501TIP3   OH255993   4.924   2.165  14.330 -0.0171  0.3074 -0.7275
11501TIP3    H155994   5.002   2.220  14.334 -0.4212  0.8956 -0.7742
11501TIP3    H255995   4.856   2.223  14.297 -0.2912 -0.4040 -1.4477
11502TIP3   OH255996   4.911   6.157  12.356  0.2199 -0.6041  0.2739
11502TIP3    H155997   4.993   6.206  12.356 -1.0046  1.5406  0.5549
11502TIP3    H255998   4.934   6.073  12.314  2.4202  0.1027 -0.0787
11503TIP3   OH255999   2.434   5.198  11.795 -0.4232  0.1310 -0.3682
11503TIP3    H156000   2.390   5.256  11.733 -1.6496  0.5013  0.7963
11503TIP3    H256001   2.378   5.200  11.873  1.7653  0.7769  1.2788
11504TIP3   OH256002   3.742   4.914  11.314  0.2963 -0.2176 -0.4984
11504TIP3    H156003   3.769   4.981  11.251 -0.4842 -0.5553 -1.2129
11504TIP3    H256004   3.780   4.833  11.280  0.9247 -0.1957  0.1565
11505TIP3   OH256005   3.139   0.674  17.470  0.5816 -0.2440 -0.0348
11505TIP3    H156006   3.233   0.686  17.482  0.4877 -0.6517  1.1438
11505TIP3    H256007   3.099   0.721  17.543 -0.1192 -0.3809 -0.3222
11506TIP3   OH256008   2.332   3.749   1.155 -0.3451 -0.0161  0.1569
11506TIP3    H156009   2.366   3.781   1.239 -0.0977 -0.0852  0.0836
11506TIP3    H256010   2.247   3.710   1.177 -0.7203  0.8150  0.2252
11507TIP3   OH256011   0.264   1.499   2.432  0.6805 -0.2080  0.0479
11507TIP3    H156012   0.307   1.440   2.495 -0.3188  0.1201  1.0787
11507TIP3    H256013   0.260   1.583   2.477 -1.8860 -0.4589  0.4263
11508TIP3   OH256014   1.691   1.598   1.962  0.0740  0.0328 -0.0944
11508TIP3    H156015   1.705   1.692   1.953  1.3898 -0.1975 -0.6483
11508TIP3    H256016   1.637   1.589   2.041 -0.6179  1.2833 -0.4094
11509TIP3   OH256017   4.712   0.882   6.488 -0.1810 -0.1777  0.3264
11509TIP3    H156018   4.618   0.860   6.492 -0.1372 -0.3617  0.3902
11509TIP3    H256019   4.750   0.813   6.435 -0.3739  0.9547 -1.3385
11510TIP3   OH256020   0.643   4.733  13.748 -0.1646 -0.2647 -0.4363
11510TIP3    H156021   0.558   4.777  13.751 -0.5683 -1.0137  2.7166
11510TIP3    H256022   0.623   4.641  13.762  1.0290 -0.7810 -1.9486
11511TIP3   OH256023   4.480   1.349  14.514 -0.1072  0.0556 -0.3085
11511TIP3    H156024   4.456   1.268  14.470 -0.6007  0.3385 -0.5575
11511TIP3    H256025   4.437   1.418  14.464 -1.1959  0.3412  0.9556
11512TIP3   OH256026   3.945   4.426   3.843  0.3906  0.4526 -0.0381
11512TIP3    H156027   3.902   4.460   3.764 -1.4498 -2.4337 -0.4260
11512TIP3    H256028   3.881   4.368   3.882  3.1424 -2.4281  0.5860
11513TIP3   OH256029   4.599   5.331   5.079 -0.4089  0.3021 -0.3137
11513TIP3    H156030   4.511   5.355   5.107 -1.2852 -1.9579 -0.9303
11513TIP3    H256031   4.641   5.298   5.159  0.0389  1.6902  0.0535
11514TIP3   OH256032   1.036   1.873   3.232  0.1750  1.0242 -0.1257
11514TIP3    H156033   1.039   1.869   3.327  1.1444  0.3921 -0.1625
11514TIP3    H256034   1.095   1.803   3.203 -0.9350  0.4816 -1.1987
11515TIP3   OH256035   3.478   3.768   6.697 -0.3449 -0.3791 -0.6358
11515TIP3    H156036   3.421   3.738   6.625 -0.8332 -0.0482 -0.3951
11515TIP3    H256037   3.562   3.787   6.655 -0.2029 -1.4918 -0.8947
11516TIP3   OH256038   3.136   2.912   2.022 -0.4119 -0.2594 -0.7140
11516TIP3    H156039   3.183   2.834   1.993 -0.6874 -0.6339 -0.1817
11516TIP3    H256040   3.092   2.884   2.102 -0.2657  0.5376 -0.3529
11517TIP3   OH256041   2.677   5.718  11.970  0.7577 -0.6345  0.1870
11517TIP3    H156042   2.762   5.688  12.003  1.2993  0.5320 -0.0901
11517TIP3    H256043   2.680   5.813  11.981 -0.8624 -0.6467  0.9624
11518TIP3   OH256044   4.904   4.752  12.199  0.3622  0.5024 -0.0716
11518TIP3    H156045   4.960   4.812  12.248  0.1895  1.4863 -1.0408
11518TIP3    H256046   4.956   4.671  12.190  0.9438  0.8098  0.4937
11519TIP3   OH256047   6.318   4.930   5.441 -0.3343 -0.1561  0.0914
11519TIP3    H156048   6.372   4.993   5.489 -0.2905 -0.0770 -0.0593
11519TIP3    H256049   6.278   4.876   5.509  1.2618 -1.3379  0.1449
11520TIP3   OH256050   2.811   0.707  14.599  0.3315 -0.3211  0.5843
11520TIP3    H156051   2.875   0.741  14.536 -0.6724  1.2013  0.3332
11520TIP3    H256052   2.726   0.723  14.558 -0.3611  0.7627  2.3055
11521TIP3   OH256053   3.300   3.568  13.945  0.0837 -0.0370  0.3518
11521TIP3    H156054   3.269   3.642  13.894  2.4047  0.2262 -0.8197
11521TIP3    H256055   3.305   3.601  14.035  0.8039  1.1490 -0.1062
11522TIP3   OH256056   5.533   3.878  13.633  0.0048 -0.0267  0.5854
11522TIP3    H156057   5.614   3.925  13.612 -0.1883 -0.2963 -0.8450
11522TIP3    H256058   5.546   3.790  13.595 -0.3010 -0.6115  1.7850
11523TIP3   OH256059   2.573   6.401   5.836  0.6577 -0.2797 -0.2738
11523TIP3    H156060   2.519   6.454   5.778  0.8142  1.5103  1.0824
11523TIP3    H256061   2.512   6.367   5.902  0.5062 -2.1485 -1.3196
11524TIP3   OH256062   5.643   1.210  17.044 -0.0921  0.2243  0.0829
11524TIP3    H156063   5.599   1.149  16.985 -0.6443 -1.5683  2.2305
11524TIP3    H256064   5.573   1.241  17.102  0.7239  0.6413  0.8585
11525TIP3   OH256065   6.244   1.120  14.055 -0.5485 -0.1257 -0.4010
11525TIP3    H156066   6.161   1.075  14.071 -0.6000  0.4295  1.0158
11525TIP3    H256067   6.287   1.123  14.140  0.6087  0.2355 -0.9798
11526TIP3   OH256068   2.305   5.354   0.559  0.6639  0.5079  0.9549
11526TIP3    H156069   2.253   5.381   0.484 -0.8877 -1.6570  1.1769
11526TIP3    H256070   2.385   5.318   0.521 -0.0534 -0.4548  0.3168
11527TIP3   OH256071   3.811   2.703   3.244 -0.0240  0.0092 -0.1835
11527TIP3    H156072   3.779   2.682   3.331 -2.2174  0.4464 -0.8271
11527TIP3    H256073   3.835   2.619   3.206  0.5914 -0.2175  0.6761
11528TIP3   OH256074   1.572   3.663  16.199 -0.1996 -0.0169  0.4501
11528TIP3    H156075   1.506   3.621  16.254  0.8768 -1.9829  0.3220
11528TIP3    H256076   1.626   3.591  16.167  1.5463  1.4533 -0.0620
11529TIP3   OH256077   2.902   3.319  13.136 -0.0007 -0.2863 -0.1488
11529TIP3    H156078   2.894   3.241  13.191  0.3357 -0.1051  0.1680
11529TIP3    H256079   2.813   3.338  13.107 -0.5457  0.7887  2.0027
11530TIP3   OH256080   5.026   2.261  16.053 -0.3125  0.2245  0.2152
11530TIP3    H156081   4.988   2.174  16.056 -0.9610  0.4936  0.0252
11530TIP3    H256082   5.062   2.275  16.140 -0.2089 -0.2316  0.2444
11531TIP3   OH256083   6.013   1.956  12.479 -0.2460 -0.2304  0.0900
11531TIP3    H156084   5.940   2.008  12.512  0.2134  0.2313  0.3806
11531TIP3    H256085   6.031   1.992  12.392 -0.2214 -0.2027  0.1068
11532TIP3   OH256086   4.277   0.088  11.157  0.0211 -0.2117  0.1136
11532TIP3    H156087   4.277   0.164  11.100  0.7658  0.1971  0.6447
11532TIP3    H256088   4.188   0.053  11.151 -0.6197  1.2626  0.5991
11533TIP3   OH256089   4.249   3.969  16.069  0.0310 -0.1783 -0.5512
11533TIP3    H156090   4.248   3.901  16.002  0.2714 -0.5839 -0.1465
11533TIP3    H256091   4.319   4.029  16.042  0.0464 -0.2749 -0.7244
11534TIP3   OH256092   2.898   6.373  12.872  0.1350  0.7280  0.4368
11534TIP3    H156093   2.875   6.398  12.782  0.1750 -2.9533 -0.7468
11534TIP3    H256094   2.825   6.405  12.925 -0.4968  1.8945 -1.0692
11535TIP3   OH256095   1.797   6.287   2.426  0.5510  0.0962  0.0090
11535TIP3    H156096   1.848   6.366   2.410 -0.6238  0.9647  0.4253
11535TIP3    H256097   1.819   6.229   2.353  1.3501  0.8419 -0.3588
11536TIP3   OH256098   2.297   0.416   5.734  0.0077  0.0950  0.1126
11536TIP3    H156099   2.361   0.434   5.803 -0.1087  0.7567  0.0526
11536TIP3    H256100   2.288   0.499   5.687 -2.1913  0.5453  1.1931
11537TIP3   OH256101   2.195   2.821   3.714  0.4099 -0.2212  0.3155
11537TIP3    H156102   2.180   2.908   3.678  2.1182 -0.1697 -0.3884
11537TIP3    H256103   2.176   2.829   3.808  0.0195  0.7592  0.1545
11538TIP3   OH256104   1.138   0.295  17.350 -0.1298  0.4136  0.4040
11538TIP3    H156105   1.156   0.284  17.257  0.2808  0.9658  0.4080
11538TIP3    H256106   1.079   0.371  17.353 -0.3365  0.2469  0.5798
11539TIP3   OH256107   3.043   3.603  11.651  0.0932  0.2808  0.3852
11539TIP3    H156108   2.958   3.642  11.672 -0.5327 -0.2602 -1.0635
11539TIP3    H256109   3.070   3.645  11.570  0.0821 -1.2422 -0.4322
11540TIP3   OH256110   0.206   0.994  13.993 -0.0127 -0.1574 -0.7651
11540TIP3    H156111   0.155   1.068  13.962 -3.6310 -1.9322  0.2822
11540TIP3    H256112   0.251   0.960  13.916  0.8685  2.3714 -1.4484
11541TIP3   OH256113   5.505   3.184   4.239  0.0520  0.3142  0.4019
11541TIP3    H156114   5.570   3.202   4.307 -0.4176 -0.2452  1.0134
11541TIP3    H256115   5.424   3.169   4.288 -0.4283  0.5243 -0.3216
11542TIP3   OH256116   5.583   6.363  15.159  0.3857  0.0453 -0.0840
11542TIP3    H156117   5.542   6.437  15.205 -1.9563 -1.0243 -0.3273
11542TIP3    H256118   5.672   6.359  15.195 -0.1686  1.5453  1.5932
11543TIP3   OH256119   1.688   2.236  10.666 -0.2332 -0.1998  0.8406
11543TIP3    H156120   1.762   2.296  10.666 -1.1394  0.9927 -0.2187
11543TIP3    H256121   1.627   2.273  10.730 -0.9546  0.2753 -0.0806
11544TIP3   OH256122   0.691   6.619  14.004 -0.0989  0.3166 -0.4791
11544TIP3    H156123   0.688   6.635  14.098 -0.1511 -0.7596 -0.2798
11544TIP3    H256124   0.691   6.523  13.996 -4.0437  0.2383 -1.6592
11545TIP3   OH256125   0.245   4.372  11.140 -0.1900 -0.2295 -0.4252
11545TIP3    H156126   0.241   4.278  11.124 -1.9307 -0.3775  0.5659
11545TIP3    H256127   0.322   4.383  11.196 -0.0219 -1.0700 -0.4733
11546TIP3   OH256128   4.689   4.071   3.928  0.8391  0.4317  0.1370
11546TIP3    H156129   4.712   4.058   4.020 -2.0873 -2.9044  0.6019
11546TIP3    H256130   4.596   4.091   3.929  0.8476  0.8336 -2.1335
11547TIP3   OH256131   0.705   1.813   2.052 -0.3294 -0.0751  0.3901
11547TIP3    H156132   0.656   1.733   2.031  1.3763 -1.3331  0.9757
11547TIP3    H256133   0.691   1.825   2.146  0.5452 -0.4994  0.5802
11548TIP3   OH256134   1.836   5.900   3.734  0.3913  0.6123 -0.5608
11548TIP3    H156135   1.759   5.941   3.695 -0.2879  0.1717  0.2690
11548TIP3    H256136   1.904   5.907   3.667 -0.2555  1.3660 -1.1563
11549TIP3   OH256137   0.641   4.285   5.957 -0.4991  0.0379 -0.0053
11549TIP3    H156138   0.714   4.284   5.895 -0.9929  1.0155 -0.6182
11549TIP3    H256139   0.643   4.373   5.994 -1.1263 -0.0601  0.2693
11550TIP3   OH256140   0.415   5.086  11.463  0.0565 -0.0939 -0.3939
11550TIP3    H156141   0.336   5.106  11.512  0.4089  1.5208 -0.4095
11550TIP3    H256142   0.436   5.168  11.417  0.7087 -1.0246 -1.8546
11551TIP3   OH256143   1.232   0.316   1.805 -0.1827  0.4973 -0.0494
11551TIP3    H156144   1.301   0.275   1.857  1.0360  0.5855 -1.5356
11551TIP3    H256145   1.244   0.280   1.717 -3.6310 -1.4323  0.1111
11552TIP3   OH256146   5.636   2.383   6.169  0.6776 -0.2063  0.5817
11552TIP3    H156147   5.609   2.464   6.126  0.6329 -0.9272 -0.8190
11552TIP3    H256148   5.568   2.320   6.146  1.4518 -1.0037  0.4311
11553TIP3   OH256149   5.603   5.144   5.074  0.1500  0.5422 -0.2887
11553TIP3    H156150   5.595   5.092   5.153  0.0821  1.0936  0.0723
11553TIP3    H256151   5.645   5.085   5.011 -0.4978 -0.1433 -0.0886
11554TIP3   OH256152   4.994   2.169  12.244 -0.0888  0.2835  0.2553
11554TIP3    H156153   4.934   2.227  12.197  0.8018  1.2555  0.2814
11554TIP3    H256154   5.081   2.199  12.218  0.4077 -1.6271 -0.4068
11555TIP3   OH256155   4.238   0.494   1.592 -0.3961 -0.5285 -0.0703
11555TIP3    H156156   4.209   0.578   1.630  2.7335  0.2473  0.9379
11555TIP3    H256157   4.201   0.428   1.650  0.3350  0.4060  1.5230
11556TIP3   OH256158   4.757   5.586   4.564 -0.0557  0.5022  0.4309
11556TIP3    H156159   4.672   5.629   4.555 -0.4675 -0.1976  0.9507
11556TIP3    H256160   4.805   5.611   4.485 -1.3420 -0.4706 -0.6952
11557TIP3   OH256161   0.030   4.384   4.913 -0.5830  0.3459  0.0445
11557TIP3    H156162   0.062   4.304   4.955  0.6451  1.8289  2.1382
11557TIP3    H256163   0.001   4.439   4.985 -0.1401  2.3102 -1.1869
11558TIP3   OH256164   3.344   5.221  15.119  0.7936  0.9368 -0.1380
11558TIP3    H156165   3.276   5.284  15.142 -0.0448 -0.3736  1.1933
11558TIP3    H256166   3.323   5.195  15.029 -0.7267  0.2713  0.3807
11559TIP3   OH256167   4.771   0.598   3.672 -0.2789 -0.0911 -0.1611
11559TIP3    H156168   4.863   0.603   3.648  0.2879  0.5036  1.9281
11559TIP3    H256169   4.753   0.505   3.684  0.1170 -0.1923 -0.3663
11560TIP3   OH256170   1.723   5.637  13.346 -0.0255 -0.1906  0.5616
11560TIP3    H156171   1.735   5.625  13.252 -0.6157 -0.4494  0.5164
11560TIP3    H256172   1.791   5.583  13.386  2.2899  2.3238  0.2767
11561TIP3   OH256173   6.196   6.166   2.526 -0.3596 -0.2172  0.1559
11561TIP3    H156174   6.246   6.091   2.491 -1.3297 -0.4995 -0.6822
11561TIP3    H256175   6.193   6.150   2.620 -0.8992 -1.4863 -0.0436
11562TIP3   OH256176   5.901   4.819   5.766 -0.6714 -0.4223  0.1214
11562TIP3    H156177   5.981   4.840   5.815 -0.3333  0.4114 -0.7553
11562TIP3    H256178   5.922   4.738   5.719  0.5209  0.9549 -1.8812
11563TIP3   OH256179   1.467   1.770   2.434 -0.1877  0.5424 -0.0391
11563TIP3    H156180   1.397   1.723   2.478  0.4770 -0.8782 -0.4393
11563TIP3    H256181   1.519   1.808   2.505  0.6822 -1.4429  0.4679
11564TIP3   OH256182   2.237   4.972  16.390 -0.0055 -0.2388 -0.4484
11564TIP3    H156183   2.312   4.918  16.367  1.1956  0.7006  1.0296
11564TIP3    H256184   2.275   5.047  16.436 -1.6924  1.3020 -1.4157
11565TIP3   OH256185   0.753   4.773  11.515  0.3220 -0.3454 -0.4587
11565TIP3    H156186   0.685   4.825  11.556 -0.1706 -0.3198 -1.2814
11565TIP3    H256187   0.830   4.784  11.571 -0.5112 -0.8807  0.8334
11566TIP3   OH256188   1.393   2.131   4.944 -0.4804 -0.0718 -0.0534
11566TIP3    H156189   1.342   2.205   4.908 -1.3498 -0.1045  1.0583
11566TIP3    H256190   1.473   2.130   4.892 -0.6543  1.3788 -0.3983
11567TIP3   OH256191   5.818   2.486   3.714 -0.3194 -0.6492  0.1111
11567TIP3    H156192   5.820   2.477   3.809 -0.3251 -2.5214 -0.0355
11567TIP3    H256193   5.861   2.408   3.681  4.3901  2.2037 -1.4240
11568TIP3   OH256194   4.009   0.795  13.139 -0.7514 -0.6634 -0.2953
11568TIP3    H156195   4.092   0.828  13.175 -0.3338  0.6233 -2.2749
11568TIP3    H256196   3.982   0.861  13.076 -3.4775 -0.9196  0.4573
11569TIP3   OH256197   2.613   1.912  13.086 -0.2631 -0.4483 -0.7726
11569TIP3    H156198   2.683   1.926  13.022  0.6399  1.5201  0.5743
11569TIP3    H256199   2.626   1.822  13.117  0.3062 -0.8465 -2.0849
11570TIP3   OH256200   0.898   2.326   1.738 -0.7058 -0.4452 -0.5993
11570TIP3    H156201   0.810   2.358   1.716 -0.1090  3.0937  1.5147
11570TIP3    H256202   0.885   2.278   1.820 -0.9504 -2.1433 -1.5821
11571TIP3   OH256203   1.102   4.687   4.365 -0.1489 -0.3725 -0.0606
11571TIP3    H156204   1.067   4.761   4.414 -1.0592 -0.8603  0.0490
11571TIP3    H256205   1.181   4.661   4.413  0.2168  0.5547 -0.1376
11572TIP3   OH256206   4.864   4.327   0.598 -0.5859 -0.3528  0.2763
11572TIP3    H156207   4.905   4.413   0.599 -2.0806  0.4012 -0.1512
11572TIP3    H256208   4.935   4.266   0.615  0.2833  1.0504  1.8818
11573TIP3   OH256209   5.024   2.269  12.998 -0.4378 -0.0353  0.1814
11573TIP3    H156210   5.105   2.231  12.965 -1.1449 -1.4889  0.0611
11573TIP3    H256211   5.052   2.326  13.070  0.9309  1.6534 -1.5854
11574TIP3   OH256212   1.665   3.256  12.500  0.1300 -0.3203  0.6215
11574TIP3    H156213   1.635   3.194  12.567  1.5978 -1.0918  0.6188
11574TIP3    H256214   1.671   3.203  12.420  0.7558 -0.0192  0.4623
11575TIP3   OH256215   4.798   5.209  12.584 -0.6240 -0.0642  0.4147
11575TIP3    H156216   4.734   5.279  12.599  1.1260  1.7937 -0.2876
11575TIP3    H256217   4.807   5.205  12.488  0.3963 -0.1845  0.5018
11576TIP3   OH256218   0.040   6.267   4.793  0.0381 -0.2358  0.3085
11576TIP3    H156219  -0.008   6.296   4.870 -0.6731 -1.3019  0.2822
11576TIP3    H256220   0.131   6.263   4.822 -0.2135 -0.5592  1.0700
11577TIP3   OH256221   4.849   1.969  16.607  0.4538 -0.0154 -0.1449
11577TIP3    H156222   4.781   1.922  16.559  1.7146 -0.0417 -1.9790
11577TIP3    H256223   4.801   2.022  16.671 -1.2882 -0.0021 -1.4080
11578TIP3   OH256224   1.835   2.799  15.764  0.3272  0.2855 -0.4686
11578TIP3    H156225   1.924   2.825  15.786 -0.1014  2.4471 -1.0791
11578TIP3    H256226   1.815   2.726  15.823  2.5761 -0.4409 -0.5347
11579TIP3   OH256227   4.307   4.986  14.625  0.0469  0.0671 -0.5454
11579TIP3    H156228   4.284   5.023  14.539  0.1774  1.5376  0.0176
11579TIP3    H256229   4.224   4.979  14.671 -0.0286 -0.7703 -0.7886
11580TIP3   OH256230   6.660   0.649  16.032  0.1755 -0.2025 -0.1872
11580TIP3    H156231   6.671   0.590  16.106  1.0994  0.5492  0.3012
11580TIP3    H256232   6.640   0.734  16.073 -0.5581 -0.0400 -0.8551
11581TIP3   OH256233   2.728   1.484   3.326 -0.5187 -0.3135 -0.5027
11581TIP3    H156234   2.682   1.514   3.404  0.3478  1.0482 -0.4810
11581TIP3    H256235   2.659   1.466   3.262 -1.1625  0.1362  0.0584
11582TIP3   OH256236   1.203   4.839  14.893 -0.8505 -0.1097 -0.1965
11582TIP3    H156237   1.267   4.789  14.842  0.8304  1.7105  0.0167
11582TIP3    H256238   1.232   4.829  14.984 -1.0145  0.5148 -0.0693
11583TIP3   OH256239   0.856   5.478   4.943  0.4084  0.1264 -0.1861
11583TIP3    H156240   0.932   5.454   4.890  0.2855 -1.6076  0.3699
11583TIP3    H256241   0.893   5.502   5.028  0.3573 -0.4847  0.0107
11584TIP3   OH256242   6.073   3.002   3.978 -0.8537  0.1717 -0.3033
11584TIP3    H156243   6.150   2.998   3.923  0.9863  1.4504  2.0207
11584TIP3    H256244   6.085   3.080   4.033 -2.8474 -0.6241  1.4389
11585TIP3   OH256245   1.198   1.126   1.353  0.0639 -0.3486  0.0356
11585TIP3    H156246   1.192   1.032   1.336 -2.0967 -0.5079  1.2866
11585TIP3    H256247   1.239   1.133   1.440 -1.7340 -0.2926  0.9192
11586TIP3   OH256248   2.237   2.025  14.406 -0.6062 -0.5570  0.1182
11586TIP3    H156249   2.143   2.042  14.415 -0.4016  2.7243 -1.9669
11586TIP3    H256250   2.254   2.032  14.312  1.9448  0.6993  0.5780
11587TIP3   OH256251   0.741   2.673   6.278  0.0008 -0.8609 -0.3785
11587TIP3    H156252   0.812   2.704   6.334 -0.3554 -0.4055 -0.1781
11587TIP3    H256253   0.661   2.701   6.323 -0.4775 -4.1781  1.1584
11588TIP3   OH256254   4.979   4.456  11.877  0.0047 -0.2117  0.5510
11588TIP3    H156255   5.074   4.463  11.870  0.0186  0.6734  1.3861
11588TIP3    H256256   4.948   4.546  11.876 -0.7112 -0.4266  1.5967
11589TIP3   OH256257   6.207   1.613  16.473  0.1836 -0.9870  0.0975
11589TIP3    H156258   6.188   1.524  16.444  2.7302 -1.7472  0.5009
11589TIP3    H256259   6.297   1.629  16.445  1.3208 -0.1754  3.6128
11590TIP3   OH256260   0.710   2.836  16.877  0.4763  0.0555  0.0663
11590TIP3    H156261   0.688   2.929  16.889  0.0994  0.1335 -1.1464
11590TIP3    H256262   0.691   2.818  16.785  1.0515 -1.0990  0.1554
11591TIP3   OH256263   2.735   6.050   4.514  0.2039  0.4938 -0.1898
11591TIP3    H156264   2.762   5.966   4.477  0.8862  0.9234 -0.7042
11591TIP3    H256265   2.735   6.036   4.609 -0.8800 -0.4217 -0.3050
11592TIP3   OH256266   0.699   5.404  12.111 -0.5203  0.6242 -0.0640
11592TIP3    H156267   0.656   5.434  12.191 -1.2208 -0.2529 -0.0931
11592TIP3    H256268   0.791   5.430  12.121 -0.4383 -0.1436  1.3731
11593TIP3   OH256269   3.631   4.645   0.145 -0.2395 -0.2213 -0.2274
11593TIP3    H156270   3.701   4.663   0.207 -0.7135 -0.3161  0.3448
11593TIP3    H256271   3.659   4.687   0.064  0.4289 -0.1744  0.0219
11594TIP3   OH256272   5.110   1.388  13.809  0.7942 -0.4922 -0.1518
11594TIP3    H156273   5.127   1.481  13.795  0.3343 -0.6408 -1.8615
11594TIP3    H256274   5.040   1.386  13.874  1.2272  0.3348  0.3531
11595TIP3   OH256275   1.201   0.469  13.651 -0.0654  0.2762 -0.1034
11595TIP3    H156276   1.158   0.383  13.651  3.4933 -1.6698 -0.7191
11595TIP3    H256277   1.191   0.500  13.561 -0.8563  0.2764 -0.0270
11596TIP3   OH256278   0.687   5.733  14.594  0.0983  0.6720  0.1797
11596TIP3    H156279   0.673   5.639  14.591 -1.0962  0.8116  0.9036
11596TIP3    H256280   0.604   5.771  14.564  1.1455  1.5090 -1.9342
11597TIP3   OH256281   1.625   2.831   4.977  0.2701  0.0666  0.1884
11597TIP3    H156282   1.618   2.748   5.023  0.3268 -0.0711 -0.0452
11597TIP3    H256283   1.701   2.874   5.016  0.1193  0.0971  0.4472
11598TIP3   OH256284   1.847   2.300  15.908 -0.0251  1.1944 -0.2238
11598TIP3    H156285   1.879   2.230  15.852 -0.8950  0.6102 -0.0027
11598TIP3    H256286   1.908   2.373  15.892 -0.6394  1.3033 -2.4688
11599TIP3   OH256287   3.037   4.112   0.580 -0.1193  0.1290 -0.2355
11599TIP3    H156288   3.113   4.100   0.636  0.0328  1.2565 -0.1774
11599TIP3    H256289   3.044   4.203   0.550 -0.1800 -0.4527 -2.1045
11600TIP3   OH256290   1.888   6.768  13.430 -0.0136  0.1800  0.9139
11600TIP3    H156291   1.972   6.734  13.400  0.2816  0.6384  1.2122
11600TIP3    H256292   1.899   6.864  13.429 -0.9767  0.3146 -0.3684
11601TIP3   OH256293   2.680   3.921   0.571  0.3667 -0.4113  0.1954
11601TIP3    H156294   2.772   3.928   0.543 -0.1019  0.8310 -1.1909
11601TIP3    H256295   2.632   3.901   0.491 -1.0864  3.6343 -0.2134
11602TIP3   OH256296   4.349   4.773  16.046 -0.2201  0.0348  0.4989
11602TIP3    H156297   4.384   4.857  16.016  0.5590 -0.5199 -0.1826
11602TIP3    H256298   4.379   4.710  15.981 -2.3360 -0.5196 -0.0179
11603TIP3   OH256299   3.744   1.427  15.111  0.1553  0.2316  0.3470
11603TIP3    H156300   3.832   1.435  15.148 -0.1790  0.1388  1.1883
11603TIP3    H256301   3.727   1.333  15.106  0.9322  0.1558 -1.8846
11604TIP3   OH256302   3.212   1.317  12.857 -0.1459  0.3405  0.2333
11604TIP3    H156303   3.146   1.382  12.832  0.6138  1.5717  1.3269
11604TIP3    H256304   3.279   1.324  12.789 -1.1573 -1.0439 -0.9865
11605TIP3   OH256305   4.253   5.256  15.861 -0.0692  0.2747 -0.4274
11605TIP3    H156306   4.301   5.174  15.873 -1.2981 -0.3463  0.4880
11605TIP3    H256307   4.320   5.324  15.864  0.7982 -0.5872  0.3452
11606TIP3   OH256308   0.869   3.991   0.308 -0.6261 -0.0805 -0.1592
11606TIP3    H156309   0.890   4.084   0.298 -3.1667  0.5143 -0.6321
11606TIP3    H256310   0.864   3.958   0.218  0.6749 -0.8037  0.0164
11607TIP3   OH256311   6.532   3.801   1.788  0.0924 -0.0645 -0.1602
11607TIP3    H156312   6.463   3.775   1.727 -0.7504  0.7151  0.4221
11607TIP3    H256313   6.605   3.744   1.768 -0.2780 -0.0504 -1.6705
11608TIP3   OH256314   5.527   2.312  11.555  0.1696 -0.2840  0.1466
11608TIP3    H156315   5.559   2.223  11.570  0.8188 -0.2431 -0.8635
11608TIP3    H256316   5.433   2.301  11.536  0.2833 -0.7797 -0.1583
11609TIP3   OH256317   0.714   3.346  13.080 -0.6905 -0.6619  0.3089
11609TIP3    H156318   0.643   3.292  13.116 -0.1322 -1.7615 -0.1864
11609TIP3    H256319   0.794   3.310  13.120 -0.1853 -1.0427 -1.0143
11610TIP3   OH256320   2.205   6.607  12.877  0.3198 -0.4070 -0.4974
11610TIP3    H156321   2.187   6.531  12.820 -1.0606 -0.5297  0.0666
11610TIP3    H256322   2.268   6.659  12.828  0.7771 -1.5748 -1.2035
11611TIP3   OH256323   4.180   3.828  11.477  0.1852  0.1612  0.6404
11611TIP3    H156324   4.173   3.785  11.562 -0.2005  0.1585  0.6063
11611TIP3    H256325   4.241   3.901  11.493  1.6962 -1.0139  0.4385
11612TIP3   OH256326   5.066   3.799   4.034 -0.5013  0.4910  0.5115
11612TIP3    H156327   5.115   3.881   4.042 -1.0573  0.8077  0.6866
11612TIP3    H256328   4.998   3.818   3.970  0.3950 -0.3403 -0.7372
11613TIP3   OH256329   5.542   3.849  15.662 -0.0187  0.7171  0.3939
11613TIP3    H156330   5.507   3.765  15.632  0.3581  0.5110  0.5248
11613TIP3    H256331   5.559   3.898  15.581 -0.5893  0.8125  0.3303
11614TIP3   OH256332   0.906   0.486  11.575 -0.0094  0.3574  1.0452
11614TIP3    H156333   0.838   0.469  11.510  0.8270 -1.2008  0.5414
11614TIP3    H256334   0.974   0.422  11.556  1.7588  2.0606  1.3501
11615TIP3   OH256335   4.961   5.302   3.724  0.1298 -0.1991 -0.1721
11615TIP3    H156336   4.918   5.369   3.671  0.2797  2.0233  2.3627
11615TIP3    H256337   4.889   5.245   3.754 -0.1380 -0.5292 -1.3797
11616TIP3   OH256338   2.557   2.657   0.259 -0.0240 -0.0135  0.2253
11616TIP3    H156339   2.591   2.733   0.306  0.3729  0.1491 -0.3181
11616TIP3    H256340   2.495   2.694   0.196 -1.7445 -0.3549  1.6398
11617TIP3   OH256341   2.534   2.048  13.671  0.3512  0.2790  0.1040
11617TIP3    H156342   2.505   2.000  13.749  0.8711  0.0686  0.1731
11617TIP3    H256343   2.497   2.135  13.682 -2.7764 -0.7404 -1.2560
11618TIP3   OH256344   1.898   4.402  11.587  0.9919  0.0734  0.6945
11618TIP3    H156345   1.917   4.343  11.514  2.9871  0.6756  0.6615
11618TIP3    H256346   1.913   4.348  11.665 -2.0817 -0.8563  0.7543
11619TIP3   OH256347   1.001   3.832   3.464  0.1334  0.3571  0.0999
11619TIP3    H156348   1.079   3.879   3.434 -1.4411  2.0998 -1.5255
11619TIP3    H256349   0.940   3.901   3.490 -1.4500 -0.8731 -0.1914
11620TIP3   OH256350   3.310   5.352  17.276  0.3960  0.2293  0.0641
11620TIP3    H156351   3.275   5.310  17.198 -2.1997  0.3609  1.0798
11620TIP3    H256352   3.395   5.311  17.289  0.4719 -0.4844 -2.2503
11621TIP3   OH256353   2.408   5.883   5.157  0.7525  0.0316  0.3733
11621TIP3    H156354   2.354   5.929   5.092  0.6106 -0.5203  0.0903
11621TIP3    H256355   2.358   5.804   5.176  2.6302 -1.8617 -1.8604
11622TIP3   OH256356   1.017   4.854  16.399 -0.0973 -0.0062 -0.0330
11622TIP3    H156357   1.093   4.898  16.438  0.0770  0.1978 -0.5884
11622TIP3    H256358   0.943   4.911  16.420 -0.1073 -0.2247  0.5411
11623TIP3   OH256359   2.909   6.583  16.450  0.7205 -0.2278  0.4035
11623TIP3    H156360   2.903   6.489  16.468  0.2609 -0.2357  0.2406
11623TIP3    H256361   2.875   6.624  16.530 -0.3116 -0.2386 -0.0060
11624TIP3   OH256362   3.230   1.661  13.646 -0.4091  0.1953  0.1482
11624TIP3    H156363   3.273   1.688  13.564  1.2208  0.1248  0.9299
11624TIP3    H256364   3.279   1.583  13.673 -1.0990  0.0659  1.0637
11625TIP3   OH256365   3.481   2.344  15.446 -0.9319 -0.3940  0.6914
11625TIP3    H156366   3.538   2.347  15.369 -1.0465 -1.5362  0.5433
11625TIP3    H256367   3.414   2.410  15.428  0.0166  0.5721  0.6146
11626TIP3   OH256368   3.241   4.866  15.855 -0.2968  0.2524 -0.2498
11626TIP3    H156369   3.194   4.846  15.936 -3.3972  2.4582 -1.2626
11626TIP3    H256370   3.279   4.953  15.870  0.3801  0.0392 -0.6835
11627TIP3   OH256371   5.827   2.062  14.501 -0.3676 -0.0880 -0.0259
11627TIP3    H156372   5.744   2.110  14.499  1.0041  2.5417  1.0449
11627TIP3    H256373   5.848   2.055  14.594 -0.1702 -2.2712 -0.2015
11628TIP3   OH256374   5.234   0.557  14.634 -0.0933 -0.3294 -0.3029
11628TIP3    H156375   5.303   0.617  14.662  0.6231 -1.9242  1.5074
11628TIP3    H256376   5.184   0.540  14.713 -0.6744 -1.6285 -0.9252
11629TIP3   OH256377   4.447   3.736   3.289 -0.2228  0.2206  0.0304
11629TIP3    H156378   4.440   3.751   3.383 -0.1002 -0.6111  0.1811
11629TIP3    H256379   4.541   3.728   3.273 -0.2801 -0.3733 -0.0347
11630TIP3   OH256380   5.821   4.333  11.122  0.2439  0.2897  0.1967
11630TIP3    H156381   5.761   4.394  11.080 -1.3298 -0.4207  1.3058
11630TIP3    H256382   5.901   4.383  11.137 -0.7152  1.8261  0.3415
11631TIP3   OH256383   1.905   5.075   5.298  0.5855  0.2759 -0.1664
11631TIP3    H156384   1.994   5.050   5.274  0.6054 -1.3063  1.3664
11631TIP3    H256385   1.858   4.992   5.307 -2.1867  1.0077 -4.5429
11632TIP3   OH256386   2.070   0.827  14.922 -0.3263 -0.0522  0.7567
11632TIP3    H156387   2.160   0.795  14.923  1.1097  2.6784 -4.3407
11632TIP3    H256388   2.016   0.748  14.914  1.8490 -1.6507  1.0561
11633TIP3   OH256389   6.472   2.610  11.950 -0.0027 -0.0410 -0.0346
11633TIP3    H156390   6.448   2.689  11.901  1.8943  0.7665  0.2200
11633TIP3    H256391   6.443   2.628  12.039 -1.0896 -0.3756 -0.3105
11634TIP3   OH256392   1.665   0.186   5.233 -0.1537  0.5340 -0.1160
11634TIP3    H156393   1.721   0.218   5.304  0.0490  0.3334 -0.1828
11634TIP3    H256394   1.624   0.264   5.198 -1.8838  0.4593  1.5797
11635TIP3   OH256395   4.780   2.769   4.948  0.2146 -0.8632 -0.4071
11635TIP3    H156396   4.685   2.774   4.958  0.2484 -1.5764  0.3236
11635TIP3    H256397   4.805   2.688   4.992  1.1387 -0.8068 -0.8053
11636TIP3   OH256398   4.867   2.853  11.608 -0.0248  0.2268  0.3277
11636TIP3    H156399   4.804   2.840  11.537  0.7180 -0.6011 -0.2121
11636TIP3    H256400   4.815   2.884  11.682 -0.8026  1.2144 -0.6075
11637TIP3   OH256401   5.492   3.005  16.978  0.7095  0.4250  0.3345
11637TIP3    H156402   5.439   3.044  17.048 -0.0107  0.3508 -0.1510
11637TIP3    H256403   5.500   2.913  17.003 -0.7848  0.0631 -0.3758
11638TIP3   OH256404   0.588   5.676  15.105  0.1822 -0.0276  0.0163
11638TIP3    H156405   0.614   5.633  15.023 -1.0862 -0.2009 -0.3213
11638TIP3    H256406   0.524   5.742  15.077 -1.4207 -1.1052  0.9999
11639TIP3   OH256407   3.561   0.744  16.120 -0.6762 -0.0269  0.2730
11639TIP3    H156408   3.513   0.732  16.203 -0.4121  0.1990  0.4602
11639TIP3    H256409   3.493   0.743  16.053 -0.7108 -2.4225  0.2640
11640TIP3   OH256410   3.399   3.222   2.425 -0.1673  0.2946  0.0565
11640TIP3    H156411   3.306   3.203   2.422 -0.1387  0.1174  0.2435
11640TIP3    H256412   3.425   3.201   2.515 -0.3875  2.4396  0.6625
11641TIP3   OH256413   6.027   0.939  14.086  0.3570  0.3161  0.7644
11641TIP3    H156414   5.974   0.887  14.146 -1.3535  0.5380 -0.4875
11641TIP3    H256415   6.078   0.875  14.038  0.2471 -0.0017  1.0662
11642TIP3   OH256416   2.026   2.027  12.399  0.7311  0.1945 -0.1185
11642TIP3    H156417   2.022   1.939  12.436  2.1823  0.0737 -0.1614
11642TIP3    H256418   2.115   2.033  12.363 -0.0715  0.9199 -2.0560
11643TIP3   OH256419   0.743   2.035  16.946  0.1988 -0.2482 -0.3263
11643TIP3    H156420   0.729   1.956  16.998 -1.4234  0.0806 -0.2064
11643TIP3    H256421   0.731   2.107  17.009  1.7388  0.1253 -0.4154
11644TIP3   OH256422   0.677   1.705   4.873  0.2577 -0.8025  0.7389
11644TIP3    H156423   0.716   1.707   4.960 -0.5953 -1.8929  1.1759
11644TIP3    H256424   0.593   1.750   4.884  0.8302  0.4977  0.0769
11645TIP3   OH256425   5.491   4.759  17.339 -0.1778  0.1179  0.3273
11645TIP3    H156426   5.560   4.823  17.361 -0.7114  0.4255  1.1710
11645TIP3    H256427   5.410   4.799  17.371 -0.5422 -0.9157  0.7423
11646TIP3   OH256428   4.560   5.939  15.701 -0.1056 -0.5902  0.2326
11646TIP3    H156429   4.621   5.965  15.632 -1.0958  0.6396 -0.2148
11646TIP3    H256430   4.528   5.853  15.674 -0.2443 -0.2564 -0.6997
11647TIP3   OH256431   5.760   4.913  13.828 -0.7317  0.3485 -0.0785
11647TIP3    H156432   5.743   4.999  13.790 -0.6538 -0.4545 -2.0375
11647TIP3    H256433   5.771   4.855  13.753 -0.6969 -1.3743  1.1942
11648TIP3   OH256434   6.763   0.260   5.752 -0.3245 -0.7055 -0.8246
11648TIP3    H156435   6.790   0.229   5.665 -3.1514 -0.6477 -1.8242
11648TIP3    H256436   6.723   0.345   5.735 -0.6363 -0.5562  0.5840
11649TIP3   OH256437   3.290   3.881  14.881 -0.3266 -0.0164 -0.2313
11649TIP3    H156438   3.305   3.930  14.800 -1.4601 -0.1601 -0.5472
11649TIP3    H256439   3.358   3.911  14.941  0.4194  0.2201 -1.1776
11650TIP3   OH256440   4.192   3.563  11.333 -0.3318 -0.0992 -0.0727
11650TIP3    H156441   4.146   3.636  11.374 -1.5332 -0.6590 -0.3885
11650TIP3    H256442   4.268   3.603  11.292 -0.0405  0.7243  1.1998
11651TIP3   OH256443   2.799   0.501  16.317 -0.1779 -0.0050 -0.7008
11651TIP3    H156444   2.780   0.473  16.406 -1.3747 -2.1056 -1.5372
11651TIP3    H256445   2.713   0.515  16.277  0.3510  1.5930 -1.3530
11652TIP3   OH256446   6.179   3.576   2.543  0.4548  0.5947 -0.4270
11652TIP3    H156447   6.133   3.658   2.561  1.1584  1.4182 -2.1602
11652TIP3    H256448   6.228   3.559   2.623  0.9948  2.3819 -0.3178
11653TIP3   OH256449   0.891   0.739   4.561  0.1484  0.6624  0.7764
11653TIP3    H156450   0.953   0.802   4.597  0.1695  1.9130 -1.2985
11653TIP3    H256451   0.928   0.715   4.476 -1.5385  0.4557  0.0657
11654TIP3   OH256452   3.446   6.691  17.082 -0.8906  0.0475  0.0112
11654TIP3    H156453   3.374   6.646  17.126 -0.3200 -0.0465  0.8628
11654TIP3    H256454   3.519   6.628  17.085 -0.5169  0.4722 -0.0811
11655TIP3   OH256455   1.340   6.366  12.888 -0.4283 -0.2027 -0.5940
11655TIP3    H156456   1.289   6.360  12.808  0.8609  0.7231 -1.5311
11655TIP3    H256457   1.331   6.458  12.915 -2.9729 -1.0392  1.8380
11656TIP3   OH256458   3.776   5.208   4.832 -0.0601  0.2158 -0.4606
11656TIP3    H156459   3.694   5.180   4.791 -0.1245  0.9101 -0.8191
11656TIP3    H256460   3.829   5.241   4.759  0.0099  1.0283 -0.0476
11657TIP3   OH256461   3.520   1.714  12.071 -0.1748  0.8174 -0.1301
11657TIP3    H156462   3.571   1.650  12.119  0.4729  1.5331  0.1568
11657TIP3    H256463   3.502   1.673  11.987 -1.1247 -0.3638  0.6127
11658TIP3   OH256464   2.285   4.154   6.392 -0.4594  0.2327 -0.5662
11658TIP3    H156465   2.332   4.136   6.310  0.5700  0.5564 -0.0617
11658TIP3    H256466   2.344   4.209   6.442 -1.2456  0.3608  0.2495
11659TIP3   OH256467   4.249   3.513  12.241 -0.0071 -0.4921  0.4038
11659TIP3    H156468   4.225   3.597  12.202  0.0222 -0.3922  0.5988
11659TIP3    H256469   4.198   3.449  12.192 -1.8366 -0.1679  1.7549
11660TIP3   OH256470   3.960   5.642  12.472 -0.2486 -0.8035  0.2654
11660TIP3    H156471   3.947   5.592  12.552 -2.3978  1.1309  1.2319
11660TIP3    H256472   3.901   5.602  12.408 -1.5590  0.0617  0.8827
11661TIP3   OH256473   1.136   3.057   6.623 -0.1736  0.0566 -0.4567
11661TIP3    H156474   1.226   3.086   6.617  0.1490 -1.0669 -1.5019
11661TIP3    H256475   1.135   2.971   6.580 -1.2085 -1.1623  1.7920
11662TIP3   OH256476   6.439   3.966  11.219 -0.3311  0.0616 -0.0088
11662TIP3    H156477   6.519   3.938  11.176  0.5167  3.2993 -0.7924
11662TIP3    H256478   6.468   4.025  11.288 -1.9725 -0.6583  1.3850
11663TIP3   OH256479   0.691   2.534  15.275 -0.0212 -0.4098 -0.3274
11663TIP3    H156480   0.757   2.485  15.226 -0.7668 -2.0679  0.2547
11663TIP3    H256481   0.716   2.524  15.367 -0.9560 -0.9197 -0.1091
11664TIP3   OH256482   2.790   4.802  14.819 -0.5646 -0.3657  0.0657
11664TIP3    H156483   2.824   4.890  14.838 -0.7520 -0.3195  0.1863
11664TIP3    H256484   2.789   4.759  14.904 -0.2025 -0.5816 -0.0349
11665TIP3   OH256485   0.133   0.426   2.082  0.4785 -0.1937 -0.6264
11665TIP3    H156486   0.067   0.490   2.107  1.1410 -0.0688  0.9281
11665TIP3    H256487   0.147   0.441   1.988  0.5665  1.8718 -0.3295
11666TIP3   OH256488   0.764   0.020   4.945 -0.2433 -0.0098  0.2912
11666TIP3    H156489   0.753   0.104   4.988 -2.1035 -0.2057  0.2924
11666TIP3    H256490   0.859   0.010   4.936  0.0273  2.6259 -0.7984
11667TIP3   OH256491   3.564   0.395   3.362 -0.4878 -0.4649 -0.3485
11667TIP3    H156492   3.566   0.406   3.457  2.4276 -1.5040 -0.1684
11667TIP3    H256493   3.523   0.475   3.329  2.4525  2.0981  1.6264
11668TIP3   OH256494   1.732   4.616  11.665  0.0305 -0.1622 -0.5570
11668TIP3    H156495   1.792   4.543  11.650 -0.6961 -0.5641 -1.6556
11668TIP3    H256496   1.703   4.641  11.578 -0.3686  0.9045 -0.1303
11669TIP3   OH256497   4.234   2.482   2.924  0.3586  0.4298 -0.0457
11669TIP3    H156498   4.224   2.434   2.842  0.6533  0.7529 -0.2675
11669TIP3    H256499   4.310   2.442   2.966  0.5761  0.6740 -0.2090
11670TIP3   OH256500   1.685   0.260  16.584 -0.6049  1.5287  0.6261
11670TIP3    H156501   1.612   0.202  16.562  0.5241 -0.3456  1.5119
11670TIP3    H256502   1.677   0.274  16.678  1.3596 -0.6175  1.2221
11671TIP3   OH256503   1.740   5.321  14.282 -0.2806  0.4972 -0.3518
11671TIP3    H156504   1.726   5.416  14.287  1.3953  0.7405  0.3135
11671TIP3    H256505   1.673   5.284  14.340 -0.4067  1.3370  0.0591
11672TIP3   OH256506   4.540   4.738   2.866 -0.0836  0.2245  0.4152
11672TIP3    H156507   4.449   4.709   2.860 -0.2301  0.4145  1.5726
11672TIP3    H256508   4.559   4.773   2.778  0.3126 -3.8374 -1.3336
11673TIP3   OH256509   2.661   4.354   1.378  0.2719 -0.7407  0.5109
11673TIP3    H156510   2.703   4.413   1.316 -0.4186 -1.1936 -0.4107
11673TIP3    H256511   2.644   4.408   1.456  0.1166  0.1423 -0.1257
11674TIP3   OH256512   2.252   5.917   2.206 -0.0014 -0.6450  0.0438
11674TIP3    H156513   2.234   5.850   2.140 -0.7424 -1.0712  0.6489
11674TIP3    H256514   2.206   5.886   2.285  1.7205 -0.6830  1.0765
11675TIP3   OH256515   4.044   3.676   3.604  0.0317 -0.4437  0.2414
11675TIP3    H156516   4.083   3.714   3.683 -0.4838 -1.0668  0.8077
11675TIP3    H256517   4.107   3.609   3.575 -0.2526 -0.9191  0.7138
11676TIP3   OH256518   4.444   3.225  15.036 -0.6487  0.2084  0.2130
11676TIP3    H156519   4.489   3.144  15.013 -1.7679 -0.5161  0.5024
11676TIP3    H256520   4.426   3.267  14.953 -1.2954 -0.5239 -0.0248
11677TIP3   OH256521   6.252   0.779  13.850  0.1625  0.4743 -0.2172
11677TIP3    H156522   6.223   0.833  13.777  2.0815  1.7096 -0.1401
11677TIP3    H256523   6.320   0.831  13.893  1.8524 -1.8210  0.0984
11678TIP3   OH256524   5.122   5.588  13.717  0.6357 -0.4312  0.4166
11678TIP3    H156525   5.099   5.527  13.648  2.7531 -0.5567 -0.2536
11678TIP3    H256526   5.114   5.538  13.798  0.8593 -1.1385  0.0025
11679TIP3   OH256527   2.143   4.643   1.097 -0.1534 -0.0943 -0.0321
11679TIP3    H156528   2.192   4.575   1.050 -0.6425 -0.9526  0.6673
11679TIP3    H256529   2.065   4.657   1.045  0.1415  0.2290 -0.3912
11680TIP3   OH256530   1.908   3.388  17.419 -0.0231 -0.3028  0.3209
11680TIP3    H156531   1.977   3.412  17.358  0.5115 -2.2338  0.1183
11680TIP3    H256532   1.948   3.397  17.506  0.0965 -0.2995  0.2647
11681TIP3   OH256533   0.408   0.158   6.153 -0.5033  0.3330 -0.3194
11681TIP3    H156534   0.327   0.125   6.191  0.5645  0.2276  2.0947
11681TIP3    H256535   0.457   0.079   6.129  0.3276  0.1896  1.6197
11682TIP3   OH256536   3.226   2.513   0.633 -0.6479 -0.5498  0.3255
11682TIP3    H156537   3.177   2.519   0.551 -2.1478  0.7585  1.2741
11682TIP3    H256538   3.291   2.584   0.628 -0.7496 -0.4611  0.2672
11683TIP3   OH256539   0.657   4.491  17.422 -0.2162  0.0858 -0.3167
11683TIP3    H156540   0.563   4.510  17.426 -0.6032 -1.6909 -0.1182
11683TIP3    H256541   0.699   4.576  17.436 -1.7848  0.9058 -0.3298
11684TIP3   OH256542   1.260   6.573   1.332  0.0474  0.6187 -0.2160
11684TIP3    H156543   1.179   6.584   1.383  0.2065  2.1459 -0.2365
11684TIP3    H256544   1.254   6.484   1.297 -0.8327  0.1113  1.1334
11685TIP3   OH256545   6.593   5.737  12.262 -0.3415  0.2486  0.4053
11685TIP3    H156546   6.583   5.767  12.172  3.1544  1.6506  0.3116
11685TIP3    H256547   6.638   5.653  12.255  0.5697  0.6877  0.8058
11686TIP3   OH256548   1.493   6.324   0.532 -0.4219  0.3699  0.2731
11686TIP3    H156549   1.398   6.333   0.523 -0.5231 -0.5618  0.3250
11686TIP3    H256550   1.520   6.404   0.577 -1.2302  0.4961  0.5553
11687TIP3   OH256551   4.177   3.488  14.813  0.2473  0.5634  0.7114
11687TIP3    H156552   4.099   3.438  14.839 -0.6457  1.4865 -0.0944
11687TIP3    H256553   4.245   3.421  14.802 -0.9130 -0.5147 -0.3846
11688TIP3   OH256554   2.869   5.296   5.882  0.2954  0.0559  0.6220
11688TIP3    H156555   2.948   5.293   5.828  0.7327  0.4214  1.2231
11688TIP3    H256556   2.852   5.205   5.905  0.4474 -0.0414  0.3594
11689TIP3   OH256557   1.083   2.381  12.410  0.4445 -0.2893 -0.0273
11689TIP3    H156558   1.007   2.359  12.357 -0.0753 -0.9865  0.9744
11689TIP3    H256559   1.080   2.319  12.483  1.5239  0.1995  0.4564
11690TIP3   OH256560   0.477   0.550   5.126  0.5419  0.1262  0.6810
11690TIP3    H156561   0.407   0.611   5.103  0.7627  0.8431  1.8063
11690TIP3    H256562   0.464   0.475   5.068 -2.5041 -0.7334  2.2357
11691TIP3   OH256563   2.897   4.388   6.564  0.4202 -0.2698 -0.1398
11691TIP3    H156564   2.811   4.386   6.523 -0.5402  0.0035  1.7693
11691TIP3    H256565   2.938   4.467   6.529 -0.9867  0.8295  0.5853
11692TIP3   OH256566   0.274   0.861  16.584 -0.5189 -0.6018 -0.1979
11692TIP3    H156567   0.361   0.851  16.622 -0.1233 -0.6228 -1.0969
11692TIP3    H256568   0.215   0.868  16.660  0.4851  1.4226  0.4514
11693TIP3   OH256569   1.906   0.779  17.107  0.6381 -0.0177  0.2321
11693TIP3    H156570   1.930   0.757  17.017  1.2625 -1.6202  0.7745
11693TIP3    H256571   1.816   0.747  17.117  0.5442  0.2206  0.1794
11694TIP3   OH256572   4.774   3.888   4.696  0.0777 -0.4423 -0.2375
11694TIP3    H156573   4.741   3.799   4.714  0.4385 -0.3394  1.0478
11694TIP3    H256574   4.695   3.938   4.673 -0.4270 -0.6302  0.9992
11695TIP3   OH256575   1.382   2.866  12.057  0.2561 -0.3009  0.4102
11695TIP3    H156576   1.300   2.896  12.018  0.6181 -0.1280 -0.2301
11695TIP3    H256577   1.410   2.794  12.001  1.3704  0.6958 -0.3481
11696TIP3   OH256578   3.225   0.343  12.968  0.1258  0.1589 -0.1088
11696TIP3    H156579   3.198   0.272  12.909 -0.9994 -0.2025  0.7942
11696TIP3    H256580   3.148   0.400  12.973  0.6367  0.8452  0.0599
11697TIP3   OH256581   1.699   3.442  14.774  0.4191  0.0994 -0.0459
11697TIP3    H156582   1.704   3.515  14.712 -1.2679  0.8340  0.6317
11697TIP3    H256583   1.643   3.378  14.731  0.7523 -0.1885 -0.0493
11698TIP3   OH256584   1.811   4.610  13.916 -0.2223  0.3523  0.4904
11698TIP3    H156585   1.740   4.664  13.951 -1.1886  0.0190 -0.8579
11698TIP3    H256586   1.839   4.656  13.836  0.9096  0.3407  0.8660
11699TIP3   OH256587   2.782   5.119   6.124  0.4217 -0.4321 -0.2537
11699TIP3    H156588   2.715   5.100   6.059  0.9414 -1.6109 -0.4798
11699TIP3    H256589   2.859   5.070   6.094  1.7595  1.7343 -0.5888
11700TIP3   OH256590   4.616   2.278  12.620 -0.0950 -0.2859  0.5493
11700TIP3    H156591   4.623   2.262  12.526  0.3271  0.8335  0.3832
11700TIP3    H256592   4.692   2.234  12.658  0.4045  0.2846  0.2257
11701TIP3   OH256593   2.982   5.545   2.104 -0.5919  0.5377 -0.5466
11701TIP3    H156594   2.961   5.453   2.089 -0.0840  0.6387 -2.0491
11701TIP3    H256595   3.076   5.546   2.122 -0.4693  0.8152 -1.1763
11702TIP3   OH256596   1.515   4.650   5.218 -0.6007 -0.6872  0.4407
11702TIP3    H156597   1.459   4.728   5.211  0.5796  0.1784  0.3588
11702TIP3    H256598   1.568   4.651   5.138  1.4928  0.1113  1.7568
11703TIP3   OH256599   4.716   4.324   3.312  0.3001 -0.3801 -0.1654
11703TIP3    H156600   4.631   4.333   3.356 -0.3657 -0.3787 -1.4003
11703TIP3    H256601   4.723   4.231   3.292  0.5398 -0.3610 -0.1724
11704TIP3   OH256602   1.453   4.306   2.600  0.0168  0.3329  0.0989
11704TIP3    H156603   1.463   4.401   2.605  1.2976  0.1916  0.9288
11704TIP3    H256604   1.403   4.290   2.520 -0.8420  1.7335  0.3361
11705TIP3   OH256605   3.822   5.012  11.579 -0.6525  0.2159 -0.9050
11705TIP3    H156606   3.849   5.099  11.551  0.1233 -0.3539 -2.0130
11705TIP3    H256607   3.777   4.975  11.503  1.2256 -1.2542 -1.3742
11706TIP3   OH256608   0.383   0.155  15.523 -0.1137  0.0399 -0.2727
11706TIP3    H156609   0.479   0.156  15.524 -0.0711 -1.3620  0.0634
11706TIP3    H256610   0.358   0.247  15.527  1.2090  0.5117 -1.7464
11707TIP3   OH256611   6.424   0.443  15.778  0.0224 -0.4878 -1.0132
11707TIP3    H156612   6.435   0.441  15.873 -0.5184 -0.9957 -0.9572
11707TIP3    H256613   6.336   0.409  15.763 -0.2332  0.3855 -1.6437
11708TIP3   OH256614   6.507   6.434   2.988  0.0045  0.4317  0.0083
11708TIP3    H156615   6.551   6.350   2.975  2.4145  1.4817  0.8814
11708TIP3    H256616   6.529   6.485   2.909  0.3388  0.9568  0.4344
11709TIP3   OH256617   6.647   3.746   4.302  0.0564 -0.0040 -0.4757
11709TIP3    H156618   6.638   3.813   4.371 -0.1770  0.3436 -0.8409
11709TIP3    H256619   6.559   3.737   4.266  0.4486  0.8925 -1.7292
11710TIP3   OH256620   0.610   2.359  14.510 -0.2147 -0.3968  0.2779
11710TIP3    H156621   0.622   2.447  14.474 -1.5499 -0.9653 -1.7057
11710TIP3    H256622   0.679   2.307  14.468  0.9706 -0.2234  1.9189
11711TIP3   OH256623   5.724   2.405  17.194 -0.3990  0.3209 -0.4783
11711TIP3    H156624   5.794   2.463  17.224  0.8860 -1.1779 -0.4013
11711TIP3    H256625   5.649   2.427  17.249  0.1765  1.6073 -0.1802
11712TIP3   OH256626   3.074   5.024   1.541 -0.5696  0.0553  0.4367
11712TIP3    H156627   3.011   5.022   1.468  1.4487  0.4835 -1.4026
11712TIP3    H256628   3.082   5.116   1.563  1.4302  0.3742 -1.2811
11713TIP3   OH256629   5.219   6.166   4.342 -0.3428 -0.3575 -0.6627
11713TIP3    H156630   5.156   6.197   4.408 -1.2700 -0.3204 -1.5510
11713TIP3    H256631   5.220   6.235   4.276 -0.7524 -1.2016 -1.5632
11714TIP3   OH256632   4.138   1.208   1.619 -0.5253  0.2826  0.2676
11714TIP3    H156633   4.071   1.264   1.580  0.4395 -0.2435 -2.3323
11714TIP3    H256634   4.089   1.148   1.676 -1.6825  3.0260  2.3925
11715TIP3   OH256635   6.093   5.554   5.877  0.1162  0.1102 -0.0369
11715TIP3    H156636   6.028   5.485   5.863 -0.2916 -0.0245  2.1730
11715TIP3    H256637   6.127   5.572   5.790 -2.1204 -0.5613 -1.1308
11716TIP3   OH256638   3.929   6.069  15.237  0.0723  0.2942  0.3548
11716TIP3    H156639   3.873   6.139  15.203  0.8581  0.3703 -0.8346
11716TIP3    H256640   3.920   6.076  15.332 -0.0091  1.9035  0.2643
11717TIP3   OH256641   3.737   1.694  12.444 -0.1607 -0.5888 -0.3320
11717TIP3    H156642   3.739   1.711  12.350  1.1517 -2.2773 -0.6561
11717TIP3    H256643   3.672   1.623  12.453 -1.6652  0.8016  0.3143
11718TIP3   OH256644   4.297   4.569  11.230 -0.1874  0.6596  0.9695
11718TIP3    H156645   4.235   4.525  11.172 -0.4506  1.2938  0.7542
11718TIP3    H256646   4.342   4.632  11.173  1.7703 -0.8224  0.7662
11719TIP3   OH256647   1.540   0.569   0.955  0.5603 -0.3378 -0.4772
11719TIP3    H156648   1.568   0.626   1.027  0.0530  1.8751 -1.9355
11719TIP3    H256649   1.596   0.492   0.962  2.3260  0.9847  0.7306
11720TIP3   OH256650   3.686   3.050   3.438  0.4467 -0.0984  0.1661
11720TIP3    H156651   3.705   2.962   3.407 -0.6426 -1.1503  2.3098
11720TIP3    H256652   3.598   3.069   3.404  0.5513  0.0509 -0.0272
11721TIP3   OH256653   5.361   3.513   1.876 -0.0589 -0.2411 -0.2741
11721TIP3    H156654   5.437   3.565   1.902  0.1539 -0.3223 -0.7230
11721TIP3    H256655   5.343   3.456   1.951  0.4850 -0.4054 -0.2677
11722TIP3   OH256656   1.370   2.026   5.483  0.0580  0.2724  0.2794
11722TIP3    H156657   1.432   2.075   5.431 -0.3221 -0.8944 -1.3513
11722TIP3    H256658   1.375   2.065   5.570  1.9100  1.2129 -0.2053
11723TIP3   OH256659   0.348   3.514   5.372  0.2425 -0.1595  0.0783
11723TIP3    H156660   0.320   3.603   5.392  0.8489 -0.4373  2.4354
11723TIP3    H256661   0.441   3.513   5.395  0.0423 -1.6216  0.9164
11724TIP3   OH256662   0.324   6.387  13.136  0.2241 -0.2280 -0.2927
11724TIP3    H156663   0.324   6.347  13.223  0.3153  0.1601 -0.1125
11724TIP3    H256664   0.389   6.457  13.141 -1.4290  1.3645  0.0712
11725TIP3   OH256665   2.870   4.815  13.808  0.4973  0.3322 -0.4082
11725TIP3    H156666   2.788   4.863  13.819  0.0198 -0.3507 -0.9370
11725TIP3    H256667   2.880   4.806  13.713  0.4905 -0.7636 -0.3169
11726TIP3   OH256668   1.947   1.974   4.131 -0.0823 -0.4728 -0.3238
11726TIP3    H156669   1.925   1.999   4.221  2.1612  1.5419 -0.2472
11726TIP3    H256670   2.006   1.900   4.140  0.3718 -0.0877 -0.1190
11727TIP3   OH256671   3.644   4.204  12.676  0.1924  0.0958 -0.7286
11727TIP3    H156672   3.586   4.231  12.747  0.6995 -1.1452  0.1966
11727TIP3    H256673   3.589   4.205  12.598  0.2895  4.2434 -0.9593
11728TIP3   OH256674   2.794   0.397  15.183  0.2608 -0.7245  0.1549
11728TIP3    H156675   2.709   0.422  15.147  0.7257  0.8932  0.1289
11728TIP3    H256676   2.854   0.398  15.108  0.8409  0.8088  0.6032
11729TIP3   OH256677   3.849   6.738  13.625 -0.0305 -0.4145  0.4083
11729TIP3    H156678   3.934   6.782  13.625  0.4123 -1.2307 -0.4947
11729TIP3    H256679   3.860   6.664  13.684 -0.6542  0.4410  1.6238
11730TIP3   OH256680   2.992   6.374   1.005 -0.2281 -0.3282 -0.1850
11730TIP3    H156681   2.902   6.404   1.022  0.1004  0.3985  0.3378
11730TIP3    H256682   3.035   6.378   1.090  0.2479 -0.8675 -0.3967
11731TIP3   OH256683   0.454   4.409  11.319 -0.2044  0.0932  0.2045
11731TIP3    H156684   0.545   4.379  11.319 -0.7140 -1.6298 -1.1862
11731TIP3    H256685   0.460   4.501  11.345  1.9044 -0.0061  0.3178
11732TIP3   OH256686   5.229   4.746  15.203 -0.6548  0.1262  0.2116
11732TIP3    H156687   5.215   4.680  15.135  2.6937 -0.1997 -0.3334
11732TIP3    H256688   5.231   4.696  15.285  0.1714 -0.2317 -0.0156
11733TIP3   OH256689   6.221   6.071  11.875 -0.3677 -0.4450  0.0686
11733TIP3    H156690   6.169   6.001  11.914 -4.3451  1.5333 -1.0922
11733TIP3    H256691   6.221   6.052  11.781  1.3134 -0.5285  0.0687
11734TIP3   OH256692   3.781   3.851  16.945  0.2510 -0.2881  0.3392
11734TIP3    H156693   3.872   3.853  16.973  0.1383  1.3143  0.6787
11734TIP3    H256694   3.785   3.853  16.850  0.5665  0.5312  0.3682
11735TIP3   OH256695   2.277   2.169  16.337 -0.4280 -0.5234 -0.0632
11735TIP3    H156696   2.216   2.095  16.331  0.1041 -0.8931 -1.0892
11735TIP3    H256697   2.331   2.149  16.414 -1.0810 -0.5936  0.3785
11736TIP3   OH256698   5.020   0.544  13.835 -0.3753 -0.4244  0.0545
11736TIP3    H156699   5.105   0.580  13.859 -0.4308 -0.8135  0.8834
11736TIP3    H256700   5.012   0.464  13.887 -1.5794  0.0184  0.5954
11737TIP3   OH256701   3.474   4.603  16.837  0.0341 -0.4762 -0.9451
11737TIP3    H156702   3.473   4.671  16.770  0.9055 -0.8958 -1.3985
11737TIP3    H256703   3.403   4.627  16.897 -0.2893  0.2937 -1.6226
11738TIP3   OH256704   4.331   1.701   2.208  0.3635 -0.6171  0.0288
11738TIP3    H156705   4.282   1.775   2.173  1.5948  0.6903  0.9438
11738TIP3    H256706   4.362   1.731   2.293 -0.3055 -2.7378  1.0812
11739TIP3   OH256707   4.449   4.426  12.786 -0.1641  0.9584 -0.4259
11739TIP3    H156708   4.428   4.501  12.843  1.4716  1.5018 -0.4826
11739TIP3    H256709   4.510   4.462  12.721  0.7476 -0.4458 -0.3816
11740TIP3   OH256710   2.479   1.758   4.390  0.2833  0.1221  0.0219
11740TIP3    H156711   2.569   1.736   4.367  0.2812 -0.9698  0.9787
11740TIP3    H256712   2.434   1.767   4.307  1.2977  0.8492 -0.4808
11741TIP3   OH256713   2.885   0.528   1.896 -0.0549  0.2978  0.0401
11741TIP3    H156714   2.849   0.442   1.873  0.7692 -0.0002 -0.1719
11741TIP3    H256715   2.830   0.590   1.847  0.1156 -0.1849 -0.7876
11742TIP3   OH256716   2.253   1.948   3.152  0.3836 -0.4853  0.0783
11742TIP3    H156717   2.326   1.986   3.201  0.9175 -1.2374 -0.1146
11742TIP3    H256718   2.233   2.013   3.085  0.0580  0.2749  0.8869
11743TIP3   OH256719   6.448   4.755   2.754 -0.0441 -0.5231 -0.0607
11743TIP3    H156720   6.511   4.721   2.817 -0.0325 -1.5457 -0.5988
11743TIP3    H256721   6.480   4.843   2.733 -0.5305  0.1840  1.9698
11744TIP3   OH256722   2.310   3.060   5.901  0.3003  0.8700 -0.0485
11744TIP3    H156723   2.225   3.065   5.945 -0.1020  0.7632 -0.7952
11744TIP3    H256724   2.292   3.018   5.817  1.0200  1.2256 -0.3963
11745TIP3   OH256725   0.455   1.823   4.999 -0.0834 -0.0118 -0.3356
11745TIP3    H156726   0.446   1.752   5.062 -0.4207  0.3770  0.0553
11745TIP3    H256727   0.476   1.900   5.051  0.9290  0.0522 -0.8175
11746TIP3   OH256728   3.761   0.876   5.829  0.1385  0.2272 -0.5696
11746TIP3    H156729   3.672   0.843   5.830 -0.4131  1.5834  1.3119
11746TIP3    H256730   3.798   0.850   5.913  1.1127  0.6729 -0.8394
11747TIP3   OH256731   3.340   3.617   0.185 -0.5876 -0.1577  0.0553
11747TIP3    H156732   3.353   3.523   0.171  1.4614  0.0820  0.0405
11747TIP3    H256733   3.284   3.644   0.112 -0.9886 -1.3041 -0.0930
11748TIP3   OH256734   2.895   5.599  12.062  0.3784  0.8263 -0.6317
11748TIP3    H156735   2.944   5.622  12.141  0.1873  0.5224 -0.4231
11748TIP3    H256736   2.959   5.559  12.004  0.3700  0.4035 -0.3482
11749TIP3   OH256737   1.215   0.616   2.521 -0.1090  0.2855  0.2180
11749TIP3    H156738   1.132   0.581   2.554 -1.1937  1.5150 -1.0489
11749TIP3    H256739   1.191   0.661   2.440  1.6971  1.2710  0.1840
11750TIP3   OH256740   5.547   4.444  12.464  0.4339  0.0582  0.3463
11750TIP3    H156741   5.518   4.353  12.460 -0.5193  0.3784 -0.5508
11750TIP3    H256742   5.639   4.441  12.437  0.2646 -0.5842 -0.1944
11751TIP3   OH256743   3.812   0.765  16.222 -0.2229 -0.3033 -0.7538
11751TIP3    H156744   3.735   0.769  16.165 -1.6680  2.1146  1.2045
11751TIP3    H256745   3.830   0.856  16.245  2.1639 -0.9692  0.2552
11752TIP3   OH256746   1.742   1.169  17.027  0.3518 -0.0005 -0.0416
11752TIP3    H156747   1.743   1.261  16.999  0.3625 -0.4730 -1.7393
11752TIP3    H256748   1.674   1.129  16.972  1.0129 -1.1959 -0.0035
11753TIP3   OH256749   5.850   5.024   1.474  0.2781  0.9432 -0.1431
11753TIP3    H156750   5.814   4.971   1.402  0.9006  0.9893 -0.4901
11753TIP3    H256751   5.879   4.959   1.539  0.2095  0.8885 -0.1663
11754TIP3   OH256752   4.297   2.886   0.467 -0.4594 -0.0267 -0.6392
11754TIP3    H156753   4.390   2.902   0.448 -0.2211  3.1416  2.1718
11754TIP3    H256754   4.251   2.931   0.396  0.2535  1.5437 -0.1633
11755TIP3   OH256755   5.351   0.323  13.361 -0.6908  0.2738  0.4998
11755TIP3    H156756   5.274   0.326  13.304  0.1349 -1.2368 -0.7894
11755TIP3    H256757   5.315   0.326  13.450 -2.1057  1.2806 -0.0694
11756TIP3   OH256758   2.775   3.328   1.985 -0.2005  0.2018 -0.3259
11756TIP3    H156759   2.758   3.234   1.979  1.4834 -0.0617 -1.8608
11756TIP3    H256760   2.792   3.344   2.077  3.0440 -1.7381 -0.4479
11757TIP3   OH256761   6.417   4.478  13.411 -0.5194 -0.3809 -0.1604
11757TIP3    H156762   6.361   4.511  13.340 -0.6918  0.6409  0.4375
11757TIP3    H256763   6.402   4.384  13.411 -0.5679 -0.3931 -1.4410
11758TIP3   OH256764   5.203   0.308  16.066  0.2457 -0.3801  0.4189
11758TIP3    H156765   5.139   0.263  16.009 -1.7419  0.6688  1.6908
11758TIP3    H256766   5.150   0.344  16.137  2.1363  1.5934  0.9247
11759TIP3   OH256767   0.225   3.786   0.959  0.1300 -0.1135 -0.4950
11759TIP3    H156768   0.207   3.858   0.899 -2.5337 -1.4523 -1.4909
11759TIP3    H256769   0.225   3.827   1.046 -1.1585  1.1364 -1.0444
11760TIP3   OH256770   3.909   5.198  15.645  0.5710 -0.3833  0.6095
11760TIP3    H156771   3.845   5.189  15.715  0.7610  0.8565  0.9613
11760TIP3    H256772   3.874   5.144  15.573 -0.9918  0.4592  0.7096
11761TIP3   OH256773   0.833   4.261   5.065  0.4064 -0.1256  0.2897
11761TIP3    H156774   0.846   4.296   4.977 -2.3120 -0.9288 -0.5097
11761TIP3    H256775   0.902   4.303   5.118  1.3767  1.2596 -1.9421
11762TIP3   OH256776   2.033   6.476   4.358  0.4344  0.5010  0.3581
11762TIP3    H156777   1.976   6.532   4.410  0.2521  0.8342 -0.1880
11762TIP3    H256778   1.993   6.389   4.364 -0.2240  0.7588 -0.1337
11763TIP3   OH256779   4.299   6.090  10.716  0.1307  0.2769  0.2364
11763TIP3    H156780   4.220   6.139  10.693  0.6016  0.7927 -0.3150
11763TIP3    H256781   4.356   6.099  10.639  0.3783 -0.8185  0.2845
11764TIP3   OH256782   2.219   3.885   4.744  0.1114  0.2213 -0.1007
11764TIP3    H156783   2.253   3.842   4.665 -0.0612 -2.0426  0.9675
11764TIP3    H256784   2.145   3.830   4.770  1.1770 -0.0752  2.5367
11765TIP3   OH256785   4.041   0.842   0.449 -0.0272  0.0786 -0.2894
11765TIP3    H156786   4.046   0.897   0.527 -0.6280  0.3499 -0.4332
11765TIP3    H256787   4.058   0.753   0.482 -1.0497  0.0775  0.3043
11766TIP3   OH256788   5.974   3.365   5.046 -0.7063 -0.2538  0.3237
11766TIP3    H156789   6.027   3.443   5.029 -0.6371 -0.1408  1.0386
11766TIP3    H256790   6.011   3.298   4.989 -0.7208  0.2122 -0.2460
11767TIP3   OH256791   4.380   3.835  14.200 -0.0198  0.3361  0.0697
11767TIP3    H156792   4.320   3.783  14.254  0.8196  0.0894  0.7819
11767TIP3    H256793   4.446   3.867  14.261 -0.1839  1.7767 -0.4510
11768TIP3   OH256794   2.915   2.255  16.455 -0.0788  0.2147  0.6394
11768TIP3    H156795   2.858   2.280  16.382  0.0255 -0.6057  0.2626
11768TIP3    H256796   2.862   2.198  16.509  0.0936  0.1833  0.7767
11769TIP3   OH256797   2.658   0.600  14.247 -0.0874 -0.4209  0.2058
11769TIP3    H156798   2.679   0.671  14.187 -0.9809 -0.7516 -0.5036
11769TIP3    H256799   2.635   0.644  14.329 -1.4647  0.1544 -0.4716
11770TIP3   OH256800   3.634   2.529   2.199  0.4765  0.1575 -0.4447
11770TIP3    H156801   3.593   2.465   2.257 -1.2410  2.0900  0.6448
11770TIP3    H256802   3.716   2.551   2.243 -0.1301  0.5338  0.5622
11771TIP3   OH256803   1.878   4.172   2.505  0.0643  0.2300  0.2760
11771TIP3    H156804   1.973   4.181   2.509  0.2620 -0.6165 -1.3300
11771TIP3    H256805   1.864   4.078   2.493 -0.9791  0.3428  0.5541
11772TIP3   OH256806   2.432   6.697   1.033  0.0013  0.6142 -0.4671
11772TIP3    H156807   2.471   6.755   1.098 -0.0258 -1.1477  1.2100
11772TIP3    H256808   2.506   6.667   0.980  0.2664  0.7672 -0.1848
11773TIP3   OH256809   1.122   2.156  14.155 -0.2452 -0.7214  0.0346
11773TIP3    H156810   1.214   2.177  14.142 -0.7271  0.7536 -1.3470
11773TIP3    H256811   1.111   2.155  14.250  1.3900 -2.0373  0.2670
11774TIP3   OH256812   1.866   2.333   2.957  1.1774 -0.0616  0.1977
11774TIP3    H156813   1.782   2.298   2.927  1.5416 -2.1841  1.3913
11774TIP3    H256814   1.899   2.384   2.884 -0.4248 -0.5177 -0.8928
11775TIP3   OH256815   0.960   0.971  16.552 -0.0969 -0.0340 -0.1475
11775TIP3    H156816   0.978   1.029  16.478  0.5593 -0.6826 -0.5084
11775TIP3    H256817   0.874   0.933  16.532  0.2204 -0.4514 -0.7444
11776TIP3   OH256818   4.161   6.727   5.028  0.1296  0.0583  0.1629
11776TIP3    H156819   4.248   6.709   5.065  0.1199 -0.3343 -0.0097
11776TIP3    H256820   4.162   6.684   4.943 -1.0527 -1.9493  1.1011
11777TIP3   OH256821   2.251   5.116   4.343 -0.3071  0.4961 -0.1467
11777TIP3    H156822   2.219   5.039   4.295 -0.0427  1.0817 -1.3116
11777TIP3    H256823   2.180   5.138   4.403 -0.8583  0.0097 -0.6011
11778TIP3   OH256824   0.854   3.616   0.179  0.0239  0.1292  0.3474
11778TIP3    H156825   0.895   3.694   0.142  1.2306 -1.7359 -2.5762
11778TIP3    H256826   0.765   3.616   0.143  0.5677 -0.6749 -1.0357
11779TIP3   OH256827   3.903   4.517   4.897  0.4474  0.2737 -0.0250
11779TIP3    H156828   3.953   4.506   4.816  0.0251  1.2130 -0.4244
11779TIP3    H256829   3.901   4.429   4.936  1.5654  0.0256 -0.4890
11780TIP3   OH256830   3.023   3.301   0.865  0.2871 -0.0740  0.7952
11780TIP3    H156831   3.099   3.275   0.813 -0.4838 -0.6645 -0.0706
11780TIP3    H256832   3.053   3.377   0.915  1.2717  0.0445  0.0493
11781TIP3   OH256833   6.146   3.883  14.341 -0.0288 -0.0035 -0.8142
11781TIP3    H156834   6.157   3.957  14.281  0.9604  0.5348 -0.0016
11781TIP3    H256835   6.126   3.924  14.425  1.4600 -0.5771 -0.1372
11782TIP3   OH256836   6.076   3.585   0.867 -0.9669 -0.0620 -0.4148
11782TIP3    H156837   6.141   3.582   0.797  0.4049  0.7842  0.7674
11782TIP3    H256838   6.043   3.495   0.872  0.9806 -0.8198 -0.2852
11783TIP3   OH256839   1.775   0.084   2.755  0.1482  0.4071  0.3472
11783TIP3    H156840   1.801   0.083   2.847 -0.1852  0.7375  0.4489
11783TIP3    H256841   1.851   0.051   2.707  0.7009  1.2198  0.6488
11784TIP3   OH256842   5.567   1.248   5.456 -0.0403 -0.5691  1.1759
11784TIP3    H156843   5.518   1.170   5.483  0.5324 -1.1298  0.6422
11784TIP3    H256844   5.550   1.255   5.362  0.5016 -0.4822  1.0844
11785TIP3   OH256845   0.221   6.011  12.054 -0.4412 -0.3775  0.0565
11785TIP3    H156846   0.179   5.960  11.985 -0.4728 -0.3939  0.0880
11785TIP3    H256847   0.165   6.088  12.064 -0.0422 -0.0205 -0.4377
11786TIP3   OH256848   4.586   3.526   5.095  0.0081 -0.3213 -0.0397
11786TIP3    H156849   4.507   3.499   5.048 -1.5483  0.8505  1.7491
11786TIP3    H256850   4.607   3.451   5.151  0.5544 -0.8752 -0.9755
11787TIP3   OH256851   0.309   2.824   4.148  0.0774 -0.4382 -0.2454
11787TIP3    H156852   0.251   2.787   4.215 -0.6040  0.2422 -0.4494
11787TIP3    H256853   0.282   2.915   4.140  1.0958 -0.1368 -0.4442
11788TIP3   OH256854   3.011   2.137   6.476  0.1833  0.2137 -0.2518
11788TIP3    H156855   3.031   2.193   6.401  1.2986  0.8842  0.5166
11788TIP3    H256856   3.062   2.057   6.459  0.9734  0.6298  0.0997
11789TIP3   OH256857   3.651   3.980   2.861 -0.4526  0.4283  0.3735
11789TIP3    H156858   3.608   4.036   2.927 -0.2757  0.6479  0.3033
11789TIP3    H256859   3.641   3.891   2.895  0.1219  0.5843  0.9751
11790TIP3   OH256860   4.244   3.881  10.517  0.1788  0.3342 -0.1467
11790TIP3    H156861   4.189   3.908  10.591  1.1414  0.6856  0.4529
11790TIP3    H256862   4.187   3.890  10.441 -0.1672  2.1201  0.2698
11791TIP3   OH256863   4.363   5.278  11.595 -0.1695 -0.8849 -0.0050
11791TIP3    H156864   4.287   5.292  11.539  2.2010  2.2255 -2.8664
11791TIP3    H256865   4.354   5.343  11.665 -0.0726 -0.3421 -0.4857
11792TIP3   OH256866   6.663   3.209   3.056  0.7347 -0.0523  0.3696
11792TIP3    H156867   6.675   3.304   3.057 -1.2601  0.2847 -0.8994
11792TIP3    H256868   6.731   3.176   2.997 -0.3036  0.9760 -1.5194
11793TIP3   OH256869   2.722   5.389  13.397  0.8924  0.1128 -0.0032
11793TIP3    H156870   2.682   5.314  13.442  0.0365  0.3115 -0.4147
11793TIP3    H256871   2.702   5.375  13.304  0.5745  0.9358 -0.0676
11794TIP3   OH256872   1.617   0.648   4.218 -0.3044 -0.3543 -0.5252
11794TIP3    H156873   1.707   0.679   4.215 -0.4835  0.2889  0.3447
11794TIP3    H256874   1.589   0.665   4.308 -1.5793  0.2753 -1.0199
11795TIP3   OH256875   0.308   3.754  16.365  0.1643  0.3611 -0.4500
11795TIP3    H156876   0.343   3.734  16.278 -0.2037 -1.2338 -0.2507
11795TIP3    H256877   0.320   3.849  16.374  0.9516  0.4265 -1.9028
11796TIP3   OH256878   4.765   4.654   3.571 -0.6361 -0.5388  0.5116
11796TIP3    H156879   4.782   4.588   3.504  0.2520 -0.1564  0.3541
11796TIP3    H256880   4.822   4.630   3.644 -0.6240 -0.1951  0.6184
11797TIP3   OH256881   3.369   5.933   4.332  0.2950 -0.0230 -0.4467
11797TIP3    H156882   3.306   6.003   4.319  0.4546  0.3616  0.7120
11797TIP3    H256883   3.333   5.882   4.405  1.2430  0.1091  0.1206
11798TIP3   OH256884   5.300   1.380   4.889  0.4592 -0.0624 -0.2388
11798TIP3    H156885   5.274   1.298   4.846 -0.0052 -0.6211  1.0468
11798TIP3    H256886   5.395   1.376   4.892  0.6986  0.9970 -3.0729
11799TIP3   OH256887   4.561   0.017   3.054 -0.3770 -0.1423  0.2955
11799TIP3    H156888   4.526  -0.031   3.129 -0.9582 -0.2781 -0.0578
11799TIP3    H256889   4.540  -0.039   2.978  0.8267 -0.3522  0.0955
11800TIP3   OH256890   3.304   4.469  12.309  0.1025  0.3842 -0.3006
11800TIP3    H156891   3.236   4.476  12.376 -0.2076  1.0484 -0.6786
11800TIP3    H256892   3.382   4.506  12.350 -0.3878  1.9644 -0.7010
11801TIP3   OH256893   2.478   3.002   2.519 -0.0836 -0.0551  0.0240
11801TIP3    H156894   2.391   3.041   2.526 -0.6997 -1.5005  0.7518
11801TIP3    H256895   2.535   3.075   2.491 -0.5754  2.1929  4.0397
11802TIP3   OH256896   5.920   6.581  16.229 -0.1261  0.0270 -0.9507
11802TIP3    H156897   6.004   6.626  16.221  0.0414 -0.0023  0.4838
11802TIP3    H256898   5.918   6.521  16.154  0.7366  0.6353 -1.4819
11803TIP3   OH256899   2.930   5.891  15.878 -0.3876 -0.2972  0.1283
11803TIP3    H156900   2.987   5.847  15.940 -2.3329 -1.6807  1.0383
11803TIP3    H256901   2.947   5.847  15.794  0.4748 -0.1178  0.2088
11804TIP3   OH256902   1.032   3.327  17.016 -0.1300  0.2345 -0.4225
11804TIP3    H156903   1.041   3.391  17.087 -0.3503 -0.3968  0.1963
11804TIP3    H256904   0.953   3.353  16.970  0.8484  1.5547 -1.4019
11805TIP3   OH256905   6.471   3.387  13.782 -0.5366 -0.3297 -0.4786
11805TIP3    H156906   6.450   3.480  13.783  2.8782  0.5600  1.6231
11805TIP3    H256907   6.479   3.362  13.874 -0.9297 -2.6216 -0.9973
11806TIP3   OH256908   6.770   5.895  15.974  0.0659  0.5152  0.4212
11806TIP3    H156909   6.688   5.886  15.925  1.3002  2.2149 -2.1791
11806TIP3    H256910   6.760   5.976  16.024  0.8780  1.9318 -1.6047
11807TIP3   OH256911   2.789   0.920   6.068 -0.2994  0.4373  0.5759
11807TIP3    H156912   2.727   0.890   6.134 -0.9544  4.3201  1.9926
11807TIP3    H256913   2.870   0.935   6.115  0.1054  0.5024 -0.1235
11808TIP3   OH256914   5.723   0.107  14.915 -0.2141 -0.5369 -0.2123
11808TIP3    H156915   5.701   0.144  15.000 -1.4351 -0.5915 -0.4801
11808TIP3    H256916   5.639   0.074  14.881 -0.1023  1.0433 -2.1837
11809TIP3   OH256917   0.185   4.659  14.485  0.1296  1.0745  0.5368
11809TIP3    H156918   0.090   4.667  14.494 -0.3551 -2.6426  0.3509
11809TIP3    H256919   0.205   4.575  14.526  2.8817  0.2615 -2.1699
11810TIP3   OH256920   0.107   4.750   6.276 -0.3511  0.3208  0.1496
11810TIP3    H156921   0.032   4.810   6.278 -0.2370  0.4491  1.3269
11810TIP3    H256922   0.106   4.708   6.363  0.3661 -0.3913 -0.1759
11811TIP3   OH256923   1.557   1.048  17.427 -0.5694 -0.0137  0.5471
11811TIP3    H156924   1.545   0.959  17.394 -0.7807  0.0143  0.5452
11811TIP3    H256925   1.487   1.059  17.492  0.3098 -0.3432  1.5799
11812TIP3   OH256926   5.090   3.217   1.183 -0.2504 -0.1156  0.7762
11812TIP3    H156927   5.147   3.235   1.258  1.9685 -1.5514 -0.4289
11812TIP3    H256928   5.150   3.213   1.108 -2.5312  2.9045 -1.4781
11813TIP3   OH256929   0.482   1.575  11.593 -0.7749  0.2181 -0.2605
11813TIP3    H156930   0.482   1.671  11.587 -0.6794  0.1332 -2.1933
11813TIP3    H256931   0.575   1.551  11.587 -0.5986  0.0474  2.2011
11814TIP3   OH256932   3.991   4.033   2.395 -0.6393  0.3122  0.9064
11814TIP3    H156933   3.909   4.020   2.347 -0.5949 -1.2227  1.1907
11814TIP3    H256934   4.059   4.031   2.329 -0.5111 -2.5300  1.0101
11815TIP3   OH256935   5.346   6.763  10.941  0.1730 -0.1398 -0.0593
11815TIP3    H156936   5.264   6.727  10.907  0.7764 -1.1508 -0.4864
11815TIP3    H256937   5.371   6.830  10.878  0.1960 -0.5462 -0.4901
11816TIP3   OH256938   1.517   6.642  13.332  0.2002 -0.3588  0.5615
11816TIP3    H156939   1.448   6.576  13.333  0.4979 -0.7709 -1.6540
11816TIP3    H256940   1.598   6.592  13.335  0.4523 -0.2330 -2.1578
11817TIP3   OH256941   4.305   6.631   1.585 -0.5043 -0.4542 -0.0227
11817TIP3    H156942   4.392   6.595   1.598 -0.9778 -1.4434  0.5165
11817TIP3    H256943   4.258   6.563   1.537 -1.3803 -0.5231  0.8961
11818TIP3   OH256944   2.812   3.026   0.246  0.1901  0.1647 -0.1314
11818TIP3    H156945   2.727   2.982   0.246 -0.4531  1.3511 -0.9086
11818TIP3    H256946   2.861   2.984   0.317 -1.0700 -0.4980  0.3746
11819TIP3   OH256947   0.850   4.119  16.252 -0.4306 -0.5088  0.2029
11819TIP3    H156948   0.850   4.214  16.246  0.9239 -0.5837 -2.6796
11819TIP3    H256949   0.767   4.093  16.212  1.1250 -0.5171 -3.4298
11820TIP3   OH256950   0.643   4.759  15.504 -0.2275  0.1660 -0.0952
11820TIP3    H156951   0.688   4.712  15.573 -0.7865  0.7744  0.7083
11820TIP3    H256952   0.700   4.751  15.428  1.1190  0.6970  0.8184
11821TIP3   OH256953   4.253   6.112   4.503  0.0536 -0.1298  0.4576
11821TIP3    H156954   4.220   6.196   4.534  0.9568  0.2805  0.3512
11821TIP3    H256955   4.322   6.135   4.441 -0.3987 -0.9454 -0.3839
11822TIP3   OH256956   0.597   4.190  14.280 -0.2942  0.1755  0.3193
11822TIP3    H156957   0.691   4.211  14.274 -0.3058  0.0251 -0.5259
11822TIP3    H256958   0.574   4.210  14.370  0.2780  1.3696  0.2140
11823TIP3   OH256959   2.602   3.523   5.931 -0.1533 -0.3598  0.5973
11823TIP3    H156960   2.591   3.549   6.023 -1.0288  3.8495 -0.5009
11823TIP3    H256961   2.548   3.444   5.922 -0.7390 -0.4035  3.4829
11824TIP3   OH256962   5.203   5.504   2.735 -0.3091  0.1863 -0.2760
11824TIP3    H156963   5.285   5.458   2.719 -0.9664 -0.2887 -2.5375
11824TIP3    H256964   5.228   5.597   2.742  0.6352 -0.1410  1.2329
11825TIP3   OH256965   1.258   1.094  12.742  0.3441  0.0289 -0.5062
11825TIP3    H156966   1.198   1.029  12.778 -0.3427  0.1294 -1.4441
11825TIP3    H256967   1.334   1.044  12.713 -0.8241 -0.6178 -2.6644
11826TIP3   OH256968   6.366   2.360  16.350  0.5800  0.2770 -0.4493
11826TIP3    H156969   6.418   2.394  16.422 -0.3692  0.1539  0.3159
11826TIP3    H256970   6.276   2.387  16.371 -0.2135 -2.5520  0.1294
11827TIP3   OH256971   5.723   3.541   1.514  0.0406  0.1915  0.1129
11827TIP3    H156972   5.656   3.545   1.446 -1.1483  1.7658  1.2890
11827TIP3    H256973   5.686   3.483   1.581  0.3306  0.2152  0.2942
11828TIP3   OH256974   2.552   5.867   3.904 -0.5916  0.6310  0.8255
11828TIP3    H156975   2.629   5.812   3.889 -1.8821 -0.6448 -1.8771
11828TIP3    H256976   2.488   5.807   3.943 -1.3010  0.7659 -0.1119
11829TIP3   OH256977   1.575   5.927   2.724 -0.1167  0.2825  0.1881
11829TIP3    H156978   1.665   5.926   2.758  0.0900 -1.8208 -0.2756
11829TIP3    H256979   1.522   5.954   2.799  0.7799  0.3269  0.8261
11830TIP3   OH256980   0.481   2.062  14.729  0.4056  0.1124 -0.1640
11830TIP3    H156981   0.573   2.039  14.740  0.0264 -0.5698  2.1423
11830TIP3    H256982   0.438   1.981  14.701  0.4166  0.3117 -0.7752
11831TIP3   OH256983   1.744   3.010  15.599  0.0944  0.2666  0.1836
11831TIP3    H156984   1.790   3.091  15.622  1.2719  0.1830 -1.6613
11831TIP3    H256985   1.759   2.952  15.674  0.3895  1.2814  0.9399
11832TIP3   OH256986   2.506   5.700  16.491  0.2136 -0.3109 -0.1204
11832TIP3    H156987   2.518   5.783  16.446 -0.2925 -0.5269 -0.6623
11832TIP3    H256988   2.429   5.661  16.450 -0.1078 -0.6296  0.7572
11833TIP3   OH256989   1.417   1.993  14.338  0.0987  0.4562  0.2298
11833TIP3    H156990   1.474   1.933  14.291 -0.3575  0.3836 -0.2342
11833TIP3    H256991   1.392   2.058  14.273 -1.1017 -0.0384  0.1825
11834TIP3   OH256992   1.419   1.019  14.839 -0.0990 -0.7156  0.0964
11834TIP3    H156993   1.436   1.057  14.925  0.3025 -0.3034 -0.1646
11834TIP3    H256994   1.505   0.994  14.805 -0.0851  0.5044 -0.8200
11835TIP3   OH256995   0.291   1.559   1.637 -0.6951 -0.8294 -0.0816
11835TIP3    H156996   0.262   1.517   1.718 -0.4834 -1.4161 -0.3072
11835TIP3    H256997   0.365   1.506   1.608 -0.6396 -0.4977 -0.5529
11836TIP3   OH256998   4.289   3.667  16.086  0.2023  0.3961  0.1672
11836TIP3    H156999   4.346   3.626  16.151  0.9086  1.7416  0.4343
11836TIP3    H257000   4.345   3.678  16.008 -0.1982  0.1779 -0.1565
11837TIP3   OH257001   0.143   1.154   0.534 -0.0156 -0.6486  0.3167
11837TIP3    H157002   0.071   1.196   0.486 -0.1567 -0.8374  0.3614
11837TIP3    H257003   0.109   1.067   0.555 -0.6868  0.0528  2.3755
11838TIP3   OH257004   5.830   1.837  11.519  0.0774  0.2011  0.1483
11838TIP3    H157005   5.737   1.812  11.525 -0.7387  2.8565  0.0087
11838TIP3    H257006   5.851   1.828  11.426  0.0876 -0.7350  0.2296
11839TIP3   OH257007   0.711   0.466  11.804 -0.0983 -0.1078  0.1277
11839TIP3    H157008   0.728   0.553  11.841 -3.1074  0.9095 -0.6346
11839TIP3    H257009   0.767   0.462  11.726 -1.0201  1.8368 -0.7037
11840TIP3   OH257010   5.700   3.049  14.345 -0.3129 -0.1165 -0.0539
11840TIP3    H157011   5.684   3.112  14.415  0.1607  0.1132 -0.1453
11840TIP3    H257012   5.615   3.037  14.303 -0.5287  0.0093  0.3376
11841TIP3   OH257013   4.849   6.097   5.214  0.3883 -0.4870 -0.0201
11841TIP3    H157014   4.762   6.133   5.199  1.2317  0.7412 -2.3732
11841TIP3    H257015   4.854   6.021   5.156  0.3654 -1.5740  1.3267
11842TIP3   OH257016   6.371   0.283   3.586 -0.5694  0.3413 -0.0446
11842TIP3    H157017   6.373   0.189   3.601 -0.0337  0.6685  2.3584
11842TIP3    H257018   6.462   0.307   3.568 -0.6096  0.4724 -0.0789
11843TIP3   OH257019   6.622   0.615  13.562 -0.3617 -0.5607  0.0438
11843TIP3    H157020   6.622   0.618  13.658  0.8644 -1.7352  0.1068
11843TIP3    H257021   6.627   0.522  13.541  0.5830 -0.2584 -1.1475
11844TIP3   OH257022   5.139   5.551   0.921 -0.2689  0.2651 -0.5478
11844TIP3    H157023   5.166   5.560   1.012 -0.9345 -0.8125 -0.2242
11844TIP3    H257024   5.202   5.490   0.883 -0.7774 -0.3274 -0.4477
11845TIP3   OH257025   2.232   0.671   6.292 -0.0674 -0.5110  0.5624
11845TIP3    H157026   2.303   0.732   6.312  1.3515 -1.9799  0.1610
11845TIP3    H257027   2.152   0.724   6.301  1.1369  1.6937 -0.8789
11846TIP3   OH257028   4.223   4.379  14.995  0.4533 -0.3536 -0.1863
11846TIP3    H157029   4.305   4.380  15.045 -0.3808 -1.3983  1.2478
11846TIP3    H257030   4.168   4.444  15.038  0.1020 -0.5003 -0.4177
11847TIP3   OH257031   4.721   2.694   5.410 -0.5260  0.0835 -0.4231
11847TIP3    H157032   4.700   2.605   5.439  2.5789 -1.7431 -3.1065
11847TIP3    H257033   4.776   2.729   5.480 -1.3023 -0.2725  0.3933
11848TIP3   OH257034   3.547   2.386   5.299  0.0672 -0.1616  0.5261
11848TIP3    H157035   3.587   2.309   5.340  1.3887 -0.2747 -0.8856
11848TIP3    H257036   3.620   2.444   5.281 -0.7013  0.6383 -0.0902
11849TIP3   OH257037   6.521   3.201  11.829 -0.1638 -0.0204 -0.4157
11849TIP3    H157038   6.565   3.127  11.871 -1.7854 -0.0836  1.2835
11849TIP3    H257039   6.491   3.256  11.902 -2.5964  0.1708 -1.4750
11850TIP3   OH257040   3.319   5.815   6.099  0.1883 -0.4149  0.2708
11850TIP3    H157041   3.244   5.875   6.107 -1.8420 -2.6767 -0.5556
11850TIP3    H257042   3.312   5.757   6.175  0.7318 -1.0353 -0.1388
11851TIP3   OH257043   3.613   6.399  13.438 -0.1710 -0.4981 -0.2789
11851TIP3    H157044   3.638   6.370  13.526  0.2981 -0.5115 -0.4139
11851TIP3    H257045   3.625   6.322  13.382 -1.3210 -0.7464 -0.2091
11852TIP3   OH257046   5.472   4.078   5.810 -0.4254 -0.4500  0.1731
11852TIP3    H157047   5.563   4.084   5.838 -0.4037  4.3663 -0.0929
11852TIP3    H257048   5.432   4.160   5.841 -4.7659 -2.3695  0.3815
11853TIP3   OH257049   0.893   0.496   4.019  0.4793 -0.5345  0.1222
11853TIP3    H157050   0.972   0.471   3.972 -0.2865 -0.5575 -1.2046
11853TIP3    H257051   0.845   0.552   3.958  0.5306  1.4041  1.7517
11854TIP3   OH257052   2.063   4.445  14.929  0.3623 -0.1995 -0.3102
11854TIP3    H157053   2.077   4.414  15.018  0.8167 -0.9295 -0.6284
11854TIP3    H257054   1.968   4.455  14.922  0.3605  0.4149  0.4266
11855TIP3   OH257055   1.539   0.669   4.761 -0.1630 -0.4776  0.4142
11855TIP3    H157056   1.615   0.700   4.811  0.3388  0.7411 -1.0597
11855TIP3    H257057   1.468   0.667   4.825 -0.0565  3.0552  0.8314
11856TIP3   OH257058   3.876   0.314  16.357 -0.1451  0.0392  0.3331
11856TIP3    H157059   3.828   0.397  16.354  0.4220  0.3419 -0.6721
11856TIP3    H257060   3.841   0.263  16.284  0.5563 -0.0225  0.0376
11857TIP3   OH257061   2.809   1.374   2.259 -0.0204 -1.1517  0.1229
11857TIP3    H157062   2.838   1.465   2.263 -1.4854 -0.6333 -0.3772
11857TIP3    H257063   2.885   1.323   2.286  0.8630  0.2122  0.2838
11858TIP3   OH257064   3.737   0.423  13.550 -0.7793  0.1789 -0.2480
11858TIP3    H157065   3.741   0.344  13.604 -0.5147  0.6373  0.4245
11858TIP3    H257066   3.689   0.486  13.604 -0.3709  0.6949 -0.4837
11859TIP3   OH257067   0.790   4.082   2.453  0.2180 -0.5831 -0.1908
11859TIP3    H157068   0.759   4.025   2.523  2.3115 -1.3130  0.2124
11859TIP3    H257069   0.840   4.150   2.499 -0.5503  0.4271 -0.8161
11860TIP3   OH257070   4.115   3.095  13.041 -0.5056 -0.3479  0.0542
11860TIP3    H157071   4.095   3.186  13.062 -0.9592 -0.2568 -0.7206
11860TIP3    H257072   4.091   3.086  12.948 -0.8001 -1.3462  0.2146
11861TIP3   OH257073   1.856   5.745   1.819  0.2818  0.7566  0.2217
11861TIP3    H157074   1.863   5.692   1.898 -0.4991  1.5791  0.8637
11861TIP3    H257075   1.936   5.797   1.818  0.3895  0.5942  0.3567
11862TIP3   OH257076   6.333   1.977   0.582  0.3114 -0.3945 -0.1858
11862TIP3    H157077   6.414   2.028   0.589  0.9843 -1.3933 -0.3000
11862TIP3    H257078   6.266   2.030   0.624  0.9149  0.7055 -0.5883
11863TIP3   OH257079   2.932   5.259  11.637  0.2303 -0.4152  0.7155
11863TIP3    H157080   2.972   5.216  11.561  0.6843  1.5706 -0.2163
11863TIP3    H257081   2.887   5.335  11.601 -2.5544 -1.3147  2.0394
11864TIP3   OH257082   6.049   5.547  14.426 -0.3162 -0.2726 -0.3075
11864TIP3    H157083   5.980   5.503  14.476  0.2990 -0.4634  0.3756
11864TIP3    H257084   6.052   5.500  14.343 -1.0511 -0.2221 -0.3723
11865TIP3   OH257085   1.342   3.739   5.191  0.2127  0.6743  0.3938
11865TIP3    H157086   1.378   3.816   5.148  0.1147  1.0573  0.9935
11865TIP3    H257087   1.351   3.669   5.126  0.7732  1.0700  0.0413
11866TIP3   OH257088   4.398   1.503  16.804  0.1789 -0.2730 -0.3992
11866TIP3    H157089   4.382   1.416  16.768  1.9798  0.0765 -2.2452
11866TIP3    H257090   4.329   1.516  16.869 -2.7050 -1.4197 -2.9884
11867TIP3   OH257091   3.001   1.877  16.068 -0.0400 -0.2459 -0.4850
11867TIP3    H157092   3.008   1.855  15.976 -0.5443  0.5929 -0.7460
11867TIP3    H257093   2.931   1.943  16.071  0.9451  0.8192  0.2959
11868TIP3   OH257094   3.570   3.919   4.715  0.7532  0.0110  0.6273
11868TIP3    H157095   3.510   3.932   4.789  2.4329  0.0572  2.0487
11868TIP3    H257096   3.599   4.008   4.693  2.2729 -0.1744  1.7144
11869TIP3   OH257097   1.801   3.933  16.529 -0.1844  0.3178  0.3510
11869TIP3    H157098   1.867   3.927  16.460 -0.4638  1.3261 -0.0151
11869TIP3    H257099   1.825   3.864  16.591 -1.0097 -1.9044 -1.6501
11870TIP3   OH257100   2.757   0.409  15.724 -0.0358 -0.1796 -0.1342
11870TIP3    H157101   2.805   0.468  15.665  3.2303 -1.9906  0.4333
11870TIP3    H257102   2.817   0.395  15.797 -1.3633 -2.8471  0.5604
11871TIP3   OH257103   5.586   1.171  11.378  0.2751 -0.1733  0.0265
11871TIP3    H157104   5.621   1.216  11.456 -0.5864 -1.5920  1.2969
11871TIP3    H257105   5.663   1.127  11.340  0.9061  1.4055 -0.5837
11872TIP3   OH257106   4.895   5.843   4.115 -0.0452 -0.8329 -0.1515
11872TIP3    H157107   4.838   5.802   4.181  0.1587 -0.5470  0.2104
11872TIP3    H257108   4.981   5.805   4.131 -0.2732 -1.8532 -1.2091
11873TIP3   OH257109   4.869   3.521   0.248 -0.4376  0.0881 -0.0451
11873TIP3    H157110   4.957   3.540   0.280 -1.0051  0.4692  1.3480
11873TIP3    H257111   4.875   3.431   0.214  0.2791 -0.2069  0.8290
11874TIP3   OH257112   1.216   6.348   4.955 -0.1221  0.1012  0.3906
11874TIP3    H157113   1.199   6.402   5.033 -1.6948 -0.3791  0.4096
11874TIP3    H257114   1.302   6.377   4.925 -0.3153  1.6450  1.2045
11875TIP3   OH257115   2.898   1.784   1.131  0.3742 -0.1961  0.0099
11875TIP3    H157116   2.864   1.869   1.102 -0.0888 -0.5795 -0.6016
11875TIP3    H257117   2.984   1.803   1.167 -0.1695  0.6969  0.8947
11876TIP3   OH257118   2.454   0.623  17.365 -0.6282 -0.2418  0.2028
11876TIP3    H157119   2.529   0.636  17.306  0.8048  1.9085  2.2853
11876TIP3    H257120   2.377   0.638  17.310  0.5746  0.2306 -1.4258
11877TIP3   OH257121   5.096   6.402  12.532 -0.2113  0.2205 -0.1616
11877TIP3    H157122   5.008   6.436  12.548  0.0064  1.0683 -0.7315
11877TIP3    H257123   5.094   6.372  12.441 -0.2550 -0.8893  0.1828
11878TIP3   OH257124   4.404   6.540  14.764  0.7065 -0.0745 -0.1422
11878TIP3    H157125   4.347   6.608  14.728  0.7925  0.6699  1.0662
11878TIP3    H257126   4.383   6.461  14.713  0.4272  0.7818 -1.4077
11879TIP3   OH257127   5.123   0.983  13.117  0.5030 -0.2914 -0.1592
11879TIP3    H157128   5.182   1.053  13.142  0.7261 -1.0488  1.6067
11879TIP3    H257129   5.035   1.019  13.131  0.5543  0.2541 -1.1321
11880TIP3   OH257130   2.081   4.937   2.679 -0.0145  0.0898 -0.4069
11880TIP3    H157131   2.098   4.876   2.607 -1.2185  1.2756 -1.7855
11880TIP3    H257132   2.002   4.985   2.651  0.1182  1.3476  1.2179
11881TIP3   OH257133   3.355   4.099   4.153 -0.1816  0.0408  0.4650
11881TIP3    H157134   3.431   4.158   4.154 -2.0501  2.7891 -1.7487
11881TIP3    H257135   3.392   4.012   4.142  2.6734  1.3378 -1.5534
11882TIP3   OH257136   0.044   4.462   6.205 -0.2664  0.1225  0.5340
11882TIP3    H157137  -0.050   4.464   6.219 -0.5392 -1.6170 -0.7162
11882TIP3    H257138   0.055   4.489   6.114  0.6944  2.5705  1.2815
11883TIP3   OH257139   0.457   4.655  13.144  0.7167  0.3059  0.5470
11883TIP3    H157140   0.458   4.594  13.217 -0.4463  0.4026  0.6757
11883TIP3    H257141   0.391   4.720  13.169  2.2426  1.8896  0.6256
11884TIP3   OH257142   5.278   1.114   3.878 -0.4888 -0.2668 -0.2519
11884TIP3    H157143   5.352   1.157   3.836  0.1202 -0.5250  0.5138
11884TIP3    H257144   5.283   1.143   3.970 -2.2261  0.8882 -0.4751
11885TIP3   OH257145   6.683   1.455   2.223  0.3929  0.3977  0.4526
11885TIP3    H157146   6.647   1.494   2.144  1.3342  4.5392  1.8274
11885TIP3    H257147   6.778   1.454   2.208  0.6164  1.5819  1.5685
11886TIP3   OH257148   0.024   3.416  12.289 -0.2192 -0.3900 -0.1919
11886TIP3    H157149  -0.054   3.445  12.242 -0.6898 -1.1707  0.0785
11886TIP3    H257150   0.081   3.492  12.291 -1.1884  0.3504  0.0436
11887TIP3   OH257151   1.327   2.985  17.397  0.3099 -0.1668  0.3684
11887TIP3    H157152   1.294   2.945  17.477  0.2987 -0.2526  0.3204
11887TIP3    H257153   1.352   3.074  17.424  1.2608 -0.5192  0.6940
11888TIP3   OH257154   6.535   3.502   3.296  0.5532 -0.0975 -0.0894
11888TIP3    H157155   6.498   3.470   3.378 -0.4330  0.2727 -0.3810
11888TIP3    H257156   6.516   3.433   3.233 -1.0739  0.7542 -0.5904
11889TIP3   OH257157   4.661   4.718  12.859  0.5656  0.3154 -0.0070
11889TIP3    H157158   4.578   4.756  12.828  0.0460 -0.3290  0.5529
11889TIP3    H257159   4.723   4.735  12.788 -0.1066  0.6010 -0.5400
11890TIP3   OH257160   3.656   3.150  14.474  0.0865 -0.0983  0.6237
11890TIP3    H157161   3.695   3.081  14.419  2.3891 -0.1275  2.1195
11890TIP3    H257162   3.720   3.161  14.545 -1.4981  1.7755  1.8299
11891TIP3   OH257163   6.654   0.051   3.413 -0.1203  0.6412 -0.0297
11891TIP3    H157164   6.646   0.042   3.318 -1.8035  4.4959 -0.4264
11891TIP3    H257165   6.743   0.086   3.426  0.4411 -0.7220 -0.0305
11892TIP3   OH257166   2.084   3.739   5.996  0.0803 -0.1411 -0.1313
11892TIP3    H157167   2.155   3.798   5.971  1.4689 -0.5337  2.5163
11892TIP3    H257168   2.088   3.667   5.933  1.4552  0.2748 -0.5423
11893TIP3   OH257169   2.139   3.882   0.413  0.0274  0.1752 -0.2516
11893TIP3    H157170   2.202   3.812   0.394  1.1495  1.2190 -0.5578
11893TIP3    H257171   2.171   3.920   0.495 -0.4897  0.4096 -0.1583
11894TIP3   OH257172   1.278   3.121   4.536  0.0898  0.2752 -0.2096
11894TIP3    H157173   1.201   3.174   4.519 -0.0760  0.2566  0.4473
11894TIP3    H257174   1.347   3.184   4.558  0.0872  0.2610 -0.1590
11895TIP3   OH257175   1.789   0.331   1.621  0.2185 -0.5023 -0.2040
11895TIP3    H157176   1.789   0.424   1.642 -0.7827 -0.2075 -1.3740
11895TIP3    H257177   1.737   0.291   1.690  1.0898 -0.2841  0.5985
11896TIP3   OH257178   2.730   4.976  12.318 -0.1708 -0.1291  0.3312
11896TIP3    H157179   2.788   4.902  12.298  0.4614  0.3817  0.2428
11896TIP3    H257180   2.688   4.997  12.235  0.1965  0.0750  0.1965
11897TIP3   OH257181   6.334   1.539  11.586  0.6153  0.6362  0.2807
11897TIP3    H157182   6.245   1.505  11.596  0.5837  1.2483  2.5869
11897TIP3    H257183   6.343   1.553  11.492 -1.3533 -0.3927 -0.1236
11898TIP3   OH257184   1.975   6.035  16.996 -0.3131 -0.1887  0.4908
11898TIP3    H157185   2.015   6.072  17.075 -0.9394 -1.3759  1.3950
11898TIP3    H257186   1.948   6.111  16.945  0.1066  0.6069  1.4178
11899TIP3   OH257187   5.943   6.127  12.488  0.3701  0.4458 -0.3985
11899TIP3    H157188   6.009   6.181  12.443  1.1909  0.8525  1.2370
11899TIP3    H257189   5.936   6.049  12.433 -0.2041  1.7891 -2.3590
11900TIP3   OH257190   5.709   4.126   2.634 -0.6251 -0.5606  0.0682
11900TIP3    H157191   5.684   4.199   2.691  2.2365  0.4783  0.1658
11900TIP3    H257192   5.722   4.052   2.693 -2.0749 -0.7734  0.1508
11901TIP3   OH257193   2.226   6.714  10.798  0.6774 -0.4829  0.4360
11901TIP3    H157194   2.255   6.641  10.743 -3.9881 -0.2864 -2.8185
11901TIP3    H257195   2.289   6.784  10.779  1.1036 -1.4695 -2.2500
11902TIP3   OH257196   0.060   3.983  16.151  0.6385  0.6084 -0.5171
11902TIP3    H157197   0.099   3.949  16.232 -0.6399 -1.2517 -0.6501
11902TIP3    H257198   0.023   4.068  16.177  0.0251 -0.0623  0.9397
11903TIP3   OH257199   4.364   5.931   0.934  0.3208 -0.2950 -0.8879
11903TIP3    H157200   4.284   5.947   0.886 -1.4401  0.7404  2.1330
11903TIP3    H257201   4.415   6.012   0.925 -1.7670  1.5231  1.9676
11904TIP3   OH257202   3.631   0.257   4.806 -0.4992  0.4100  0.1015
11904TIP3    H157203   3.626   0.251   4.902  1.1716 -1.2301  0.1603
11904TIP3    H257204   3.561   0.317   4.782  0.0649  2.1725  2.4779
11905TIP3   OH257205   2.264   4.938  14.813 -0.2621 -0.0749  0.2533
11905TIP3    H157206   2.303   4.975  14.734 -1.3861 -0.0184 -0.3091
11905TIP3    H257207   2.176   4.976  14.816 -0.0519  0.3786  1.8611
11906TIP3   OH257208   4.818   5.000   0.582 -0.0559  0.8935 -0.2295
11906TIP3    H157209   4.866   5.011   0.664 -1.3362  0.4459  0.6140
11906TIP3    H257210   4.874   4.945   0.528 -0.5956 -1.6439  1.6364
11907TIP3   OH257211   4.492   5.368   0.936  0.3838 -0.2426 -1.2338
11907TIP3    H157212   4.504   5.339   0.845 -2.0042 -0.4401 -1.5705
11907TIP3    H257213   4.433   5.303   0.974 -0.3969  0.9959 -0.2335
11908TIP3   OH257214   3.566   0.593   0.498 -0.3102  0.0037 -0.3010
11908TIP3    H157215   3.606   0.557   0.419 -0.1327  0.2006 -0.2986
11908TIP3    H257216   3.498   0.528   0.521 -0.3129 -0.0916 -0.5688
11909TIP3   OH257217   3.159   0.448  15.046 -0.2825  0.6701 -0.1159
11909TIP3    H157218   3.165   0.423  14.954 -2.8652 -2.9342  0.4332
11909TIP3    H257219   3.110   0.530  15.046 -0.8125  0.3977 -1.9502
11910TIP3   OH257220   1.338   0.994   0.109  0.0859  0.5886 -0.5454
11910TIP3    H157221   1.359   0.991   0.202  1.2297  0.9947 -0.7778
11910TIP3    H257222   1.283   0.917   0.094  0.7372 -0.0524  0.2595
11911TIP3   OH257223   6.338   6.692  13.698 -0.0043 -0.3984  0.0488
11911TIP3    H157224   6.245   6.680  13.719  0.1613 -0.0428  1.0134
11911TIP3    H257225   6.383   6.624  13.748  0.2410 -0.7364 -0.6216
11912TIP3   OH257226   1.896   3.205  15.353 -0.0844  0.1407  0.0058
11912TIP3    H157227   1.801   3.213  15.341 -0.2415 -2.5718 -1.2351
11912TIP3    H257228   1.908   3.206  15.448 -1.5651 -1.1086  0.2318
11913TIP3   OH257229   3.171   0.130   4.559 -0.8438 -0.2485 -0.0586
11913TIP3    H157230   3.260   0.104   4.582 -0.1865  0.7892 -1.3038
11913TIP3    H257231   3.162   0.108   4.466 -0.9424  1.9552 -0.6497
11914TIP3   OH257232   3.510   2.555   0.124  0.1672  0.4622  0.5566
11914TIP3    H157233   3.553   2.494   0.184 -0.1786  0.0776  0.4204
11914TIP3    H257234   3.439   2.504   0.085 -0.6809  1.2074  1.0894
11915TIP3   OH257235   1.885   4.464  16.002  0.2260 -0.5974  0.3514
11915TIP3    H157236   1.806   4.411  16.011 -0.4896 -0.3941 -3.2954
11915TIP3    H257237   1.877   4.531  16.071 -2.6368 -0.7639  0.3190
11916TIP3   OH257238   3.527   1.304   0.211 -0.1798 -0.0433  0.5103
11916TIP3    H157239   3.482   1.245   0.273 -1.0570  0.7518  0.6539
11916TIP3    H257240   3.589   1.247   0.166 -2.1990 -1.5097 -0.5910
11917TIP3   OH257241   6.596   2.157  15.159 -0.1996  0.5638 -0.3607
11917TIP3    H157242   6.658   2.202  15.216 -1.1385  2.3123 -0.6546
11917TIP3    H257243   6.651   2.101  15.104  0.8940  0.3648  0.8881
11918TIP3   OH257244   1.502   2.682  11.893 -0.7859 -0.2936 -0.4068
11918TIP3    H157245   1.574   2.669  11.831  1.0182 -0.4261  1.5777
11918TIP3    H257246   1.436   2.618  11.867 -0.5103  0.2496 -2.6720
11919TIP3   OH257247   6.422   3.719  14.116  0.4453  0.2424 -0.3923
11919TIP3    H157248   6.512   3.735  14.089  0.4802  0.7809  0.0292
11919TIP3    H257249   6.369   3.765  14.050  0.5504  2.5932  1.0464
11920TIP3   OH257250   4.647   1.545   0.392  0.2921 -0.2378  0.5315
11920TIP3    H157251   4.716   1.529   0.328 -0.1100  1.0045 -0.2581
11920TIP3    H257252   4.678   1.621   0.443  0.3847 -0.8999  1.4912
11921TIP3   OH257253   0.254   0.727   2.396  0.5945  0.8245 -0.1480
11921TIP3    H157254   0.313   0.672   2.448  0.0246 -1.3198 -1.6249
11921TIP3    H257255   0.182   0.747   2.455  1.6813  1.5718  0.9784
11922TIP3   OH257256   4.501   4.865  14.162 -0.2643 -0.0792  0.4504
11922TIP3    H157257   4.422   4.838  14.115  0.2521 -0.5253 -0.1780
11922TIP3    H257258   4.506   4.960  14.149 -1.9461  0.3626  2.4515
11923TIP3   OH257259   4.367   1.484   0.410  0.4975  0.0783 -1.0313
11923TIP3    H157260   4.337   1.557   0.464  0.8305 -0.7188  0.2974
11923TIP3    H257261   4.461   1.495   0.404  0.3676  0.6804 -2.2861
11924TIP3   OH257262   1.064   5.288   3.657  0.1108  0.1108 -0.7374
11924TIP3    H157263   1.132   5.275   3.590 -0.9955  2.9800 -2.5763
11924TIP3    H257264   0.982   5.272   3.611 -0.6155  0.0188  0.5479
11925TIP3   OH257265   3.671   5.895  12.480  0.3456 -0.3456 -0.1863
11925TIP3    H157266   3.765   5.905  12.495  0.1551  0.4056  0.5814
11925TIP3    H257267   3.663   5.877  12.386  1.2683 -0.6891 -0.2044
11926TIP3   OH257268   1.248   1.281  16.248 -0.2983  0.0493  0.3118
11926TIP3    H157269   1.270   1.374  16.255  0.2019  0.0512 -0.9772
11926TIP3    H257270   1.292   1.252  16.168 -0.7008 -1.2277  0.5311
11927TIP3   OH257271   0.427   1.676   0.791  0.4365  0.1785 -0.2887
11927TIP3    H157272   0.493   1.608   0.799 -0.1364 -0.4325 -0.6731
11927TIP3    H257273   0.477   1.757   0.782  1.1198 -0.1800  0.2254
11928TIP3   OH257274   6.522   2.401  14.583 -0.2460 -0.0698  0.7463
11928TIP3    H157275   6.559   2.349  14.512  0.1234 -0.4424  1.2009
11928TIP3    H257276   6.497   2.337  14.649 -0.8846  0.2498  0.8187
11929TIP3   OH257277   0.524   3.083  14.974 -0.3883 -0.2112  0.1108
11929TIP3    H157278   0.452   3.080  15.038 -0.6945  1.1632 -0.1531
11929TIP3    H257279   0.549   2.991  14.963 -1.1948 -0.5909  1.2298
11930TIP3   OH257280   6.008   6.112  14.002 -0.4421 -0.3030  0.6763
11930TIP3    H157281   5.978   6.200  13.977 -2.9980 -1.5404 -0.9858
11930TIP3    H257282   6.058   6.080  13.927 -2.1975 -1.3983 -0.0787
11931TIP3   OH257283   6.567   5.840  16.243 -0.3835 -0.0231 -0.5881
11931TIP3    H157284   6.542   5.788  16.167 -0.4930  0.1977 -0.7024
11931TIP3    H257285   6.556   5.780  16.317 -1.4498  0.1261 -0.6131
11932TIP3   OH257286   0.812   5.767   0.350 -0.0271 -0.4041 -0.2715
11932TIP3    H157287   0.862   5.686   0.356 -1.6773 -1.4204  0.2791
11932TIP3    H257288   0.720   5.740   0.354 -0.6619  1.3942 -1.2118
11933TIP3   OH257289   4.279   2.910   2.080 -0.4698  0.3113  0.5766
11933TIP3    H157290   4.368   2.940   2.060 -0.1344 -0.2983  1.1166
11933TIP3    H257291   4.263   2.942   2.169 -0.3212 -0.5869  0.9431
11934TIP3   OH257292   4.271   4.920  12.984 -0.3156  0.3915  0.3211
11934TIP3    H157293   4.247   4.856  12.916 -0.1236 -1.8569  2.2285
11934TIP3    H257294   4.357   4.951  12.958  0.5440 -1.7696  0.3780
11935TIP3   OH257295   3.771   1.095  15.212 -0.0702  0.5435  0.0249
11935TIP3    H157296   3.689   1.063  15.250 -0.4546  1.3996 -0.0701
11935TIP3    H257297   3.771   1.059  15.123  0.4280 -0.7657  0.5343
11936TIP3   OH257298   4.864   5.475   1.099  0.6388 -0.1196 -0.2184
11936TIP3    H157299   4.849   5.567   1.118  0.5222 -0.0574 -0.6121
11936TIP3    H257300   4.788   5.430   1.136  0.0637  0.0724 -1.1558
11937TIP3   OH257301   2.909   1.602   4.599  0.7476  0.2271  0.8589
11937TIP3    H157302   2.962   1.548   4.657  1.9603  0.7156  0.2547
11937TIP3    H257303   2.825   1.556   4.592  1.8307 -1.7663  0.0891
11938TIP3   OH257304   5.899   4.560   3.319 -0.2891 -0.5968 -0.0197
11938TIP3    H157305   5.950   4.617   3.377  1.8972 -1.9493 -0.4886
11938TIP3    H257306   5.812   4.557   3.359  0.6367 -0.0624  2.1825
11939TIP3   OH257307   4.582   6.521   1.623 -0.5128  0.3458 -0.1838
11939TIP3    H157308   4.539   6.448   1.578  1.3889 -1.3588  0.5989
11939TIP3    H257309   4.577   6.498   1.716  2.4725 -0.3005 -0.0750
11940TIP3   OH257310   1.446   3.273   0.276 -0.3988  0.5954 -0.0482
11940TIP3    H157311   1.431   3.199   0.335  0.1243  0.0767 -0.5675
11940TIP3    H257312   1.376   3.335   0.299  0.2663  0.7591  1.6706
11941TIP3   OH257313   2.355   6.030  15.778  0.1829 -0.3900  0.0124
11941TIP3    H157314   2.423   6.096  15.763  0.1716 -0.5186 -0.6249
11941TIP3    H257315   2.275   6.082  15.791  0.2408 -0.2635 -0.1243
11942TIP3   OH257316   6.059   0.888  15.356  0.4206 -0.1752  0.1190
11942TIP3    H157317   6.112   0.928  15.426 -0.5127  0.9078  0.2363
11942TIP3    H257318   6.015   0.814  15.399  1.8228 -1.1161  0.0134
11943TIP3   OH257319   0.278   0.582   4.368  0.0920  0.0623 -0.0128
11943TIP3    H157320   0.320   0.525   4.432  1.5807  0.2665 -0.7562
11943TIP3    H257321   0.285   0.670   4.406 -1.3037 -0.0896  0.6702
11944TIP3   OH257322   0.131   4.439   3.824  0.2359  0.3303 -0.0982
11944TIP3    H157323   0.199   4.483   3.875 -0.1555 -0.2891  0.9960
11944TIP3    H257324   0.164   4.350   3.812 -0.4578 -0.0385  0.6319
11945TIP3   OH257325   2.853   3.976   3.461  0.1296  1.0093 -0.2482
11945TIP3    H157326   2.845   3.953   3.368 -0.7698  1.6522 -0.3431
11945TIP3    H257327   2.820   4.066   3.466 -2.4622  0.0960  1.1166
11946TIP3   OH257328   2.838   0.709   0.340 -0.3114  0.6153  0.3476
11946TIP3    H157329   2.765   0.746   0.291  1.5996  3.8821 -0.3895
11946TIP3    H257330   2.896   0.672   0.274  0.3225  1.2879  0.5052
11947TIP3   OH257331   3.773   0.869   1.009 -0.1498  0.3578  0.2471
11947TIP3    H157332   3.838   0.808   1.043  0.4420  1.0218  0.3366
11947TIP3    H257333   3.700   0.814   0.980 -0.3465 -0.2858  1.8461
11948TIP3   OH257334   6.022   4.530   3.672  0.0896  0.1504 -0.0294
11948TIP3    H157335   5.943   4.558   3.717  0.0540  0.0782 -0.0466
11948TIP3    H257336   6.070   4.610   3.655  0.5009  0.1094  0.8865
11949TIP3   OH257337   3.179   5.795   5.653 -0.0201  0.0079 -0.2800
11949TIP3    H157338   3.186   5.762   5.564  0.2562 -2.8434  0.6670
11949TIP3    H257339   3.254   5.853   5.664 -0.9357  1.7054 -2.3060
11950TIP3   OH257340   2.530   6.115  13.219  0.5679  0.2836  0.1092
11950TIP3    H157341   2.518   6.154  13.305 -0.1506 -2.8384  1.5945
11950TIP3    H257342   2.443   6.120  13.178  1.3464  3.6654 -1.4993
11951TIP3   OH257343   6.596   1.908  17.460  0.3154  0.5464  0.4176
11951TIP3    H157344   6.570   1.818  17.443  0.2103  0.6582 -0.0290
11951TIP3    H257345   6.670   1.923  17.401  0.8784  0.4832  1.1022
11952TIP3   OH257346   5.480   1.720   5.757 -0.9827 -0.2100 -0.0876
11952TIP3    H157347   5.442   1.796   5.713  0.6063  0.2274 -0.7668
11952TIP3    H257348   5.471   1.648   5.694 -3.2954 -0.8788  0.8910
11953TIP3   OH257349   2.460   4.522  11.487  0.1685 -0.0389 -0.5901
11953TIP3    H157350   2.445   4.547  11.396 -2.4300 -0.1031 -0.2529
11953TIP3    H257351   2.475   4.428  11.483 -0.6453 -0.1671 -0.9163
11954TIP3   OH257352   0.513   2.001  12.273 -0.4118  1.0130  0.1178
11954TIP3    H157353   0.563   2.019  12.352  0.9827 -1.0757 -0.2156
11954TIP3    H257354   0.521   2.080  12.221  0.8135  1.4864  0.9811
11955TIP3   OH257355   3.711   0.528   2.875  0.4857  0.0179  0.0630
11955TIP3    H157356   3.786   0.527   2.816  1.1156 -1.8387  0.8038
11955TIP3    H257357   3.738   0.585   2.947  1.4868 -1.0879  0.6142
11956TIP3   OH257358   4.590   1.763   2.639  0.0108  0.2242  0.5611
11956TIP3    H157359   4.682   1.771   2.611 -1.1959  0.5224 -4.2404
11956TIP3    H257360   4.573   1.845   2.687  1.4869  1.7878 -1.3900
11957TIP3   OH257361   1.062   4.831   6.025 -0.6447  0.4736 -0.3904
11957TIP3    H157362   1.015   4.841   6.107 -0.5589  1.5686 -0.4654
11957TIP3    H257363   0.996   4.799   5.963 -0.7078 -0.3583  0.0931
11958TIP3   OH257364   0.974   3.030  14.379 -0.0599 -0.4224  1.1580
11958TIP3    H157365   1.060   3.011  14.339 -0.7765 -0.6697 -0.3301
11958TIP3    H257366   0.993   3.096  14.445  1.0400  0.8628 -0.3558
11959TIP3   OH257367   2.700   5.610   1.547  0.1399  0.0674  0.2272
11959TIP3    H157368   2.708   5.570   1.460 -0.1907  1.8034 -0.6383
11959TIP3    H257369   2.758   5.557   1.603 -0.4378 -1.7176 -0.7967
11960TIP3   OH257370   2.046   6.271   6.565  0.6194 -0.4000 -0.0990
11960TIP3    H157371   1.970   6.314   6.606  0.0988  0.5322 -1.9176
11960TIP3    H257372   2.008   6.201   6.513  0.8791  0.5925 -1.6780
11961TIP3   OH257373   2.362   3.142  11.564  0.3977  0.1408 -0.0661
11961TIP3    H157374   2.269   3.163  11.572 -0.0513 -1.9141  0.7042
11961TIP3    H257375   2.364   3.063  11.510  1.9333  1.5469 -2.2657
11962TIP3   OH257376   3.154   2.471   3.561  0.2385  0.3598  0.3264
11962TIP3    H157377   3.174   2.562   3.584 -1.5261  0.3975  1.9522
11962TIP3    H257378   3.083   2.478   3.497  2.2437  0.1243 -2.0946
11963TIP3   OH257379   1.699   6.308   1.809  0.2057 -0.1845  0.4149
11963TIP3    H157380   1.603   6.308   1.814  0.0763  3.0609  0.0664
11963TIP3    H257381   1.718   6.283   1.719 -0.3094 -0.6625  0.4326
11964TIP3   OH257382   2.947   1.964   4.543 -0.5091  0.1106 -1.0673
11964TIP3    H157383   2.873   1.979   4.484  1.4303 -1.4996 -4.1921
11964TIP3    H257384   2.942   1.872   4.566  0.2427  0.0858 -0.9617
11965TIP3   OH257385   2.100   2.621  13.885  0.0884 -0.5154  0.1682
11965TIP3    H157386   2.041   2.616  13.810 -1.1371 -0.7539  1.1350
11965TIP3    H257387   2.057   2.679  13.947  0.0793 -1.9348  1.5602
11966TIP3   OH257388   2.067   4.937  13.775 -0.0768  0.3061 -0.0957
11966TIP3    H157389   2.005   5.010  13.776 -0.6283 -0.1580  0.1926
11966TIP3    H257390   2.028   4.872  13.717 -0.3725 -0.4150  0.8739
11967TIP3   OH257391   0.652   2.537  12.224 -0.0392 -0.0171  0.0927
11967TIP3    H157392   0.569   2.514  12.266  0.4440 -2.2414 -0.0055
11967TIP3    H257393   0.686   2.609  12.276 -1.9825  0.9044  0.1748
11968TIP3   OH257394   2.479   0.660   0.268  0.7411 -0.3252  0.1658
11968TIP3    H157395   2.455   0.737   0.217  2.2281 -0.5561 -0.9376
11968TIP3    H257396   2.497   0.694   0.356  1.2778  0.5699 -0.2775
11969TIP3   OH257397   3.685   1.429   5.037  0.3088 -0.5043  0.2007
11969TIP3    H157398   3.699   1.379   5.118  0.2784 -1.1860 -0.2137
11969TIP3    H257399   3.771   1.465   5.016  0.5524 -1.2517 -0.0734
11970TIP3   OH257400   0.900   2.327   0.812 -0.0859  0.3180  0.3480
11970TIP3    H157401   0.843   2.370   0.748 -0.3073  1.6874  1.4309
11970TIP3    H257402   0.903   2.387   0.886  1.3667 -0.5449  1.0347
11971TIP3   OH257403   1.949   4.352  12.784  0.2896  0.0820  0.3257
11971TIP3    H157404   1.976   4.394  12.702  0.4510 -1.8814 -0.6924
11971TIP3    H257405   1.868   4.306  12.762  0.5661 -0.8211  1.1464
11972TIP3   OH257406   4.678   6.224   4.535  0.2897 -0.3738 -0.0623
11972TIP3    H157407   4.621   6.272   4.475  2.0733  0.9125 -0.8191
11972TIP3    H257408   4.679   6.277   4.615 -0.2827 -0.8868  0.2945
11973TIP3   OH257409   3.961   6.313  12.069  0.8217 -0.1923 -0.0287
11973TIP3    H157410   4.017   6.388  12.046  2.3930  0.4276  4.5656
11973TIP3    H257411   4.013   6.236  12.045  1.0171  0.2550 -1.0889
11974TIP3   OH257412   1.573   4.414  12.672 -0.2260  0.0283  0.0235
11974TIP3    H157413   1.481   4.421  12.698 -0.0617  0.9842  0.3763
11974TIP3    H257414   1.571   4.411  12.577 -0.5368  1.9887 -0.0700
11975TIP3   OH257415   6.319   6.310   1.860  0.4140  0.4993  0.1780
11975TIP3    H157416   6.325   6.337   1.768  0.3714  0.4939  0.1737
11975TIP3    H257417   6.311   6.393   1.908 -0.7175  0.4510  0.0881
11976TIP3   OH257418   3.890   0.398  13.912 -0.2456  0.6422  0.1928
11976TIP3    H157419   3.981   0.380  13.935 -0.3885 -1.3398 -0.6544
11976TIP3    H257420   3.873   0.345  13.835 -1.6778  2.2081 -0.6512
11977TIP3   OH257421   5.210   5.202  13.837  0.4542  0.2993 -0.1556
11977TIP3    H157422   5.285   5.200  13.897 -1.9616  0.0348  3.0896
11977TIP3    H257423   5.152   5.269  13.873 -2.2630 -1.6339 -0.7081
11978TIP3   OH257424   1.192   1.482  14.731  0.4061  0.3963  0.2989
11978TIP3    H157425   1.184   1.386  14.732 -1.8261  0.5319  0.9121
11978TIP3    H257426   1.263   1.501  14.793  1.8141 -0.8847 -0.8478
11979TIP3   OH257427   3.324   2.503  14.184 -0.0630 -0.0755  0.8175
11979TIP3    H157428   3.321   2.418  14.141  2.2369  0.1732  0.0260
11979TIP3    H257429   3.240   2.543  14.164  0.1720 -0.7530 -1.8596
11980TIP3   OH257430   0.659   5.063  11.338  0.2320 -0.1805 -0.0225
11980TIP3    H157431   0.592   5.078  11.404  0.9518  1.3562  0.3989
11980TIP3    H257432   0.612   5.021  11.265 -1.2750  1.1683  0.1122
11981TIP3   OH257433   6.652   1.715   4.489 -0.3256 -0.1922 -0.3146
11981TIP3    H157434   6.629   1.758   4.406  0.0551 -0.0807 -0.3643
11981TIP3    H257435   6.747   1.724   4.495 -0.4104  0.3221  0.4210
11982TIP3   OH257436   4.405   4.597  14.056 -0.7715  0.9743 -0.2099
11982TIP3    H157437   4.399   4.589  14.151  2.0814 -1.2085 -0.0808
11982TIP3    H257438   4.322   4.638  14.030 -3.3724 -1.8274  2.8148
11983TIP3   OH257439   4.897   5.247  16.785  0.5898 -0.7624  0.1300
11983TIP3    H157440   4.948   5.214  16.859  0.2790  0.0740  0.7373
11983TIP3    H257441   4.942   5.327  16.759  0.8071 -1.1492 -0.7202
11984TIP3   OH257442   3.781   0.657  15.303  0.3229 -0.5923 -0.1145
11984TIP3    H157443   3.749   0.567  15.318  0.9491 -0.8860 -0.4920
11984TIP3    H257444   3.802   0.658  15.209  0.2160 -0.0144 -0.1312
11985TIP3   OH257445   3.266   0.404   3.246  0.1642 -0.0630  0.0767
11985TIP3    H157446   3.268   0.362   3.332  1.3579  0.8652  0.5469
11985TIP3    H257447   3.279   0.333   3.184  0.6106 -0.5895  0.7522
11986TIP3   OH257448   0.315   0.069   2.439 -0.5739  0.3854  0.4890
11986TIP3    H157449   0.294   0.158   2.466 -0.1776  0.0918  1.8208
11986TIP3    H257450   0.368   0.080   2.360 -0.7335  1.3120  0.5001
11987TIP3   OH257451   2.649   5.847  14.084 -0.1940  0.4084 -0.5718
11987TIP3    H157452   2.651   5.869  13.991  1.4312  0.4347 -0.5628
11987TIP3    H257453   2.639   5.931  14.128 -3.6439  0.1894 -0.7302
11988TIP3   OH257454   0.995   1.213   5.233 -0.1011  0.1165  0.4142
11988TIP3    H157455   1.053   1.226   5.158  0.0305  0.4249  0.5707
11988TIP3    H257456   0.913   1.255   5.207 -0.1492 -0.0290  0.3285
11989TIP3   OH257457   3.689   4.944  16.604 -0.1606 -0.1285  0.2788
11989TIP3    H157458   3.714   4.894  16.526  1.9830  0.3166  0.6064
11989TIP3    H257459   3.739   5.026  16.596 -0.6249  0.3126  1.6692
11990TIP3   OH257460   5.527   0.934  12.131 -0.0463 -0.0363  0.0980
11990TIP3    H157461   5.544   0.996  12.060 -1.1375 -0.2630 -0.3807
11990TIP3    H257462   5.613   0.916  12.168  0.6426 -0.4448 -1.6201
11991TIP3   OH257463   3.142   2.272   4.687  0.0980 -0.0213 -0.3371
11991TIP3    H157464   3.165   2.350   4.739  0.4550  0.3349 -1.0065
11991TIP3    H257465   3.049   2.259   4.703  0.2621 -0.1065  0.6301
11992TIP3   OH257466   2.691   2.431  14.754 -0.3906  0.1273 -0.1148
11992TIP3    H157467   2.672   2.361  14.692 -0.2861 -0.7255  0.7796
11992TIP3    H257468   2.633   2.413  14.828  0.9769 -0.1554  0.9416
11993TIP3   OH257469   2.836   3.631   0.680  0.2789 -0.0955 -0.3074
11993TIP3    H157470   2.818   3.673   0.764  0.2201 -0.8779  0.0822
11993TIP3    H257471   2.870   3.701   0.624  0.9315  0.3040  0.5650
11994TIP3   OH257472   3.438   4.928  15.002  0.2685  0.5985  0.0390
11994TIP3    H157473   3.464   4.886  15.084 -0.0074  0.4285  0.0399
11994TIP3    H257474   3.387   5.004  15.029  0.7120  0.9041  0.0363
11995TIP3   OH257475   4.017   5.204   4.152  0.1289  0.0873  0.3262
11995TIP3    H157476   3.990   5.113   4.145 -0.0022 -0.0207  1.9740
11995TIP3    H257477   3.954   5.252   4.098 -1.1164 -0.5794  1.1493
11996TIP3   OH257478   1.504   1.953   3.610 -0.3139  0.6382 -0.3179
11996TIP3    H157479   1.571   1.960   3.542  0.2389 -1.3885 -0.0467
11996TIP3    H257480   1.473   1.863   3.605 -1.5430  0.9448  0.9573
11997TIP3   OH257481   1.295   5.784  14.677  0.4414 -0.4953  0.2469
11997TIP3    H157482   1.317   5.763  14.768  2.9030  0.6624  0.0229
11997TIP3    H257483   1.324   5.708  14.627  0.2201 -0.6394  0.3423
11998TIP3   OH257484   5.904   0.673   3.243 -0.3725 -0.0994 -0.0843
11998TIP3    H157485   5.820   0.680   3.199 -0.3642 -0.5119 -0.1700
11998TIP3    H257486   5.899   0.735   3.316  0.0683  1.5070 -1.3793
11999TIP3   OH257487   6.074   0.301  16.372  0.2919 -0.3168 -0.3336
11999TIP3    H157488   6.143   0.366  16.380  0.0608 -0.1426  0.3286
11999TIP3    H257489   6.118   0.217  16.384  0.2004 -0.1419  1.4642
12000TIP3   OH257490   2.940   3.574   2.701 -0.1927 -0.1376  0.7174
12000TIP3    H157491   2.977   3.579   2.789 -0.1527 -0.5351  0.7291
12000TIP3    H257492   2.918   3.664   2.678 -0.2169 -0.0345  1.1402
12001TIP3   OH257493   5.656   0.671  12.835 -0.3126  0.3581 -0.1865
12001TIP3    H157494   5.587   0.640  12.776 -0.6126 -1.4707  1.0709
12001TIP3    H257495   5.665   0.602  12.900  1.5682  1.3240  0.6410
12002TIP3   OH257496   3.165   2.860  14.703  0.5084 -0.4206  0.0068
12002TIP3    H157497   3.237   2.850  14.642  0.7475  0.3807  0.1415
12002TIP3    H257498   3.088   2.830  14.655  0.5840  0.8294 -0.9368
12003TIP3   OH257499   4.378   2.490  12.489 -0.0253 -0.0690  0.0017
12003TIP3    H157500   4.294   2.442  12.486 -0.0886 -0.1045  1.6849
12003TIP3    H257501   4.355   2.580  12.466 -1.1009  0.5900  3.2070
12004TIP3   OH257502   5.623   0.554   5.092  0.3189  0.0234 -0.3195
12004TIP3    H157503   5.657   0.471   5.058  2.2569  0.4142  0.5259
12004TIP3    H257504   5.679   0.574   5.166  1.1079  2.9796 -1.5563
12005TIP3   OH257505   6.559   6.237   3.548  0.2735  0.3177  0.2057
12005TIP3    H157506   6.602   6.304   3.496 -1.5376  0.1212 -1.6521
12005TIP3    H257507   6.593   6.154   3.513 -2.2865  0.1025 -2.1346
12006TIP3   OH257508   5.434   6.103  14.703  0.1142  0.3491 -0.0843
12006TIP3    H157509   5.408   6.159  14.776 -0.4979  0.4993 -0.4161
12006TIP3    H257510   5.438   6.162  14.628  1.0516  0.2582 -0.1209
12007TIP3   OH257511   2.597   2.528   1.501  0.4005 -0.8910  0.1758
12007TIP3    H157512   2.519   2.477   1.480  0.3015 -0.1608 -1.4086
12007TIP3    H257513   2.666   2.463   1.514  0.2350 -1.4780 -1.6438
12008TIP3   OH257514   6.451   4.361  14.390 -0.4125 -0.4047 -0.1484
12008TIP3    H157515   6.452   4.282  14.335 -2.3288 -0.3852 -0.2577
12008TIP3    H257516   6.435   4.329  14.478 -2.1189 -0.1107 -0.3220
12009TIP3   OH257517   0.220   0.577   5.350  0.2571  0.1353  0.0017
12009TIP3    H157518   0.312   0.550   5.349 -0.2864 -1.9525  0.7974
12009TIP3    H257519   0.193   0.570   5.258  0.9820  1.2715 -0.3293
12010TIP3   OH257520   6.471   0.481   2.036  0.3584  0.0969 -0.3814
12010TIP3    H157521   6.542   0.423   2.010 -0.4660 -0.8359 -0.6445
12010TIP3    H257522   6.402   0.422   2.067 -0.3042  0.9701 -0.1471
12011TIP3   OH257523   3.095   6.177  13.201 -0.0359  0.0646 -0.1922
12011TIP3    H157524   3.110   6.271  13.197 -1.9296  0.4614  0.6955
12011TIP3    H257525   3.074   6.152  13.111  1.4370  0.2798 -0.6132
12012TIP3   OH257526   2.944   5.668  16.812 -0.1205 -0.4437 -0.4205
12012TIP3    H157527   2.911   5.591  16.767  0.4917 -0.1769 -1.3631
12012TIP3    H257528   2.896   5.741  16.773  0.2421 -0.2280 -0.4706
12013TIP3   OH257529   1.194   4.703   0.577 -0.2954  0.1163  0.1731
12013TIP3    H157530   1.280   4.742   0.560 -0.1470 -0.4599 -0.4517
12013TIP3    H257531   1.198   4.676   0.669 -0.2602  1.1796  0.5040
12014TIP3   OH257532   5.417   3.032  16.111  0.1355  0.2292  0.8971
12014TIP3    H157533   5.448   2.945  16.086  0.1677  0.6314 -0.5940
12014TIP3    H257534   5.383   3.069  16.029 -0.5999  1.3212  1.6705
12015TIP3   OH257535   6.237   5.691   3.561  0.3355 -0.4219 -0.3689
12015TIP3    H157536   6.289   5.676   3.482  2.8799 -2.1194  1.4502
12015TIP3    H257537   6.259   5.618   3.618 -3.0123 -0.4101  1.1947
12016TIP3   OH257538   3.477   0.036   4.997 -0.3199 -0.2069 -0.0954
12016TIP3    H157539   3.431   0.110   5.037  0.5495  0.6780 -0.6745
12016TIP3    H257540   3.562   0.072   4.972  0.4866 -1.6377  0.4432
12017TIP3   OH257541   4.681   1.318   6.729 -0.0129 -0.2433  0.1015
12017TIP3    H157542   4.708   1.248   6.670  0.8453  0.1364  0.0316
12017TIP3    H257543   4.595   1.346   6.696 -0.3669 -1.2541  0.1407
12018TIP3   OH257544   5.702   4.900  17.462 -0.3437  0.1276 -0.7600
12018TIP3    H157545   5.787   4.863  17.439 -0.8897 -0.9961 -1.0028
12018TIP3    H257546   5.696   4.981  17.411 -0.7585 -1.3905 -3.2335
12019TIP3   OH257547   4.114   2.168  16.055  0.0504  0.0316  0.0928
12019TIP3    H157548   4.113   2.190  15.962 -0.1287  0.7964  0.2740
12019TIP3    H257549   4.153   2.080  16.058 -0.9388 -0.4625 -0.8001
12020TIP3   OH257550   4.934   2.952   4.822  0.2825  0.1228 -0.3841
12020TIP3    H157551   4.995   2.970   4.893 -0.6866  1.1584  0.2092
12020TIP3    H257552   4.871   2.890   4.860  0.2913 -0.0395 -0.6324
12021TIP3   OH257553   6.640   0.800   0.352 -0.4439  0.1469 -0.1547
12021TIP3    H157554   6.684   0.849   0.422  0.9861  3.2684 -2.9562
12021TIP3    H257555   6.554   0.841   0.344  0.0113  0.9381 -1.2208
12022TIP3   OH257556   4.713   3.650   2.064  0.5790  0.6016 -0.0159
12022TIP3    H157557   4.668   3.609   1.990 -0.3238  1.1464  0.2053
12022TIP3    H257558   4.784   3.590   2.086 -0.0657 -0.3085 -0.3552
12023TIP3   OH257559   3.750   6.072  17.439 -0.3919 -0.0184 -0.3377
12023TIP3    H157560   3.681   6.009  17.460 -1.4974  1.3714  0.3267
12023TIP3    H257561   3.832   6.022  17.447 -1.2114 -1.2784  0.4398
12024TIP3   OH257562   2.566   6.217  16.243 -0.1231  0.4182  1.2431
12024TIP3    H157563   2.647   6.267  16.250  0.1394  0.4827 -1.2975
12024TIP3    H257564   2.501   6.270  16.289  0.3760  2.6258 -0.4122
12025TIP3   OH257565   4.760   5.930  15.466  0.5381 -0.1228  0.2166
12025TIP3    H157566   4.821   5.857  15.457  1.7941  1.1116 -2.2260
12025TIP3    H257567   4.763   5.975  15.381 -2.6327  0.9216  0.5137
12026TIP3   OH257568   4.728   0.666   0.126 -0.4183 -0.4887 -0.3130
12026TIP3    H157569   4.754   0.639   0.038 -0.1943  2.0336 -1.0924
12026TIP3    H257570   4.634   0.684   0.120 -0.1470  0.9848 -0.4229
12027TIP3   OH257571   6.212   4.104   4.054  0.2118  0.1103  0.2970
12027TIP3    H157572   6.183   4.066   4.137  1.4025 -2.3547 -0.3218
12027TIP3    H257573   6.297   4.143   4.073 -0.6577  1.8927  0.7515
12028TIP3   OH257574   0.729   0.204   5.408 -0.1653  0.0118 -0.2912
12028TIP3    H157575   0.796   0.185   5.474  0.1554  1.5418 -0.1367
12028TIP3    H257576   0.651   0.158   5.438  0.4414 -0.6664  0.2609
12029TIP3   OH257577   6.244   4.619  16.176  0.6406  0.0142 -0.1710
12029TIP3    H157578   6.225   4.643  16.085  2.4845  1.4028 -0.2528
12029TIP3    H257579   6.240   4.701  16.224 -0.0031 -0.6645  0.9720
12030TIP3   OH257580   0.925   5.959  14.757 -0.4318 -0.5383 -0.6577
12030TIP3    H157581   1.014   5.971  14.789 -0.8270 -0.6244  0.5222
12030TIP3    H257582   0.898   5.873  14.790 -1.8044  0.5098  1.1268
12031TIP3   OH257583   1.242   5.300  13.352  1.2542  0.5904 -0.3319
12031TIP3    H157584   1.279   5.368  13.409  1.2026  0.4335 -0.1094
12031TIP3    H257585   1.149   5.321  13.345  0.7537 -0.7014  1.5652
12032TIP3   OH257586   4.234   2.345  13.445 -0.1176  0.3526  0.2463
12032TIP3    H157587   4.297   2.401  13.491  0.0229 -0.0426  0.5444
12032TIP3    H257588   4.242   2.370  13.353 -1.4079  2.1575  0.5830
12033TIP3   OH257589   3.715   5.358  11.377 -0.2956  0.6638 -0.4367
12033TIP3    H157590   3.799   5.373  11.422  0.2748 -0.3442 -1.1245
12033TIP3    H257591   3.732   5.382  11.286 -0.5586 -0.1607 -0.7099
12034TIP3   OH257592   0.947   6.613  15.458 -0.4703  0.3926  0.2925
12034TIP3    H157593   0.927   6.540  15.515  0.3848 -0.3783 -0.3590
12034TIP3    H257594   0.974   6.573  15.375  2.2195  1.3255  0.6054
12035TIP3   OH257595   5.194   3.423  17.431  0.5507  0.4180  0.3420
12035TIP3    H157596   5.172   3.413  17.524 -0.9349  1.4420  0.1437
12035TIP3    H257597   5.278   3.378  17.421  1.3749  1.3624  2.4376
12036TIP3   OH257598   0.957   2.950  16.612  0.6290 -0.3596 -0.6620
12036TIP3    H157599   0.966   2.862  16.574  0.0962 -0.3171 -0.8897
12036TIP3    H257600   1.009   3.006  16.555 -0.2984 -0.2691 -1.4452
12037TIP3   OH257601   5.681   0.508  16.299  0.0198 -0.5535 -0.3279
12037TIP3    H157602   5.665   0.547  16.384  0.2859 -0.7211 -0.2015
12037TIP3    H257603   5.695   0.583  16.240  2.2878 -0.4547  0.2442
12038TIP3   OH257604   4.263   0.474  13.012 -0.3096 -0.6636  0.0823
12038TIP3    H157605   4.259   0.430  13.097 -0.3720  1.7461  1.4047
12038TIP3    H257606   4.176   0.511  13.000 -0.1489 -0.5588 -0.8257
12039TIP3   OH257607   1.472   5.994   4.692  0.9126 -0.2972  0.0675
12039TIP3    H157608   1.440   5.905   4.709  2.2613 -0.7478  0.3715
12039TIP3    H257609   1.537   6.009   4.761 -0.0585  1.3432  0.6711
12040TIP3   OH257610   2.332   1.719   4.595 -0.2738 -0.5503  0.4803
12040TIP3    H157611   2.382   1.722   4.514 -1.0711 -1.2348 -0.0644
12040TIP3    H257612   2.286   1.803   4.598 -0.9010 -0.8483 -0.2365
12041TIP3   OH257613   1.801   2.207   3.600  0.2873 -0.1363 -0.5861
12041TIP3    H157614   1.762   2.128   3.563  1.7855 -1.4816  0.5791
12041TIP3    H257615   1.828   2.182   3.689  0.1164  1.9127  0.1073
12042TIP3   OH257616   2.646   4.460   4.753  0.0379  0.2615 -0.6427
12042TIP3    H157617   2.617   4.543   4.717 -0.0428 -0.1463 -1.5432
12042TIP3    H257618   2.629   4.396   4.684  0.3779 -0.4568 -0.0816
12043TIP3   OH257619   2.093   5.013   0.426  1.1113  0.6595 -0.0959
12043TIP3    H157620   2.024   5.079   0.418 -0.6243 -0.9353  0.9486
12043TIP3    H257621   2.081   4.956   0.349  2.0906  1.0862 -0.5750
12044TIP3   OH257622   4.179   1.325  15.895 -0.8902  0.8508  0.0943
12044TIP3    H157623   4.108   1.323  15.830  1.3958  0.0987 -2.6056
12044TIP3    H257624   4.155   1.258  15.959 -2.6675  0.6990 -0.6795
12045TIP3   OH257625   3.005   3.854   6.455 -0.2874 -0.3617 -1.0489
12045TIP3    H157626   3.085   3.856   6.401  1.1444 -0.2038  0.9729
12045TIP3    H257627   2.977   3.945   6.459  0.9741 -0.0023  0.3576
12046TIP3   OH257628   3.536   6.435   0.255 -0.4771 -0.7592 -0.1177
12046TIP3    H157629   3.509   6.526   0.247  1.8574 -0.0500 -0.8241
12046TIP3    H257630   3.629   6.439   0.275  0.3016 -2.9667 -2.6328
12047TIP3   OH257631   6.467   3.352   1.608  0.0840 -0.0397  0.4147
12047TIP3    H157632   6.441   3.429   1.658  0.7147  1.3750 -1.3193
12047TIP3    H257633   6.389   3.297   1.606 -0.1670  0.1794  2.2738
12048TIP3   OH257634   5.362   1.658   4.917  0.0354 -0.2558  0.8482
12048TIP3    H157635   5.427   1.672   4.986 -0.9389 -1.5586  2.1093
12048TIP3    H257636   5.344   1.564   4.921  0.4417 -0.5018 -1.6753
12049TIP3   OH257637   4.403   4.624   5.315 -0.5341 -0.3313 -0.3582
12049TIP3    H157638   4.351   4.653   5.390  0.2306 -1.8777  0.8373
12049TIP3    H257639   4.488   4.601   5.352  0.1982 -0.1956 -1.8711
12050TIP3   OH257640   5.553   4.457  16.582 -0.0955  0.1866 -0.0423
12050TIP3    H157641   5.505   4.375  16.595  1.2110 -0.4290  1.1839
12050TIP3    H257642   5.556   4.496  16.669 -0.9983  1.7531 -0.6723
12051TIP3   OH257643   1.276   1.797   4.375  0.0085 -0.0354 -0.0717
12051TIP3    H157644   1.338   1.823   4.443  0.5853 -2.1999  0.3347
12051TIP3    H257645   1.223   1.729   4.416 -0.7800 -0.1760 -1.2767
12052TIP3   OH257646   2.930   0.620  15.838  0.2068 -0.0140 -0.1206
12052TIP3    H157647   3.009   0.588  15.795  1.4078  2.4140  0.1099
12052TIP3    H257648   2.871   0.644  15.766  1.5077  2.3448 -0.5066
12053TIP3   OH257649   3.765   5.686  16.388  0.3412 -0.2284  0.2120
12053TIP3    H157650   3.737   5.770  16.425  0.8203 -0.2185  0.5549
12053TIP3    H257651   3.726   5.620  16.446  1.7575 -0.1998  1.2301
12054TIP3   OH257652   5.021   0.948   4.555 -0.5308  0.2093 -0.2345
12054TIP3    H157653   5.071   1.024   4.583 -0.8970 -0.5682  2.8327
12054TIP3    H257654   5.054   0.876   4.609 -1.9685 -1.2538 -1.2136
12055TIP3   OH257655   1.848   0.887   1.717  0.2227 -0.0060  0.4093
12055TIP3    H157656   1.902   0.907   1.794 -1.1037 -0.1226  1.4167
12055TIP3    H257657   1.827   0.794   1.726 -1.2250  0.3288  0.7944
12056TIP3   OH257658   4.847   4.687  11.904 -0.1067  0.3633 -0.8537
12056TIP3    H157659   4.883   4.700  11.992 -0.6952 -0.2917 -0.4997
12056TIP3    H257660   4.786   4.760  11.893  1.0939  1.3315 -1.3558
12057TIP3   OH257661   0.556   0.893  13.834 -0.3831 -0.5925 -0.0287
12057TIP3    H157662   0.511   0.928  13.757 -0.9805 -0.0364  0.5661
12057TIP3    H257663   0.590   0.970  13.880 -1.4897 -0.7663  1.1499
12058TIP3   OH257664   4.896   3.429   1.197 -0.3628  0.1718 -0.2127
12058TIP3    H157665   4.911   3.487   1.123  2.2489  0.9013  0.7639
12058TIP3    H257666   4.965   3.363   1.191 -0.9144 -0.5368  0.8240
12059TIP3   OH257667   2.591   1.644   1.634 -0.0578  0.1254 -0.0889
12059TIP3    H157668   2.572   1.738   1.644  0.5293  0.2610 -0.2231
12059TIP3    H257669   2.677   1.641   1.594  0.7953 -0.5018  1.6984
12060TIP3   OH257670   6.117   0.336   6.139 -0.5710 -0.6704 -0.5159
12060TIP3    H157671   6.090   0.428   6.146  2.8522  0.4199  0.4784
12060TIP3    H257672   6.122   0.306   6.229 -0.6909 -1.4996 -0.7816
12061TIP3   OH257673   3.941   3.639   4.711  0.3005  0.0509  0.3187
12061TIP3    H157674   4.035   3.657   4.703  0.5133 -1.3279 -0.7945
12061TIP3    H257675   3.916   3.677   4.795  2.2743 -1.2015  1.5578
12062TIP3   OH257676   3.691   1.978  12.486 -0.3407  0.2876  0.0032
12062TIP3    H157677   3.596   1.964  12.491 -0.6979  0.2788 -3.8461
12062TIP3    H257678   3.727   1.890  12.472 -0.0375  0.5276 -0.7548
12063TIP3   OH257679   3.453   2.870   7.959 -0.2940 -0.1613 -0.3633
12063TIP3    H157680   3.418   2.959   7.959 -0.3205 -0.1717 -0.7310
12063TIP3    H257681   3.548   2.880   7.956 -0.3155 -0.1491 -1.2839
12064TIP3   OH257682   6.608   2.204  12.833  0.0156  0.1962  0.1278
12064TIP3    H157683   6.638   2.136  12.893 -0.6272  0.4334  0.7267
12064TIP3    H257684   6.682   2.265  12.827  0.2197 -0.0225  0.3802
12065TIP3   OH257685   0.359   2.133   3.567 -0.4499 -0.8640  0.0918
12065TIP3    H157686   0.438   2.083   3.546  0.4820  0.2476  0.8128
12065TIP3    H257687   0.313   2.080   3.632  0.5931 -0.7492  0.9520
12066TIP3   OH257688   2.171   6.079  16.320 -0.7896 -0.6894  0.0884
12066TIP3    H157689   2.192   6.150  16.259 -1.2051 -0.2380  0.4754
12066TIP3    H257690   2.196   5.999  16.272 -0.6869 -0.3122 -0.4962
12067TIP3   OH257691   2.557   0.013  13.986  0.1067 -0.0328  0.3817
12067TIP3    H157692   2.605   0.064  14.051  0.0421 -1.0421  1.2325
12067TIP3    H257693   2.496  -0.040  14.036 -0.7542  0.0148 -0.5837
12068TIP3   OH257694   4.122   5.501  14.296 -0.1116 -0.4589  0.3790
12068TIP3    H157695   4.076   5.563  14.352  0.9010  1.5033 -0.8614
12068TIP3    H257696   4.168   5.444  14.358 -1.0635 -0.0043  1.5574
12069TIP3   OH257697   2.403   4.191   3.854 -0.0679 -0.1368  0.4009
12069TIP3    H157698   2.459   4.118   3.879  0.3048 -0.3305 -0.9323
12069TIP3    H257699   2.418   4.202   3.760 -1.0252  0.8766  0.3453
12070TIP3   OH257700   1.411   3.248   5.854  0.0607  0.0732  0.1459
12070TIP3    H157701   1.461   3.168   5.864 -1.1385 -1.2181 -2.8113
12070TIP3    H257702   1.336   3.238   5.914  1.1850  0.2008  1.6235
12071TIP3   OH257703   3.403   2.105   3.691  0.1332  0.0480  0.1134
12071TIP3    H157704   3.455   2.054   3.628 -1.3107  0.0300 -1.1344
12071TIP3    H257705   3.392   2.047   3.766  1.2571 -0.2333  0.0714
12072TIP3   OH257706   1.985   3.484   3.411  0.0391  0.3500 -0.0443
12072TIP3    H157707   1.949   3.416   3.469  2.6481 -0.1681  1.1201
12072TIP3    H257708   1.920   3.554   3.414  0.4097  0.8325  4.5209
12073TIP3   OH257709   1.695   1.168  12.029  0.9146  0.1647  0.0373
12073TIP3    H157710   1.678   1.074  12.035  2.4359 -0.0809  1.0408
12073TIP3    H257711   1.717   1.182  11.937 -2.0935  0.0937 -0.7819
12074TIP3   OH257712   0.071   0.357   3.192 -0.8611  0.1329 -0.6311
12074TIP3    H157713  -0.021   0.383   3.201 -0.5644  0.5646  1.6337
12074TIP3    H257714   0.121   0.437   3.209 -0.0204 -0.0167 -2.1619
12075TIP3   OH257715   6.328   6.450  16.500 -0.3536  0.1154  0.4454
12075TIP3    H157716   6.343   6.362  16.533  1.0798  0.2332  0.1771
12075TIP3    H257717   6.408   6.498  16.522 -1.1183  1.3599  0.6104
12076TIP3   OH257718   5.077   0.185  11.683 -0.0518 -0.3384  0.2788
12076TIP3    H157719   5.072   0.107  11.627  0.5770 -1.6818  2.0148
12076TIP3    H257720   5.169   0.212  11.678  0.2630 -1.1356  1.5034
12077TIP3   OH257721   3.596   3.184   2.999 -0.1789 -0.4951 -0.2972
12077TIP3    H157722   3.651   3.248   3.045 -0.3553 -0.0038 -0.7674
12077TIP3    H257723   3.512   3.189   3.043 -0.1712 -0.4591 -0.2868
12078TIP3   OH257724   5.794   2.167   5.902 -0.0948 -0.6129 -0.8376
12078TIP3    H157725   5.876   2.148   5.855 -0.2038  2.2513 -2.3928
12078TIP3    H257726   5.822   2.178   5.993  1.6678  2.0359 -1.5816
12079TIP3   OH257727   1.524   2.499  17.137  0.5602 -0.0319 -0.4535
12079TIP3    H157728   1.455   2.538  17.190  1.7872  0.5356  0.7697
12079TIP3    H257729   1.493   2.510  17.047 -0.4016  1.2741 -0.0002
12080TIP3   OH257730   5.227   0.523   4.203  0.2243 -0.7455 -0.1986
12080TIP3    H157731   5.302   0.531   4.145 -0.6101  1.9619 -1.0383
12080TIP3    H257732   5.240   0.590   4.270 -1.4330 -0.1493 -0.4180
12081TIP3   OH257733   4.719   0.280  15.046 -0.3063 -0.2634  0.1462
12081TIP3    H157734   4.747   0.319  15.129 -1.6557  1.1224  0.0058
12081TIP3    H257735   4.671   0.350  15.002  1.4450 -0.5729 -2.4063
12082TIP3   OH257736   4.520   1.265  15.257 -0.3036  0.8135 -0.0607
12082TIP3    H157737   4.566   1.298  15.335 -0.1919 -0.8603  0.6139
12082TIP3    H257738   4.568   1.185  15.233 -2.3539 -0.5573  0.1887
12083TIP3   OH257739   5.926   0.411  16.167 -0.1948 -0.1938  0.4160
12083TIP3    H157740   5.982   0.355  16.221 -0.2231  0.2637  0.9315
12083TIP3    H257741   5.860   0.444  16.228 -2.1635 -2.1430 -0.5131
12084TIP3   OH257742   5.283   0.930  14.034 -0.6779 -0.5131  0.1858
12084TIP3    H157743   5.269   1.021  14.010 -0.3927 -1.0337 -2.1962
12084TIP3    H257744   5.378   0.918  14.032 -0.7168 -0.8916  0.4000
12085TIP3   OH257745   4.946   4.503  15.303  0.3717 -0.9320 -0.2653
12085TIP3    H157746   4.919   4.438  15.368  0.4670 -0.2216  0.5189
12085TIP3    H257747   4.939   4.587  15.350 -2.3082 -0.0554 -1.9812
12086TIP3   OH257748   4.005   3.066  15.151 -0.6025 -0.1273  0.1333
12086TIP3    H157749   4.056   2.987  15.136  1.5960  1.0530  0.9563
12086TIP3    H257750   4.017   3.086  15.243 -1.4318  0.9596  0.0288
12087TIP3   OH257751   2.833   1.183   2.588 -0.6461 -0.3032 -0.1244
12087TIP3    H157752   2.752   1.151   2.548 -2.7814  2.8231  1.2571
12087TIP3    H257753   2.820   1.278   2.594  3.5684  0.4665 -0.6236
12088TIP3   OH257754   0.891   5.577  13.508 -0.1149  0.1650 -0.3011
12088TIP3    H157755   0.919   5.496  13.464  2.0114 -0.3170  1.7429
12088TIP3    H257756   0.868   5.549  13.596  1.3890  1.8609  0.6863
12089TIP3   OH257757   1.763   4.317   0.178 -0.4448 -0.3218  0.2308
12089TIP3    H157758   1.684   4.339   0.128 -0.6578  0.0614  0.7358
12089TIP3    H257759   1.732   4.301   0.267  0.0984  0.1923  0.5181
12090TIP3   OH257760   5.683   1.779  13.101 -0.2437  0.0461  0.0920
12090TIP3    H157761   5.619   1.795  13.032 -0.1817 -1.6580 -0.4184
12090TIP3    H257762   5.680   1.684  13.115 -0.3157  0.3582  2.5232
12091TIP3   OH257763   0.985   1.969   5.730 -0.4857 -0.7038  0.2377
12091TIP3    H157764   0.896   2.002   5.737 -0.6971 -1.0772 -0.6312
12091TIP3    H257765   1.033   2.038   5.685 -0.5757 -0.9335 -0.2134
12092TIP3   OH257766   4.859   6.447   1.475 -0.3793 -0.2370 -0.8256
12092TIP3    H157767   4.840   6.376   1.414  0.3020 -0.4235 -0.8231
12092TIP3    H257768   4.825   6.417   1.559  1.1516 -1.1650 -0.5182
12093TIP3   OH257769   1.512   6.091   0.758 -0.4336  0.2057  0.0109
12093TIP3    H157770   1.427   6.064   0.722 -0.9284  0.3995  1.0034
12093TIP3    H257771   1.546   6.011   0.800  0.2538 -0.0856 -1.0734
12094TIP3   OH257772   5.876   4.892   6.060  0.6749  0.2484  0.0370
12094TIP3    H157773   5.866   4.831   6.133 -1.8280 -0.2517 -0.6194
12094TIP3    H257774   5.961   4.871   6.022  1.4814 -0.2971  2.0449
12095TIP3   OH257775   1.019   1.708  11.565  0.2134  0.0698  0.1591
12095TIP3    H157776   0.933   1.750  11.570 -0.3156 -1.1094  2.1541
12095TIP3    H257777   1.000   1.616  11.546  1.0973 -0.0675 -0.1047
12096TIP3   OH257778   2.402   5.993  15.432 -0.3556 -0.1378  0.0737
12096TIP3    H157779   2.460   5.916  15.439 -0.7238 -0.6465 -1.8824
12096TIP3    H257780   2.318   5.962  15.466 -0.0227  0.0055  1.0695
12097TIP3   OH257781   3.030   4.635   6.091  0.3006 -0.8516  0.5794
12097TIP3    H157782   3.111   4.670   6.128 -0.5032  1.1990  0.5325
12097TIP3    H257783   2.978   4.713   6.071 -1.7144 -2.1121  0.6902
12098TIP3   OH257784   1.353   3.225  16.373  0.0168 -0.5190 -0.4802
12098TIP3    H157785   1.270   3.218  16.421  0.0921 -0.4866 -0.3443
12098TIP3    H257786   1.399   3.143  16.395  0.6473  0.1064  0.6272
12099TIP3   OH257787   0.385   0.783   3.665 -0.0860 -0.4546  0.0971
12099TIP3    H157788   0.355   0.800   3.575  3.1837  0.1001 -1.0192
12099TIP3    H257789   0.379   0.688   3.675  2.6080 -0.9746 -2.0600
12100TIP3   OH257790   0.953   2.901   3.062 -0.4880 -0.2354 -0.4607
12100TIP3    H157791   0.969   2.956   2.985 -0.4036  1.7735  0.9254
12100TIP3    H257792   0.861   2.873   3.053 -0.0095 -1.4412 -2.0967
12101TIP3   OH257793   3.747   1.628  13.783 -0.1921  0.4825  0.5490
12101TIP3    H157794   3.734   1.650  13.690 -3.0917  1.9761  1.1972
12101TIP3    H257795   3.808   1.694  13.815  0.5762  0.1525 -0.1796
12102TIP3   OH257796   3.553   2.199  12.794  0.2443  0.0085  0.4675
12102TIP3    H157797   3.564   2.253  12.873 -0.7784  0.2193  0.4879
12102TIP3    H257798   3.564   2.261  12.721 -1.5603  0.4427  0.4939
12103TIP3   OH257799   0.336   1.141  11.652  0.1802 -0.7420 -0.8050
12103TIP3    H157800   0.308   1.064  11.701 -0.0077 -0.1952 -0.0371
12103TIP3    H257801   0.263   1.202  11.657  0.6819 -0.1422 -0.6036
12104TIP3   OH257802   5.896   2.976   0.604  0.1994 -0.0516 -0.8700
12104TIP3    H157803   5.959   2.955   0.535  0.5626  0.0447 -0.5700
12104TIP3    H257804   5.901   3.071   0.612  1.6692 -0.2066  0.6865
12105TIP3   OH257805   2.595   4.079   3.176 -0.1342 -0.0146  0.3442
12105TIP3    H157806   2.653   4.004   3.188 -0.6111 -0.5419 -0.4927
12105TIP3    H257807   2.529   4.048   3.113 -0.1540  1.2127 -0.2683
12106TIP3   OH257808   1.240   0.546  16.422 -0.1486 -0.9704 -0.1016
12106TIP3    H157809   1.288   0.587  16.494 -1.4878  0.1097  0.2188
12106TIP3    H257810   1.243   0.611  16.352 -1.3260 -0.7906  0.0067
12107TIP3   OH257811   2.359   1.573   3.223 -0.2553  0.5306 -0.4791
12107TIP3    H157812   2.395   1.484   3.226 -0.3417  0.5081  0.1669
12107TIP3    H257813   2.370   1.601   3.132  1.4717  0.5738 -0.2742
12108TIP3   OH257814   5.957   2.888   5.913  0.1312  0.3019 -0.7908
12108TIP3    H157815   5.901   2.858   5.985 -0.1315  1.3567 -0.5330
12108TIP3    H257816   5.920   2.847   5.835 -0.0831 -0.1961 -0.4345
12109TIP3   OH257817   5.600   3.223   2.605  0.3330  0.6124  0.2822
12109TIP3    H157818   5.691   3.200   2.587  0.2068  0.1202  0.2508
12109TIP3    H257819   5.604   3.308   2.649  0.9260 -0.1695  1.8092
12110TIP3   OH257820   4.390   5.004   1.871 -1.2015 -0.0142 -0.0404
12110TIP3    H157821   4.309   5.029   1.826 -4.1096 -4.7998  1.7821
12110TIP3    H257822   4.377   5.030   1.962  0.0416  0.4433  0.0312
12111TIP3   OH257823   3.857   5.565  13.156  0.0750  0.4377  0.1366
12111TIP3    H157824   3.772   5.530  13.183  0.0121 -0.4683 -1.1353
12111TIP3    H257825   3.914   5.488  13.154  0.7500  0.9325  0.3006
12112TIP3   OH257826   5.229   5.961   5.486  0.6092  0.0292  0.0377
12112TIP3    H157827   5.311   5.913   5.480  0.5491 -0.0686 -0.0125
12112TIP3    H257828   5.221   6.007   5.402  1.5382  1.5597  0.7529
12113TIP3   OH257829   4.924   5.412  12.190  0.0090 -0.3306 -0.3766
12113TIP3    H157830   4.996   5.446  12.243 -0.6535  0.6462 -0.0646
12113TIP3    H257831   4.966   5.364  12.119  0.9486 -0.1727  0.0649
12114TIP3   OH257832   4.365   3.909   3.103  0.4789 -0.3340  0.7317
12114TIP3    H157833   4.392   3.842   3.167  2.1201  0.6570  1.1285
12114TIP3    H257834   4.447   3.942   3.067 -0.3822 -0.2186 -1.2663
12115TIP3   OH257835   1.963   2.820  14.405  0.2262  0.1670  0.0226
12115TIP3    H157836   1.956   2.912  14.428 -1.8478 -0.1174  0.7556
12115TIP3    H257837   1.960   2.773  14.488  0.8210 -0.6031 -0.3647
12116TIP3   OH257838   5.269   5.614  11.785 -0.7732 -0.4807 -0.5349
12116TIP3    H157839   5.299   5.529  11.753  0.2402 -0.2116 -0.3415
12116TIP3    H257840   5.346   5.652  11.827 -1.5377  0.0322  0.4336
12117TIP3   OH257841   0.182   3.841  17.482 -0.1002 -0.0277  0.2974
12117TIP3    H157842   0.186   3.768  17.544 -0.2318  0.1991  0.5822
12117TIP3    H257843   0.159   3.916  17.537  2.0393  0.6389  0.3494
12118TIP3   OH257844   6.119   4.825   3.720  0.4744  0.7838  0.4185
12118TIP3    H157845   6.193   4.794   3.773  0.1146  1.6440  1.4506
12118TIP3    H257846   6.062   4.869   3.782 -0.7089  0.5089 -0.4476
12119TIP3   OH257847   2.857   0.015   3.880 -0.6685 -0.3328  0.1192
12119TIP3    H157848   2.813  -0.048   3.937 -0.5488 -0.5150  0.0120
12119TIP3    H257849   2.922  -0.037   3.832 -1.6718 -0.4648 -1.1707
12120TIP3   OH257850   2.530   1.190  11.472  0.6714 -0.7306 -0.0537
12120TIP3    H157851   2.601   1.142  11.429  2.3866  1.1360  0.5486
12120TIP3    H257852   2.484   1.235  11.400  2.0776  0.5132 -0.2250
12121TIP3   OH257853   0.802   4.445   3.811 -0.4642  0.3813 -0.0373
12121TIP3    H157854   0.766   4.515   3.865 -2.8299 -0.6298 -0.1465
12121TIP3    H257855   0.876   4.411   3.861 -2.5632 -0.5359  2.6977
12122TIP3   OH257856   1.634   4.238   3.247 -0.9690 -0.2412  0.4180
12122TIP3    H157857   1.661   4.234   3.156 -3.4244 -0.5957 -0.3738
12122TIP3    H257858   1.656   4.152   3.283 -1.2330 -0.5905 -0.2405
12123TIP3   OH257859   0.348   5.080   5.866 -0.0350 -0.4900 -0.8242
12123TIP3    H157860   0.404   5.078   5.944  0.4728  0.4668 -1.1532
12123TIP3    H257861   0.333   5.173   5.849  0.2301 -0.6623 -2.1269
12124TIP3   OH257862   5.348   5.059   3.708  0.2574  0.0884  0.0963
12124TIP3    H157863   5.311   5.087   3.791 -0.9899  2.0485 -1.0358
12124TIP3    H257864   5.411   5.128   3.686 -1.2028  0.9271 -1.6905
12125TIP3   OH257865   0.567   4.565   3.575 -0.6848 -0.2256  0.0373
12125TIP3    H157866   0.609   4.479   3.571  0.5389  0.3826 -0.7525
12125TIP3    H257867   0.509   4.567   3.499  2.0586  0.9814 -2.1950
12126TIP3   OH257868   4.046   1.650   3.680 -0.3823 -0.1703 -0.3733
12126TIP3    H157869   4.131   1.606   3.675 -0.6424 -0.5358 -2.5827
12126TIP3    H257870   3.996   1.597   3.742  1.1470  0.4191  1.4785
12127TIP3   OH257871   4.925   0.290  13.909  0.1220 -0.3040  0.0970
12127TIP3    H157872   4.918   0.339  13.991 -0.0250 -0.9097  0.4533
12127TIP3    H257873   4.994   0.226  13.925 -0.4082 -0.9082  0.0005
12128TIP3   OH257874   2.034   6.533  17.392 -0.1730  0.2221 -0.6698
12128TIP3    H157875   2.038   6.547  17.487 -0.2338  1.2877 -0.8150
12128TIP3    H257876   1.943   6.554  17.368  0.2283  1.4111 -1.1777
12129TIP3   OH257877   3.075   1.383  16.601 -0.0589 -0.7161 -0.5378
12129TIP3    H157878   3.135   1.414  16.534 -1.1984 -0.7860 -1.6357
12129TIP3    H257879   3.114   1.412  16.684  0.0232  1.7729 -1.3618
12130TIP3   OH257880   6.246   3.604   3.726  0.5733 -0.1436 -0.1189
12130TIP3    H157881   6.188   3.609   3.802  2.0787 -0.8045  1.1225
12130TIP3    H257882   6.229   3.685   3.678 -0.4928  0.2407  0.8492
12131TIP3   OH257883   1.996   2.081   0.925  0.5450 -0.1618 -0.1981
12131TIP3    H157884   2.091   2.095   0.930  0.6786 -0.7958 -0.7481
12131TIP3    H257885   1.966   2.142   0.858  0.2667  1.3479  1.2532
12132TIP3   OH257886   2.639   2.334  17.006  0.1592  0.6476  0.1074
12132TIP3    H157887   2.683   2.263  17.054  0.7593 -0.0286 -1.3476
12132TIP3    H257888   2.617   2.399  17.073 -1.3140 -1.3202  1.6827
12133TIP3   OH257889   0.314   0.967   6.564  0.0310  0.1492 -0.0905
12133TIP3    H157890   0.275   0.880   6.563 -0.7566  0.3636  2.5996
12133TIP3    H257891   0.290   1.003   6.650  0.1288  3.1195 -1.1762
12134TIP3   OH257892   2.997   0.499   3.444  0.1976 -0.1422 -0.7335
12134TIP3    H157893   2.940   0.430   3.478 -1.3544  1.3651 -0.1380
12134TIP3    H257894   3.074   0.497   3.501  0.2986 -1.5035 -0.8775
12135TIP3   OH257895   5.693   4.734  11.677 -0.1156 -0.3085 -0.4002
12135TIP3    H157896   5.757   4.684  11.627  1.1643 -0.6346  1.4407
12135TIP3    H257897   5.712   4.826  11.655 -1.0604 -0.5047 -2.1601
12136TIP3   OH257898   3.402   0.620   3.379 -0.4473 -0.0731 -0.0924
12136TIP3    H157899   3.342   0.639   3.451  0.2547  0.2623  0.4135
12136TIP3    H257900   3.349   0.572   3.315 -0.7143 -1.7573  1.3199
12137TIP3   OH257901   0.693   5.009   4.772  0.2828 -0.1607  0.0318
12137TIP3    H157902   0.662   4.937   4.827  1.6842 -0.5813  0.3168
12137TIP3    H257903   0.629   5.015   4.701 -0.7762 -0.5483  0.9209
12138TIP3   OH257904   2.513   1.716   0.582 -0.7743  0.3624  0.8481
12138TIP3    H157905   2.467   1.786   0.628 -1.9205 -0.2409  0.6600
12138TIP3    H257906   2.452   1.688   0.514 -0.5985 -1.2336  1.3056
12139TIP3   OH257907   5.221   1.000   5.317 -0.0316 -0.1393 -0.4176
12139TIP3    H157908   5.259   1.073   5.269 -1.7685  0.1759 -1.3751
12139TIP3    H257909   5.210   0.931   5.251  1.2973 -1.1894  0.4072
12140TIP3   OH257910   5.313   1.968   5.958  0.5743 -0.5755  0.1289
12140TIP3    H157911   5.274   2.023   5.890 -1.0225  0.4875  1.8140
12140TIP3    H257912   5.324   2.027   6.033  0.0259 -2.2099  1.5689
12141TIP3   OH257913   0.010   6.422  16.470  0.2418 -0.1441  0.0090
12141TIP3    H157914   0.080   6.471  16.428  0.4573  0.1788  0.7396
12141TIP3    H257915  -0.062   6.484  16.477  1.4996  1.1182  3.7119
12142TIP3   OH257916   3.499   6.572   5.738  0.0931 -0.2771 -0.4037
12142TIP3    H157917   3.530   6.569   5.647 -0.6233  1.7063 -0.7724
12142TIP3    H257918   3.406   6.550   5.732 -0.8181  3.0191 -0.7355
12143TIP3   OH257919   3.943   2.262   5.180 -0.0595 -0.2220  0.0109
12143TIP3    H157920   4.021   2.209   5.161 -0.2441  0.2779 -2.3998
12143TIP3    H257921   3.898   2.269   5.096 -0.2548  3.4373  0.2847
12144TIP3   OH257922   4.436   0.661   0.694  0.2637  0.4322 -0.1347
12144TIP3    H157923   4.496   0.723   0.653  2.4215 -1.5917 -0.2544
12144TIP3    H257924   4.351   0.680   0.655  1.2542  1.8997 -1.7039
12145TIP3   OH257925   5.030   6.658  16.765 -0.1587 -0.1858 -0.3834
12145TIP3    H157926   5.019   6.753  16.767 -0.8700 -0.2655 -0.3670
12145TIP3    H257927   5.050   6.634  16.855  0.2184 -0.0291 -0.4236
12146TIP3   OH257928   5.606   0.859  10.981 -0.1469 -0.0663  0.1749
12146TIP3    H157929   5.691   0.879  10.940 -0.0802  0.7368  0.6838
12146TIP3    H257930   5.594   0.928  11.046 -0.7874 -0.6785  0.7174
12147TIP3   OH257931   5.297   6.576  15.444 -0.7122 -0.1705 -0.4162
12147TIP3    H157932   5.367   6.543  15.388  1.4651 -0.3292  2.2182
12147TIP3    H257933   5.227   6.511  15.435  0.4767 -1.3961 -1.1781
12148TIP3   OH257934   1.060   0.279  11.898  0.1881  0.7959 -0.1315
12148TIP3    H157935   1.103   0.361  11.923  0.7122  0.5243 -0.1302
12148TIP3    H257936   1.085   0.266  11.807  1.2883 -0.0800  0.2619
12149TIP3   OH257937   1.933   3.888  13.526 -0.0422 -0.9553 -0.1970
12149TIP3    H157938   1.965   3.900  13.436  1.1106 -1.8835  0.0753
12149TIP3    H257939   1.949   3.796  13.545  0.2599 -0.6389  1.1699
12150TIP3   OH257940   5.478   6.344   5.593  0.0587 -0.4531 -0.0525
12150TIP3    H157941   5.513   6.361   5.681 -1.0097  1.4799  0.0433
12150TIP3    H257942   5.412   6.411   5.580  0.2225 -0.6720 -2.3822
12151TIP3   OH257943   6.440   5.208  15.284  0.1516  0.1260 -0.0623
12151TIP3    H157944   6.400   5.162  15.358  0.5881  1.0211  0.7650
12151TIP3    H257945   6.366   5.238  15.231 -0.1805 -0.2608  0.1775
12152TIP3   OH257946   2.609   5.982  13.588 -0.2451  0.2897 -0.0986
12152TIP3    H157947   2.606   5.929  13.509 -0.2709 -1.4841  1.0178
12152TIP3    H257948   2.573   6.067  13.563 -2.0371 -0.8326 -1.5411
12153TIP3   OH257949   1.148   1.449   3.380  0.4956 -0.5160  0.0258
12153TIP3    H157950   1.163   1.493   3.297 -2.0533 -0.2002 -0.3183
12153TIP3    H257951   1.134   1.357   3.356 -0.7476 -0.3358  0.0400
12154TIP3   OH257952   5.522   4.045   2.867  0.1066  0.2767  0.2514
12154TIP3    H157953   5.453   4.030   2.803  1.0729 -0.4849 -0.6491
12154TIP3    H257954   5.517   4.139   2.886 -0.8744  0.3130 -0.1253
12155TIP3   OH257955   2.543   1.848  12.459  0.1198 -0.4101 -0.4016
12155TIP3    H157956   2.550   1.805  12.374 -1.3799  1.2488 -1.4472
12155TIP3    H257957   2.450   1.838  12.483  0.7379 -1.9425  1.7179
12156TIP3   OH257958   2.498   4.799   1.949 -0.7781  0.1138  0.1339
12156TIP3    H157959   2.428   4.783   1.887 -0.5552 -1.8490  0.3139
12156TIP3    H257960   2.456   4.794   2.035 -0.3112 -2.2174  0.2952
12157TIP3   OH257961   4.741   0.968  14.150 -0.4291  0.2582 -0.3056
12157TIP3    H157962   4.670   1.001  14.094 -1.1092 -1.1692 -0.3254
12157TIP3    H257963   4.808   0.939  14.088 -0.3241  0.5338 -0.3215
12158TIP3   OH257964   0.400   0.309  15.114 -0.3393  0.1628  0.0034
12158TIP3    H157965   0.412   0.375  15.182 -0.8825  1.3591 -1.0071
12158TIP3    H257966   0.486   0.304  15.071 -0.5670  0.9931 -0.5719
12159TIP3   OH257967   1.365   0.764  14.699  0.1657 -0.3701 -0.3754
12159TIP3    H157968   1.383   0.850  14.737 -1.4255  0.0559 -0.5148
12159TIP3    H257969   1.402   0.701  14.761 -0.0301  0.3784  0.5205
12160TIP3   OH257970   5.957   0.209  12.025  0.2466 -0.5571  0.2778
12160TIP3    H157971   5.947   0.147  12.097  2.3964 -0.4890  0.7007
12160TIP3    H257972   5.907   0.286  12.052  3.0052  0.4973  3.0433
12161TIP3   OH257973   1.921   1.242   2.131  0.1413 -0.3264 -0.0113
12161TIP3    H157974   1.840   1.292   2.138 -0.1462 -0.8840  0.8100
12161TIP3    H257975   1.955   1.263   2.044 -0.0227  1.1967  0.2722
12162TIP3   OH257976   5.028   4.865   4.607  0.3518  0.6405  0.1372
12162TIP3    H157977   5.105   4.809   4.616  0.0586  0.3943  1.1102
12162TIP3    H257978   5.034   4.927   4.680  0.0116  1.0951 -0.2107
12163TIP3   OH257979   4.737   5.159   6.758 -0.6630 -0.4439 -0.3153
12163TIP3    H157980   4.823   5.117   6.753 -1.5035 -2.2083 -0.6543
12163TIP3    H257981   4.745   5.220   6.832  1.3792  0.7310 -1.3839
12164TIP3   OH257982   3.920   2.603  17.396  0.5671 -0.2928 -0.1949
12164TIP3    H157983   3.900   2.542  17.468 -1.2891 -0.3483 -0.7001
12164TIP3    H257984   3.870   2.569  17.322  0.6672  1.0327 -0.8937
12165TIP3   OH257985   4.749   3.804  16.731  0.1003 -0.3650 -0.0978
12165TIP3    H157986   4.818   3.769  16.675 -1.7405  1.0940 -3.6047
12165TIP3    H257987   4.770   3.897  16.739 -0.4891 -0.2618  0.3266
12166TIP3   OH257988   0.255   2.216   2.450  0.1532 -0.3222  0.0000
12166TIP3    H157989   0.289   2.282   2.390 -0.9465  0.4646  0.2100
12166TIP3    H257990   0.279   2.249   2.537 -0.4487 -0.1486  0.1081
12167TIP3   OH257991   1.834   2.852  16.112  0.3112  0.0070  0.0994
12167TIP3    H157992   1.781   2.924  16.079 -0.3514  0.2636  1.6500
12167TIP3    H257993   1.772   2.781  16.126  0.8439 -0.6454 -0.6974
12168TIP3   OH257994   1.339   4.907   5.495  0.3158 -0.2708 -0.0580
12168TIP3    H157995   1.418   4.911   5.440  0.7312  0.5492  0.5690
12168TIP3    H257996   1.373   4.908   5.585 -0.4368  1.6350  0.2462
12169TIP3   OH257997   0.687   2.903   3.387  0.0114 -0.2145  0.4051
12169TIP3    H157998   0.753   2.949   3.438 -0.0253 -0.5779  0.7810
12169TIP3    H257999   0.605   2.915   3.436  0.1414 -1.3537  0.9520
12170TIP3   OH258000   5.479   2.831  13.775  0.5836  0.1784  0.0229
12170TIP3    H158001   5.466   2.815  13.869 -0.1726 -0.7607 -0.2287
12170TIP3    H258002   5.438   2.915  13.759 -0.6637 -0.3675  0.2550
12171TIP3   OH258003   4.711   2.459   4.510 -0.0486 -0.2703  0.0500
12171TIP3    H158004   4.659   2.533   4.480 -0.4589 -0.7640 -0.4950
12171TIP3    H258005   4.749   2.487   4.593  2.2543  1.6981 -1.5191
12172TIP3   OH258006   3.204   5.483   5.597  0.4728  1.0611  0.4146
12172TIP3    H158007   3.198   5.513   5.688 -1.3598 -1.7375  1.3727
12172TIP3    H258008   3.167   5.554   5.545  0.1374  2.1248  2.0414
12173TIP3   OH258009   3.493   2.173   2.699  0.1553 -0.0591  0.1867
12173TIP3    H158010   3.522   2.217   2.779  0.3553 -0.3341  0.2663
12173TIP3    H258011   3.555   2.202   2.632  0.0496  0.0894  0.1519
12174TIP3   OH258012   5.163   6.490   2.526 -0.4603  0.1157 -0.0599
12174TIP3    H158013   5.092   6.529   2.475 -0.9839  2.2710  2.1446
12174TIP3    H258014   5.176   6.550   2.599  2.6573 -0.9788  0.4394
12175TIP3   OH258015   4.400   1.715  13.643  0.3993  0.3805 -0.3189
12175TIP3    H158016   4.342   1.694  13.569 -0.9543  1.8305  0.2707
12175TIP3    H258017   4.343   1.760  13.705  2.1282  1.5980  0.4368
12176TIP3   OH258018   4.924   0.266   0.287  0.3899  0.2308  0.3077
12176TIP3    H158019   4.847   0.323   0.287  0.4563  0.3690  1.9750
12176TIP3    H258020   4.986   0.310   0.229 -0.6838  0.2532 -0.8460
12177TIP3   OH258021   3.547   1.502  12.500 -0.0105 -0.2804 -0.2251
12177TIP3    H158022   3.483   1.540  12.439  0.2130 -1.3527 -1.1487
12177TIP3    H258023   3.501   1.501  12.585 -0.4274  0.9535 -0.4169
12178TIP3   OH258024   3.081   3.011   2.962  0.8273 -0.1862  0.1376
12178TIP3    H158025   3.023   2.952   2.913  1.0067  0.4419 -0.8611
12178TIP3    H258026   3.068   3.097   2.922 -0.1137  0.6737  2.1755
12179TIP3   OH258027   1.125   5.080   0.099  0.4652 -0.0740 -0.1001
12179TIP3    H158028   1.149   5.001   0.051  2.5230 -0.3606  1.2950
12179TIP3    H258029   1.145   5.060   0.190 -0.0770  1.6712  0.4467
12180TIP3   OH258030   6.284   0.032   6.593 -0.1014 -0.9560 -0.1455
12180TIP3    H158031   6.254  -0.044   6.543  0.4455 -1.4989  0.3373
12180TIP3    H258032   6.378   0.018   6.604  0.5117  1.0419 -2.1982
12181TIP3   OH258033   6.062   4.430   4.672 -0.2000 -0.4696 -0.0949
12181TIP3    H158034   6.055   4.524   4.687  0.6753 -0.0751 -1.9717
12181TIP3    H258035   5.992   4.392   4.726  1.2124  0.9403  2.9811
12182TIP3   OH258036   6.131   3.750  11.632 -0.4520 -0.0325 -0.1169
12182TIP3    H158037   6.156   3.659  11.614 -1.5080 -0.6522  1.3346
12182TIP3    H258038   6.152   3.797  11.552  2.3492 -1.0736 -0.1047
12183TIP3   OH258039   6.198   1.576   4.730  0.2779 -0.0927  0.2497
12183TIP3    H158040   6.165   1.630   4.802 -0.3354  0.4413 -0.4307
12183TIP3    H258041   6.247   1.636   4.674  1.0986 -0.5837  0.4061
12184TIP3   OH258042   6.541   5.994   5.299  0.2202 -0.8941 -0.2125
12184TIP3    H158043   6.623   5.968   5.257 -0.0917 -1.6783 -0.3431
12184TIP3    H258044   6.555   5.977   5.392  0.8535  0.6940  0.0102
12185TIP3   OH258045   5.200   1.884  14.460 -1.3436  0.5387 -0.0291
12185TIP3    H158046   5.263   1.856  14.527 -0.2488 -0.1613 -1.3121
12185TIP3    H258047   5.175   1.972  14.487  0.9631  1.2478  0.0147
12186TIP3   OH258048   4.656   6.049   5.918  0.4388 -0.0231 -0.4370
12186TIP3    H158049   4.594   6.122   5.911 -1.2732 -1.5642 -2.8744
12186TIP3    H258050   4.687   6.053   6.009 -2.3050  1.5911  0.5676
12187TIP3   OH258051   5.925   0.636   0.853 -0.3162  0.3228 -0.1259
12187TIP3    H158052   5.956   0.725   0.871  3.2977 -0.5399 -1.1828
12187TIP3    H258053   5.987   0.603   0.787 -1.1044 -3.2016  0.7292
12188TIP3   OH258054   3.965   3.979   3.692 -0.2476  0.7511 -0.3995
12188TIP3    H158055   3.901   3.954   3.626 -0.4447 -0.3439  0.1799
12188TIP3    H258056   3.938   3.932   3.771  0.0714  1.8998  0.4301
12189TIP3   OH258057   3.881   5.267   1.906 -0.0007  0.4084 -0.2305
12189TIP3    H158058   3.865   5.174   1.925 -1.3459  0.7902  0.7157
12189TIP3    H258059   3.860   5.276   1.814 -0.9609 -0.0270 -0.0688
12190TIP3   OH258060   0.241   0.820   4.749 -0.1736 -0.2401  0.9105
12190TIP3    H158061   0.246   0.741   4.696 -3.1045 -0.8695  1.3861
12190TIP3    H258062   0.268   0.890   4.690  3.0467 -1.5522  0.6536
12191TIP3   OH258063   0.499   2.112  14.213  0.1436  0.2811 -0.2372
12191TIP3    H158064   0.465   2.108  14.302  1.3213 -0.1944  0.1974
12191TIP3    H258065   0.516   2.205  14.198 -1.3919  0.5442 -0.4945
12192TIP3   OH258066   3.954   0.478   2.050  0.4092  0.3190  0.0133
12192TIP3    H158067   3.942   0.493   1.957 -0.9083  0.6236  0.2168
12192TIP3    H258068   3.940   0.384   2.061  2.9466 -0.1764 -0.4129
12193TIP3   OH258069   2.928   0.032  15.832  0.1252 -0.6162  0.1103
12193TIP3    H158070   2.979   0.040  15.913 -0.2285  1.7358  0.1782
12193TIP3    H258071   2.847   0.079  15.850 -0.9360 -1.9771 -0.9103
12194TIP3   OH258072   3.564   1.528   2.416  0.5101 -0.1628 -0.0727
12194TIP3    H158073   3.609   1.444   2.414  1.5526  0.3706  0.0113
12194TIP3    H258074   3.567   1.555   2.508  0.0276 -0.1095 -0.0685
12195TIP3   OH258075   4.174   6.520   4.257 -0.2721  0.6999  0.4230
12195TIP3    H158076   4.177   6.612   4.233  2.6874  0.4762 -0.5116
12195TIP3    H258077   4.190   6.518   4.351 -0.8352  1.1266  0.5321
12196TIP3   OH258078   4.696   0.217   5.016 -0.1905 -0.3444 -0.5333
12196TIP3    H158079   4.702   0.264   5.100 -0.2108  0.4129 -0.9503
12196TIP3    H258080   4.635   0.269   4.964  0.7571 -0.1275 -1.4614
12197TIP3   OH258081   0.247   0.244  12.485 -0.1352  0.4946  0.1674
12197TIP3    H158082   0.294   0.301  12.425 -0.1304  1.8986  1.4576
12197TIP3    H258083   0.305   0.169  12.498 -0.3692 -0.1150 -1.9592
12198TIP3   OH258084   4.248   3.957   4.776 -0.1426  0.1225  0.1435
12198TIP3    H158085   4.337   3.961   4.741  0.3882 -0.2062  1.4089
12198TIP3    H258086   4.192   3.988   4.704  0.7780 -1.6223 -1.4350
12199TIP3   OH258087   4.042   0.133   5.981 -0.0501  0.0992  0.0844
12199TIP3    H158088   4.072   0.138   6.072 -0.3596  0.1030  0.1870
12199TIP3    H258089   4.105   0.073   5.939 -0.2267 -0.3429  0.4337
12200TIP3   OH258090   4.247   2.326  15.842 -0.2134  0.3890  0.1011
12200TIP3    H158091   4.339   2.354  15.837 -0.2640  0.8614  1.3851
12200TIP3    H258092   4.215   2.332  15.752  1.7211 -2.3800 -0.9002
12201TIP3   OH258093   4.242   1.797   3.853  0.3147  0.1491  0.0885
12201TIP3    H158094   4.271   1.847   3.776  2.2215  0.3314  0.8696
12201TIP3    H258095   4.232   1.708   3.820 -1.7853  0.7118 -1.0007
12202TIP3   OH258096   6.621   0.801  15.521  0.2651  0.0178  0.3680
12202TIP3    H158097   6.540   0.757  15.548  0.4832 -0.8558 -0.3491
12202TIP3    H258098   6.687   0.731  15.521  0.7544  0.4725 -0.1911
12203TIP3   OH258099   6.614   4.667   1.771 -0.6331 -0.4340 -0.2395
12203TIP3    H158100   6.629   4.677   1.677 -2.1454  2.2155 -0.3218
12203TIP3    H258101   6.619   4.757   1.805 -1.3649 -1.1750  1.9972
12204TIP3   OH258102   1.523   6.295   5.129 -0.4006  0.1042  0.3901
12204TIP3    H158103   1.455   6.322   5.190 -0.4172  1.1956 -0.0829
12204TIP3    H258104   1.520   6.360   5.059  0.2586 -0.5731 -0.2936
12205TIP3   OH258105   4.016   6.098   3.400  0.2451  1.1109  0.0313
12205TIP3    H158106   4.084   6.165   3.409  1.8338 -0.3917 -0.1169
12205TIP3    H258107   4.065   6.016   3.391 -1.6213 -0.1031  0.3990
12206TIP3   OH258108   4.967   4.381   3.447  0.2339  0.0712 -0.1413
12206TIP3    H158109   5.029   4.333   3.392  0.9593 -0.0236  0.7295
12206TIP3    H258110   4.882   4.367   3.406  0.4341 -1.8817  0.0281
12207TIP3   OH258111   2.858   3.815   0.904  0.1522 -0.1498  0.6809
12207TIP3    H158112   2.810   3.855   0.976 -2.6195  0.5182 -1.3537
12207TIP3    H258113   2.882   3.889   0.848 -0.7484 -0.8844 -0.7236
12208TIP3   OH258114   6.762   1.652   6.324  0.0789  0.1353 -0.2756
12208TIP3    H158115   6.799   1.615   6.404  1.4564  0.6943 -0.6150
12208TIP3    H258116   6.702   1.720   6.354  0.3125  0.0940  0.2921
12209TIP3   OH258117   6.707   4.780  14.575 -0.0809 -0.2348  0.0452
12209TIP3    H158118   6.685   4.828  14.656 -1.7703  1.9041 -1.5307
12209TIP3    H258119   6.625   4.738  14.550  0.0815  0.1162 -1.1346
12210TIP3   OH258120   2.512   1.572  13.535 -0.5640  0.3912  0.6408
12210TIP3    H158121   2.574   1.508  13.500  1.4637  1.4259  2.1758
12210TIP3    H258122   2.532   1.652  13.488 -3.5769 -0.0890 -1.8070
12211TIP3   OH258123   2.145   4.807  14.191  0.3801 -0.8296 -0.3529
12211TIP3    H158124   2.163   4.780  14.281  1.9673 -0.9975 -0.7017
12211TIP3    H258125   2.196   4.888  14.179  0.7452 -1.1881 -1.3091
12212TIP3   OH258126   0.400   5.815  12.091 -0.4119  0.0239 -0.0682
12212TIP3    H158127   0.450   5.877  12.038 -0.9225  2.0974  1.7195
12212TIP3    H258128   0.325   5.866  12.123 -1.4670 -1.8471  0.5949
12213TIP3   OH258129   1.117   1.423   2.220 -0.0943 -0.2385 -0.2899
12213TIP3    H158130   1.083   1.513   2.225  0.3492  0.2651 -3.7113
12213TIP3    H258131   1.046   1.368   2.253 -0.5072  1.3005  1.5594
12214TIP3   OH258132   3.848   1.202   1.379 -0.5235 -0.0737 -0.5602
12214TIP3    H158133   3.905   1.242   1.314 -2.2983  0.5300 -1.8249
12214TIP3    H258134   3.837   1.270   1.446 -1.3726  0.5998 -1.3559
12215TIP3   OH258135   3.945   0.997  11.615  0.3774  0.0796  0.1890
12215TIP3    H158136   3.932   1.091  11.610  2.6249  0.3944 -0.7932
12215TIP3    H258137   4.029   0.986  11.660  1.0645 -1.3505 -1.3272
12216TIP3   OH258138   0.017   2.606  11.625 -0.1023 -0.1303  0.3133
12216TIP3    H158139   0.043   2.515  11.640  0.9898  0.2238  0.7003
12216TIP3    H258140   0.095   2.657  11.648 -0.8874  0.9425  0.6914
12217TIP3   OH258141   3.436   6.535  16.789  0.2014  0.8023  0.3241
12217TIP3    H158142   3.362   6.595  16.780 -0.3638  0.5081  2.3997
12217TIP3    H258143   3.513   6.588  16.771 -0.4521  1.2661 -1.2518
12218TIP3   OH258144   4.732   3.740   3.262 -0.0847  0.1977 -0.2131
12218TIP3    H158145   4.740   3.785   3.346  1.8582 -0.4750  0.0144
12218TIP3    H258146   4.790   3.664   3.270 -1.1395 -0.8111 -1.5827
12219TIP3   OH258147   5.790   2.021  14.764  0.1118  0.0969 -0.7041
12219TIP3    H158148   5.836   2.060  14.838  2.0453  0.0727 -1.8329
12219TIP3    H258149   5.712   1.980  14.803  1.7887 -1.1799  1.5608
12220TIP3   OH258150   3.949   3.897   0.836  0.3200 -0.4053  0.1182
12220TIP3    H158151   3.955   3.888   0.741 -1.2174  1.6845 -0.2383
12220TIP3    H258152   3.872   3.845   0.860  0.6850 -0.9007  0.2461
12221TIP3   OH258153   1.919   4.531  17.233 -0.0314  0.5714  0.3045
12221TIP3    H158154   1.980   4.462  17.207  0.7380  1.0609  0.7397
12221TIP3    H258155   1.834   4.488  17.239  0.3917 -0.2778  0.3422
12222TIP3   OH258156   4.572   0.158   0.291  0.3595 -0.4024  0.0213
12222TIP3    H158157   4.496   0.189   0.341 -1.3744 -1.9039 -1.5437
12222TIP3    H258158   4.589   0.229   0.229 -0.1394 -0.2959 -0.0015
12223TIP3   OH258159   3.523   0.469  13.858  0.2031 -0.0848  0.3974
12223TIP3    H158160   3.585   0.406  13.895  0.6151 -1.3006 -2.1708
12223TIP3    H258161   3.566   0.554  13.870  1.4431 -0.6934  0.4338
12224TIP3   OH258162   0.620   1.461  15.586  0.1370  0.9806 -0.1522
12224TIP3    H158163   0.526   1.458  15.600  0.3461 -0.9106  1.2374
12224TIP3    H258164   0.642   1.375  15.550  1.3509  1.3029 -0.2398
12225TIP3   OH258165   4.789   6.708   2.388  0.3793 -0.3036  0.0535
12225TIP3    H158166   4.824   6.765   2.320  0.3426 -0.3865 -0.0353
12225TIP3    H258167   4.739   6.641   2.341  0.3434 -0.3544  0.1618
12226TIP3   OH258168   2.336   4.323   4.791 -0.4568 -0.0369 -0.6792
12226TIP3    H158169   2.257   4.272   4.774  0.4160 -0.6522 -3.2193
12226TIP3    H258170   2.407   4.259   4.791  0.1086  0.4826  1.7459
12227TIP3   OH258171   4.019   2.783   2.169  0.1175 -0.2570  0.5291
12227TIP3    H158172   4.110   2.774   2.199  0.3385  1.8509  0.6541
12227TIP3    H258173   4.024   2.844   2.095 -0.6748 -3.7152 -2.6357
12228TIP3   OH258174   1.192   0.725  12.696  0.0511 -0.4011  0.0897
12228TIP3    H158175   1.215   0.635  12.673 -0.7924 -0.4108 -0.7500
12228TIP3    H258176   1.210   0.730  12.790 -0.1701 -1.5348  0.2136
12229TIP3   OH258177   4.157   1.007  16.271  0.3121 -0.2110 -0.1912
12229TIP3    H158178   4.083   0.989  16.330 -0.2867  1.5348 -0.3618
12229TIP3    H258179   4.187   0.920  16.244 -0.2345 -1.0228  1.6381
12230TIP3   OH258180   6.103   3.840   2.606 -0.0973  0.1041  0.4757
12230TIP3    H158181   6.188   3.865   2.640  1.7251 -3.2490 -1.1423
12230TIP3    H258182   6.076   3.916   2.553  2.4501  0.8374  0.0810
12231TIP3   OH258183   3.651   5.570  14.973  0.5162 -0.0308 -0.4060
12231TIP3    H158184   3.580   5.508  14.986  0.7003  0.1051  1.6354
12231TIP3    H258185   3.626   5.622  14.897 -2.2519  0.8966  1.0130
12232TIP3   OH258186   2.511   5.695   3.042 -0.3944  0.4032  0.2889
12232TIP3    H158187   2.424   5.679   3.005 -0.8646  0.9482  1.1363
12232TIP3    H258188   2.540   5.610   3.075 -0.0220 -0.0706 -1.1666
12233TIP3   OH258189   2.032   4.770   2.974  0.1107  0.1533  0.4126
12233TIP3    H158190   2.075   4.685   2.970 -0.0729  0.0933 -0.2628
12233TIP3    H258191   2.066   4.818   2.899  0.6675  0.8972  1.1238
12234TIP3   OH258192   0.368   1.353  17.437  0.5917 -0.2897  0.2449
12234TIP3    H158193   0.363   1.344  17.532  0.6869  0.2127  0.3042
12234TIP3    H258194   0.437   1.292  17.411  0.6409 -0.3499  0.5097
12235TIP3   OH258195   6.316   2.685   5.358  0.8994  0.5070  0.4998
12235TIP3    H158196   6.340   2.675   5.450  1.0671  1.2904  0.5474
12235TIP3    H258197   6.269   2.768   5.355  1.2248  0.6628 -0.1905
12236TIP3   OH258198   1.076   2.997  11.787  0.7113  0.0090 -0.1376
12236TIP3    H158199   1.106   2.906  11.792  0.1860 -0.1179  1.3206
12236TIP3    H258200   1.120   3.033  11.711  1.1024 -1.4098 -0.6136
12237TIP3   OH258201   6.047   1.247  17.281  0.3999 -0.5336 -0.3750
12237TIP3    H158202   5.958   1.274  17.259  0.1993 -0.9611 -0.0896
12237TIP3    H258203   6.099   1.272  17.204 -0.0723 -0.8203 -0.7945
12238TIP3   OH258204   5.039   3.504  11.251  0.1051 -0.1235  0.1636
12238TIP3    H158205   4.959   3.454  11.235 -0.0352  0.5640 -1.4346
12238TIP3    H258206   5.021   3.554  11.330 -1.0396  0.0104 -0.1698
12239TIP3   OH258207   6.444   3.178  15.721 -0.5103  0.2347 -0.4141
12239TIP3    H158208   6.536   3.182  15.747 -0.4669  0.7315 -0.6453
12239TIP3    H258209   6.418   3.269  15.709 -1.4810  0.2090  1.2168
12240TIP3   OH258210   3.574   6.352   6.325 -0.3986 -0.3449  0.0094
12240TIP3    H158211   3.485   6.386   6.329 -0.6945 -1.1162  0.0677
12240TIP3    H258212   3.627   6.420   6.367 -1.0546 -0.2091  0.6403
12241TIP3   OH258213   4.613   5.751  10.733 -0.2034 -0.8806  0.4193
12241TIP3    H158214   4.629   5.728  10.642 -1.0561 -0.3785  0.1398
12241TIP3    H258215   4.681   5.703  10.782 -1.4207 -3.3532 -0.1912
12242TIP3   OH258216   1.093   2.195   1.574  0.7709  0.0855  0.3274
12242TIP3    H158217   1.076   2.100   1.571  2.1958 -0.2669  1.7554
12242TIP3    H258218   1.022   2.231   1.627  0.1662 -0.1589 -0.3037
12243TIP3   OH258219   1.750   4.198   4.433  0.3861 -0.4554  0.2566
12243TIP3    H158220   1.766   4.105   4.413 -1.6943 -0.5970 -1.0269
12243TIP3    H258221   1.739   4.239   4.348  2.0008  1.1617  0.7814
12244TIP3   OH258222   0.452   2.095   0.344 -0.4747  0.3036  0.2290
12244TIP3    H158223   0.358   2.102   0.358 -0.7037  0.0380 -1.0670
12244TIP3    H258224   0.489   2.171   0.388 -1.2044 -0.0012  1.4177
12245TIP3   OH258225   2.893   0.024   1.116 -0.0225 -0.4874  0.5724
12245TIP3    H158226   2.802  -0.007   1.118  0.4604 -1.9806  2.1203
12245TIP3    H258227   2.890   0.109   1.159 -0.7922 -0.2096 -0.0115
12246TIP3   OH258228   0.206   5.421   1.544 -0.6518 -0.7219 -0.3238
12246TIP3    H158229   0.150   5.440   1.468 -0.5911 -0.1626 -0.2370
12246TIP3    H258230   0.269   5.357   1.512 -1.9012 -2.0611 -0.1682
12247TIP3   OH258231   3.514   2.801  14.146 -0.4017  0.1403 -0.0108
12247TIP3    H158232   3.461   2.853  14.085  2.2293  2.7228 -0.3251
12247TIP3    H258233   3.474   2.816  14.231 -0.6016  1.5212 -0.3238
12248TIP3   OH258234   2.479   0.806   5.712  0.8084  0.3219 -0.0991
12248TIP3    H158235   2.547   0.747   5.746  0.8304  0.5813  0.3130
12248TIP3    H258236   2.423   0.823   5.788  0.2539  0.0748 -0.4497
12249TIP3   OH258237   1.162   4.446   5.776 -0.4779  0.3464  0.4052
12249TIP3    H158238   1.231   4.500   5.737  0.9346 -1.1704  0.7098
12249TIP3    H258239   1.157   4.369   5.719 -1.4583  0.1087  0.7862
12250TIP3   OH258240   0.566   6.424   1.492 -0.1582  0.4642 -0.1785
12250TIP3    H158241   0.554   6.461   1.580  0.1634  2.3362 -0.8662
12250TIP3    H258242   0.621   6.488   1.447  1.1600 -1.3246 -1.2279
12251TIP3   OH258243   2.558   2.430   6.165  0.2685  0.3604 -0.2827
12251TIP3    H158244   2.467   2.403   6.151  0.6859 -1.2726 -0.0119
12251TIP3    H258245   2.551   2.508   6.220 -1.0074  1.0969 -1.4450
12252TIP3   OH258246   2.054   3.672  11.977  0.1677 -0.5476 -0.3117
12252TIP3    H158247   2.071   3.689  12.070  0.1067  0.0945 -0.4116
12252TIP3    H258248   2.141   3.661  11.938  0.1521 -2.2058  0.0583
12253TIP3   OH258249   4.466   2.816  15.325 -0.5632  0.5447 -0.0254
12253TIP3    H158250   4.458   2.893  15.269 -0.8635  0.9223  0.5272
12253TIP3    H258251   4.537   2.838  15.386 -0.7670  0.4559  0.2439
12254TIP3   OH258252   5.286   2.802  15.002 -0.0205  0.1308 -0.1420
12254TIP3    H158253   5.195   2.812  15.028 -0.4955 -0.8886 -1.2804
12254TIP3    H258254   5.292   2.848  14.918  0.3415 -0.3345 -0.3773
12255TIP3   OH258255   5.354   4.933  14.559  0.6298  0.2401 -0.1088
12255TIP3    H158256   5.423   4.913  14.496 -0.3152 -1.7605 -0.5995
12255TIP3    H258257   5.385   4.896  14.642  0.7133  0.4896 -0.0291
12256TIP3   OH258258   4.135   5.565   2.855  0.5216  0.0973 -0.0038
12256TIP3    H158259   4.172   5.602   2.775  0.4695  0.7164  0.2520
12256TIP3    H258260   4.046   5.539   2.831  0.1004  1.3443  0.1355
12257TIP3   OH258261   4.260   4.999  12.641 -0.1935  0.1573 -0.3215
12257TIP3    H158262   4.171   5.030  12.625  0.0760  0.8977 -0.3923
12257TIP3    H258263   4.312   5.078  12.649  0.0807 -0.2001  1.9766
12258TIP3   OH258264   0.027   6.737   4.833 -0.1511 -0.1871 -1.1097
12258TIP3    H158265   0.074   6.661   4.868 -0.4825 -1.0152 -2.3990
12258TIP3    H258266  -0.056   6.738   4.881  1.2517  1.5951  1.5694
12259TIP3   OH258267   5.787   6.314   2.509  0.4620  0.6143 -0.1699
12259TIP3    H158268   5.803   6.343   2.599 -1.1570 -2.1382  1.1452
12259TIP3    H258269   5.872   6.322   2.466  1.5171  1.1900  1.8676
12260TIP3   OH258270   4.442   3.321   4.646 -0.8424  0.3228  0.2779
12260TIP3    H158271   4.452   3.267   4.567  0.4827 -0.0948  0.7049
12260TIP3    H258272   4.523   3.371   4.651 -0.7153  0.0171  1.6044
12261TIP3   OH258273   4.249   2.369   4.700  0.0521 -0.4548  0.1563
12261TIP3    H158274   4.282   2.393   4.614 -3.4520  0.7796 -1.0228
12261TIP3    H258275   4.206   2.285   4.688 -0.9223 -0.0299  0.5216
12262TIP3   OH258276   1.443   3.992   5.128  0.3004  0.0729 -0.5318
12262TIP3    H158277   1.537   3.987   5.113  0.0722  1.0226 -2.6333
12262TIP3    H258278   1.432   4.067   5.187  0.7995  0.7012 -1.2210
12263TIP3   OH258279   3.469   5.857   0.754 -0.3510 -0.1055  0.1990
12263TIP3    H158280   3.477   5.803   0.832 -0.5384 -1.3253 -0.6018
12263TIP3    H258281   3.454   5.795   0.683 -1.0117  1.0282 -0.6926
12264TIP3   OH258282   1.736   3.774   3.124 -0.3852  0.0911 -0.0551
12264TIP3    H158283   1.702   3.722   3.052 -0.5325  0.4577 -0.2540
12264TIP3    H258284   1.828   3.788   3.102 -0.3391 -0.1079  0.0125
12265TIP3   OH258285   2.331   0.723  16.839 -0.3014  0.1087  0.3686
12265TIP3    H158286   2.283   0.692  16.916  2.4074 -0.9353  1.7602
12265TIP3    H258287   2.283   0.687  16.764 -2.0419 -0.2676  1.6152
12266TIP3   OH258288   3.799   2.002   2.772  0.4758  0.6397  0.4143
12266TIP3    H158289   3.839   2.064   2.712 -0.4129  0.4391 -0.4116
12266TIP3    H258290   3.811   1.917   2.731  1.2951  0.2963  1.3232
12267TIP3   OH258291   2.451   0.027  14.451 -0.7293  0.2013  0.4403
12267TIP3    H158292   2.521   0.077  14.492 -0.7275 -0.2030  0.9426
12267TIP3    H258293   2.371   0.073  14.476 -0.6415  0.6516 -0.1172
12268TIP3   OH258294   0.244   1.686  14.034  0.5172 -0.2801  0.1528
12268TIP3    H158295   0.195   1.709  13.955  1.1775 -0.7807 -0.4182
12268TIP3    H258296   0.292   1.765  14.057  0.7321 -0.2882 -0.2627
12269TIP3   OH258297   3.355   5.407   3.310 -0.0200 -0.2382 -0.0146
12269TIP3    H158298   3.267   5.374   3.324 -0.6979  1.1419 -0.8300
12269TIP3    H258299   3.369   5.470   3.380 -0.5702  1.1767 -1.1209
12270TIP3   OH258300   3.237   4.135  15.603 -0.6163 -0.2465  0.1014
12270TIP3    H158301   3.191   4.218  15.619  1.1435  0.6684  0.7349
12270TIP3    H258302   3.254   4.135  15.509 -0.7743  0.0345  0.0714
12271TIP3   OH258303   4.123   2.630   3.522  0.4939 -0.1145 -0.1579
12271TIP3    H158304   4.043   2.620   3.574 -0.0382  0.4168 -0.8601
12271TIP3    H258305   4.188   2.661   3.585  0.2587 -0.9115  0.4959
12272TIP3   OH258306   2.554   2.961   3.512  0.5174 -0.4981 -0.1193
12272TIP3    H158307   2.595   3.047   3.502  0.6596 -0.2965  1.8470
12272TIP3    H258308   2.609   2.903   3.460 -0.2802  0.7372 -2.5154
12273TIP3   OH258309   1.366   6.689  15.817 -0.1304  0.0024 -0.2916
12273TIP3    H158310   1.306   6.635  15.766 -1.6291  0.1894  1.1578
12273TIP3    H258311   1.433   6.629  15.848 -0.8574 -0.7014 -0.0599
12274TIP3   OH258312   3.514   6.122   2.884  0.3854 -0.2758 -0.0565
12274TIP3    H158313   3.426   6.123   2.921 -0.0481 -0.8133 -1.0326
12274TIP3    H258314   3.544   6.213   2.892 -1.0500  0.3867 -1.4862
12275TIP3   OH258315   0.654   2.345  16.900 -0.2650 -0.3333 -0.1452
12275TIP3    H158316   0.583   2.296  16.941  0.7017  1.0197  3.5200
12275TIP3    H258317   0.648   2.433  16.938  2.1504  0.4084 -1.2625
12276TIP3   OH258318   4.472   3.857   5.853  0.2615 -0.2377  0.4493
12276TIP3    H158319   4.543   3.811   5.899  0.1610 -0.6131  0.2262
12276TIP3    H258320   4.414   3.788   5.822 -0.5957  0.1020  1.2540
12277TIP3   OH258321   1.321   4.295   2.362 -0.4546  0.0939  0.3729
12277TIP3    H158322   1.226   4.279   2.362 -0.5256  0.5094  0.4778
12277TIP3    H258323   1.359   4.209   2.345 -0.8817  0.1234 -0.8382
12278TIP3   OH258324   1.346   1.084  14.087  0.3457 -0.6143  0.1641
12278TIP3    H158325   1.253   1.062  14.080 -0.0266  1.0858 -0.7990
12278TIP3    H258326   1.391   1.017  14.035 -0.1915 -2.0623  1.4694
12279TIP3   OH258327   3.781   5.760   1.198 -0.1747 -0.1041 -0.4626
12279TIP3    H158328   3.849   5.783   1.262  0.8201  1.7499 -2.0642
12279TIP3    H258329   3.713   5.717   1.250  0.3453  1.7453  1.9459
12280TIP3   OH258330   3.323   3.337   4.216  0.1169 -0.4273 -0.3611
12280TIP3    H158331   3.306   3.420   4.171  1.2739 -0.3212 -0.6367
12280TIP3    H258332   3.375   3.361   4.292 -2.1666 -0.5567  1.3442
12281TIP3   OH258333   0.045   5.395   4.040 -0.2126 -0.3299  0.6352
12281TIP3    H158334   0.015   5.314   4.000 -2.2943 -0.0964  1.6014
12281TIP3    H258335  -0.003   5.464   3.994  1.5578  0.4229 -0.2038
12282TIP3   OH258336   0.045   6.074  14.519 -0.2330 -0.3529  0.3131
12282TIP3    H158337   0.032   6.160  14.558  1.2228 -0.0180  0.1002
12282TIP3    H258338   0.121   6.038  14.565  0.3766 -0.7095 -0.9386
12283TIP3   OH258339   6.006   2.819   4.334 -0.0310  0.2082  0.0883
12283TIP3    H158340   6.018   2.804   4.240  0.7355 -1.6880  0.4403
12283TIP3    H258341   5.924   2.775   4.355  0.3009 -0.2469  0.4634
12284TIP3   OH258342   0.388   4.531   0.777 -0.0087  0.6835 -0.4743
12284TIP3    H158343   0.308   4.583   0.780 -0.6218 -0.2382  2.2306
12284TIP3    H258344   0.382   4.481   0.695 -1.0325  2.3318 -1.4459
12285TIP3   OH258345   5.505   6.047  12.884 -0.2291  0.4175 -0.3106
12285TIP3    H158346   5.504   6.103  12.806 -0.2948 -0.0106 -0.6227
12285TIP3    H258347   5.416   6.051  12.918 -0.1868  0.6479 -0.2266
12286TIP3   OH258348   5.063   3.469   5.204  0.2145  0.3692 -0.0910
12286TIP3    H158349   5.015   3.535   5.254  0.9881  0.0092  1.2014
12286TIP3    H258350   5.006   3.392   5.205  1.0784 -0.3428  2.1902
12287TIP3   OH258351   3.110   5.574   1.616  0.4892  0.4475 -0.0882
12287TIP3    H158352   3.191   5.602   1.658  1.0197  1.2830 -1.6171
12287TIP3    H258353   3.093   5.639   1.548 -0.7939 -0.3893 -0.6217
12288TIP3   OH258354   0.719   5.476   0.070  0.1042  0.2238  0.0870
12288TIP3    H158355   0.732   5.539  -0.001 -0.4234 -1.5812 -1.7041
12288TIP3    H258356   0.752   5.394   0.035 -0.7428 -0.8668  1.7330
12289TIP3   OH258357   5.615   1.622   2.055 -0.4218 -0.3574 -0.3641
12289TIP3    H158358   5.578   1.547   2.102 -1.2540  0.3933  0.2079
12289TIP3    H258359   5.705   1.595   2.034 -0.2596 -1.0069  1.0264
12290TIP3   OH258360   6.503   3.585  13.528 -0.0998  0.1013  0.5880
12290TIP3    H158361   6.594   3.615  13.520  0.6179 -1.5918  1.8195
12290TIP3    H258362   6.474   3.619  13.613 -1.7478  3.2251 -1.0316
12291TIP3   OH258363   3.358   5.685   4.949 -0.2200  0.2943  0.0231
12291TIP3    H158364   3.321   5.674   5.037  0.5437  0.7133  0.4027
12291TIP3    H258365   3.421   5.756   4.958 -1.6974  1.8874 -1.3504
12292TIP3   OH258366   2.759   3.582  13.681  0.2100 -0.9662 -0.1688
12292TIP3    H158367   2.716   3.520  13.622 -0.3563 -0.6747 -0.0679
12292TIP3    H258368   2.849   3.588  13.649  0.6411 -2.8002  0.5753
12293TIP3   OH258369   2.039   3.930   5.118  0.1992 -0.2150 -0.0657
12293TIP3    H158370   2.062   3.847   5.076 -1.2675  0.3469 -2.1347
12293TIP3    H258371   2.120   3.980   5.119  0.6373 -0.8980 -0.7415
12294TIP3   OH258372   0.881   3.922  15.877  0.0960  0.3686 -0.0357
12294TIP3    H158373   0.884   3.999  15.934 -0.8358 -1.4223  2.6456
12294TIP3    H258374   0.968   3.884  15.883 -0.3565 -0.5154  1.3169
12295TIP3   OH258375   2.427   2.244  12.540 -0.3113  0.1861 -0.2788
12295TIP3    H158376   2.453   2.200  12.459 -1.0523  0.3144 -0.5945
12295TIP3    H258377   2.332   2.244  12.538 -0.3707 -0.5826  1.0142
12296TIP3   OH258378   4.910   2.050  15.294  0.3462 -0.3658 -0.2933
12296TIP3    H158379   4.974   1.984  15.322 -2.4117 -2.2528  2.1387
12296TIP3    H258380   4.903   2.038  15.200  2.9815 -0.5626 -0.5389
12297TIP3   OH258381   2.125   1.537  13.799 -0.4271  0.0855 -0.4999
12297TIP3    H158382   2.045   1.557  13.749 -0.2147  1.1103 -0.4582
12297TIP3    H258383   2.182   1.492  13.736 -0.0820  1.5550 -1.2728
12298TIP3   OH258384   5.274   4.066  15.752  0.3493  0.1457 -0.5469
12298TIP3    H158385   5.348   4.058  15.812  0.0079 -0.8764 -0.2465
12298TIP3    H258386   5.197   4.047  15.806 -0.1212  0.9495 -0.9124
12299TIP3   OH258387   3.917   5.989  16.522 -0.0487 -0.5358 -0.5351
12299TIP3    H158388   3.978   6.059  16.499 -0.6840  0.3597  0.3691
12299TIP3    H258389   3.929   5.976  16.616 -0.8880 -0.6850 -0.4339
12300TIP3   OH258390   2.986   3.758  16.733 -0.2882 -0.0962 -0.4863
12300TIP3    H158391   2.973   3.765  16.828 -0.4308  0.1681 -0.5263
12300TIP3    H258392   3.064   3.703  16.724  0.5845  1.0317 -0.1756
12301TIP3   OH258393   5.203   5.956  14.654 -0.1314 -0.0812  0.6488
12301TIP3    H158394   5.167   6.004  14.579  0.5016  0.7454  0.8670
12301TIP3    H258395   5.288   5.995  14.670  0.7498 -1.7775  0.3779
12302TIP3   OH258396   6.771   4.857   4.553 -0.4203 -0.2818 -0.2797
12302TIP3    H158397   6.715   4.834   4.627 -0.5409  1.1010  0.0825
12302TIP3    H258398   6.836   4.787   4.550 -0.4192 -0.3716  1.1371
12303TIP3   OH258399   0.677   0.828   4.940  0.3480  0.0082 -0.0245
12303TIP3    H158400   0.657   0.766   4.869 -2.0487 -0.5864  1.0569
12303TIP3    H258401   0.625   0.905   4.919  0.9523  0.4920  0.2243
12304TIP3   OH258402   0.812   5.095   2.730  0.1414  0.6397  0.0739
12304TIP3    H158403   0.895   5.112   2.775 -0.6127 -0.3415  1.9101
12304TIP3    H258404   0.818   5.003   2.703 -1.7041 -0.6028  3.4265
12305TIP3   OH258405   3.732   4.276   0.512 -0.1970 -0.2551 -0.5752
12305TIP3    H158406   3.698   4.355   0.554 -1.7445 -1.7146  1.0622
12305TIP3    H258407   3.691   4.276   0.425 -1.7512 -0.2178  0.1226
12306TIP3   OH258408   3.197   3.129  11.421  0.2618  0.3270  0.6702
12306TIP3    H158409   3.103   3.126  11.438  0.3607 -0.7987  1.1273
12306TIP3    H258410   3.210   3.068  11.349  0.7052  0.0497  0.9802
12307TIP3   OH258411   5.381   4.245  12.059 -0.5047  0.0601  0.0459
12307TIP3    H158412   5.304   4.291  12.025  0.2289  0.5237 -1.0632
12307TIP3    H258413   5.408   4.187  11.988  0.0671 -0.2276  0.4861
12308TIP3   OH258414   3.138   5.653   0.909 -0.8990  0.0049  0.0815
12308TIP3    H158415   3.161   5.713   0.837 -2.8765 -0.4487 -0.9979
12308TIP3    H258416   3.158   5.703   0.988  1.7129  0.3836 -0.7086
12309TIP3   OH258417   4.554   5.634  15.242  0.8676 -0.0533  0.1059
12309TIP3    H158418   4.536   5.721  15.278 -1.8064 -1.9436  4.0191
12309TIP3    H258419   4.646   5.617  15.265  1.7725  1.9673 -1.6429
12310TIP3   OH258420   5.780   5.165  11.912  0.2065  0.5523 -0.1448
12310TIP3    H158421   5.718   5.192  11.980 -0.0341  2.5204 -1.0981
12310TIP3    H258422   5.770   5.229  11.842  1.8871 -0.2565 -1.2059
12311TIP3   OH258423   3.435   3.855  12.845  0.2482 -0.0840 -0.0792
12311TIP3    H158424   3.520   3.868  12.804 -0.5049 -0.3551 -1.7944
12311TIP3    H258425   3.423   3.760  12.847  1.4335 -0.3093  3.3612
12312TIP3   OH258426   1.201   2.333  17.179 -0.0848 -0.2876 -0.1052
12312TIP3    H158427   1.275   2.296  17.132 -0.8485 -0.3904 -1.2637
12312TIP3    H258428   1.231   2.338  17.270  0.5029 -2.6328 -0.0818
12313TIP3   OH258429   5.498   5.440   0.047 -0.0865  0.5006 -0.1094
12313TIP3    H158430   5.524   5.368   0.104 -0.6877 -0.7476 -1.3588
12313TIP3    H258431   5.536   5.518   0.088  1.8382 -0.6883  0.4829
12314TIP3   OH258432   6.037   1.332   3.731  0.2337  0.6840  0.6923
12314TIP3    H158433   6.046   1.242   3.762  0.5989  0.2368 -0.6377
12314TIP3    H258434   6.125   1.358   3.705  0.3862  1.9212  2.2841
12315TIP3   OH258435   5.210   2.926   3.291 -0.0129  0.1179  0.3800
12315TIP3    H158436   5.277   2.958   3.351  0.6549  0.2069 -0.3999
12315TIP3    H258437   5.146   2.997   3.287  0.7591  0.8039 -0.2561
12316TIP3   OH258438   6.491   4.979   0.541 -0.6434 -0.1840  0.1152
12316TIP3    H158439   6.547   4.909   0.575  1.3296  0.6182 -1.3075
12316TIP3    H258440   6.501   5.049   0.605  1.5466  0.6216 -0.9886
12317TIP3   OH258441   3.488   4.404   4.907 -0.6184 -0.5265 -0.2439
12317TIP3    H158442   3.486   4.499   4.922 -2.4472 -0.7618  1.3473
12317TIP3    H258443   3.537   4.394   4.825 -1.5213  1.8964 -1.1803
12318TIP3   OH258444   0.400   5.416   5.710 -0.0501 -0.3063 -0.7655
12318TIP3    H158445   0.480   5.364   5.705  1.2938  1.7498 -1.9062
12318TIP3    H258446   0.356   5.383   5.788  1.2445 -2.3729 -0.8168
12319TIP3   OH258447   4.027   6.301  11.752 -0.3069 -0.4482 -0.3837
12319TIP3    H158448   4.027   6.325  11.659  3.7196 -0.2744 -0.5073
12319TIP3    H258449   4.042   6.383  11.798  2.6506 -1.0654 -0.0434
12320TIP3   OH258450   2.983   2.250   3.973  0.3312 -0.4855  0.4587
12320TIP3    H158451   3.051   2.278   3.912  0.6466  1.7934  1.7225
12320TIP3    H258452   3.006   2.293   4.056 -1.3739 -1.5310  1.5425
12321TIP3   OH258453   3.283   4.367  15.371  0.8111  0.4719 -0.4866
12321TIP3    H158454   3.266   4.301  15.304  0.1133  1.0278 -0.8719
12321TIP3    H258455   3.199   4.411  15.384  1.1258  0.8949  0.1857
12322TIP3   OH258456   3.853   6.698   0.482 -0.0166  0.1795 -0.1760
12322TIP3    H158457   3.853   6.699   0.386 -2.2244 -2.1693 -0.3348
12322TIP3    H258458   3.775   6.748   0.506 -1.2174 -1.7530  0.1653
12323TIP3   OH258459   3.909   2.501   1.881  0.5394 -0.0993  0.1777
12323TIP3    H158460   3.902   2.594   1.856 -1.0858 -0.2562 -0.0072
12323TIP3    H258461   3.949   2.459   1.805  2.4798  0.6102  0.7278
12324TIP3   OH258462   0.817   5.808  15.201  0.8779 -0.0928 -0.0594
12324TIP3    H158463   0.860   5.763  15.129  0.8878 -1.9316  1.0099
12324TIP3    H258464   0.849   5.763  15.280  1.0700  1.9898  1.1372
12325TIP3   OH258465   0.494   5.870  12.462  0.3442 -0.3263 -0.6708
12325TIP3    H158466   0.427   5.929  12.429  2.4237  2.1923 -0.6842
12325TIP3    H258467   0.463   5.845  12.549  0.1861  2.2708  0.0915
12326TIP3   OH258468   6.773   5.850  15.121 -0.0868  0.0993  0.0180
12326TIP3    H158469   6.740   5.767  15.086 -2.2085  0.6560  0.5186
12326TIP3    H258470   6.780   5.836  15.215 -0.1619  0.3759  0.0673
12327TIP3   OH258471   3.070   6.677   2.114 -0.7772  0.3311 -0.5770
12327TIP3    H158472   3.102   6.765   2.131  1.2993 -0.4194 -0.3154
12327TIP3    H258473   2.976   6.682   2.130 -0.6050  2.3498  0.0269
12328TIP3   OH258474   6.755   1.421   0.549 -0.3228  0.6406 -0.3025
12328TIP3    H158475   6.756   1.517   0.547  0.1152  0.6283 -1.1513
12328TIP3    H258476   6.722   1.395   0.464  1.5950  0.0332 -0.9270
12329TIP3   OH258477   6.056   4.320   5.520  0.3147  0.3820 -0.1630
12329TIP3    H158478   6.028   4.230   5.501 -0.1902  0.8970 -2.0784
12329TIP3    H258479   6.128   4.336   5.459  1.5571  0.7450  1.3333
12330TIP3   OH258480   3.599   4.310   2.687  0.2477  0.3148 -0.2962
12330TIP3    H158481   3.617   4.297   2.780 -0.9374 -1.3947 -0.2718
12330TIP3    H258482   3.635   4.232   2.644 -0.7603  0.2483 -1.0518
12331TIP3   OH258483   3.428   5.872   1.571 -0.2263 -0.1433  0.1666
12331TIP3    H158484   3.506   5.916   1.538  1.3398 -1.7339  1.5489
12331TIP3    H258485   3.383   5.841   1.493  0.1941  1.2885 -0.6823
12332TIP3   OH258486   0.927   5.907  16.647 -0.3361  0.0510 -0.0672
12332TIP3    H158487   0.915   5.866  16.732 -0.1852 -1.6946 -0.8260
12332TIP3    H258488   0.839   5.926  16.616 -0.3984  0.5179  0.4046
12333TIP3   OH258489   6.222   6.706  12.066 -0.0579  0.0557  0.1455
12333TIP3    H158490   6.243   6.632  12.124  0.7529  0.0633 -0.1231
12333TIP3    H258491   6.128   6.700  12.052  0.2566 -2.2222 -1.5814
12334TIP3   OH258492   2.015   5.758   2.076  0.3096 -0.0721 -0.0910
12334TIP3    H158493   1.970   5.836   2.107  0.7035  0.9257 -1.8879
12334TIP3    H258494   1.980   5.687   2.130  0.7095  1.4541  2.3091
12335TIP3   OH258495   0.761   1.331   3.686  0.1870 -0.7336  0.0657
12335TIP3    H158496   0.739   1.269   3.755 -0.3365  0.0644  0.6400
12335TIP3    H258497   0.679   1.379   3.670  0.7083  0.1746  0.0232
12336TIP3   OH258498   0.617   2.335   5.779 -0.0852 -0.2710  0.0710
12336TIP3    H158499   0.698   2.373   5.746 -0.7506 -0.9828 -2.5750
12336TIP3    H258500   0.587   2.276   5.710 -3.4389  0.7839  0.4261
12337TIP3   OH258501   6.723   2.140   5.186  0.3479 -0.1960  0.2144
12337TIP3    H158502   6.774   2.061   5.166 -1.3568 -1.0106 -1.1300
12337TIP3    H258503   6.691   2.126   5.275  3.5534  1.0167  1.7410
12338TIP3   OH258504   0.617   2.114  15.540 -0.0911 -0.9878 -0.4309
12338TIP3    H158505   0.595   2.074  15.624  0.5783 -2.0827 -0.7637
12338TIP3    H258506   0.535   2.154  15.510  0.0412  1.0050  1.5580
12339TIP3   OH258507   2.968   3.585   5.649 -0.0850 -0.9222  0.1643
12339TIP3    H158508   3.033   3.534   5.602  2.3795  0.2254  2.0942
12339TIP3    H258509   2.892   3.527   5.657  0.0146 -1.7855 -3.4798
12340TIP3   OH258510   3.554   1.544   2.970  0.1414  0.3855 -0.1755
12340TIP3    H158511   3.521   1.518   3.056  0.5414  1.0522  0.1900
12340TIP3    H258512   3.628   1.601   2.990  0.2241  0.5553 -0.9640
12341TIP3   OH258513   4.294   0.202  10.893  0.9275 -0.9313  0.5695
12341TIP3    H158514   4.349   0.278  10.872  0.8997 -0.6333  1.5362
12341TIP3    H258515   4.208   0.223  10.855  1.3454 -1.2318 -0.6133
12342TIP3   OH258516   3.027   2.287   0.239  0.1133 -0.4946 -0.1864
12342TIP3    H158517   3.007   2.239   0.320  2.0970 -1.6003 -0.2735
12342TIP3    H258518   2.946   2.283   0.188 -0.5750 -1.5021  0.9209
12343TIP3   OH258519   0.880   2.628   2.514  0.1666 -0.6032 -0.0262
12343TIP3    H158520   0.935   2.704   2.496 -2.3545  1.2852 -0.2830
12343TIP3    H258521   0.924   2.584   2.588  3.2786 -0.7017 -1.7740
12344TIP3   OH258522   5.211   2.177  14.012 -0.2824  0.4646  0.1613
12344TIP3    H158523   5.216   2.081  14.008 -1.0647  0.4564 -2.2223
12344TIP3    H258524   5.118   2.196  14.025 -0.4047  0.8856 -1.2159
12345TIP3   OH258525   6.012   2.735  12.820  0.3799 -0.6206  0.3072
12345TIP3    H158526   5.954   2.724  12.895 -0.7381  0.0077 -0.4358
12345TIP3    H258527   6.057   2.818  12.837 -0.8276  0.1956 -0.2938
12346TIP3   OH258528   3.552   4.472  17.153 -0.6147  0.3464 -0.0522
12346TIP3    H158529   3.506   4.506  17.230 -1.3830 -1.8431  0.5464
12346TIP3    H258530   3.615   4.540  17.130 -0.7643  1.3121  2.1583
12347TIP3   OH258531   5.299   4.839  11.742  0.3804 -0.2513  0.0072
12347TIP3    H158532   5.205   4.847  11.726  0.1800 -0.8820  0.7909
12347TIP3    H258533   5.332   4.793  11.666  0.1627  0.5366 -0.5727
12348TIP3   OH258534   0.635   2.047  16.690  0.7195 -0.1014  0.3915
12348TIP3    H158535   0.687   2.103  16.633  1.2220 -0.7894  0.1701
12348TIP3    H258536   0.685   2.042  16.772  1.4615 -1.4566 -0.1119
12349TIP3   OH258537   3.253   4.206   4.963 -0.0236  0.3829 -0.2581
12349TIP3    H158538   3.180   4.232   4.907 -1.1610  1.6095  1.6434
12349TIP3    H258539   3.317   4.277   4.953  0.1683  0.1469 -0.6863
12350TIP3   OH258540   0.345   3.364  14.996  0.4879 -0.0848 -0.2098
12350TIP3    H158541   0.403   3.422  14.947 -0.6823 -0.2574 -1.8745
12350TIP3    H258542   0.287   3.423  15.044  1.7377  0.0854  1.1789
12351TIP3   OH258543   5.122   3.754  16.914 -0.2010  0.1963 -0.3620
12351TIP3    H158544   5.034   3.736  16.947 -0.5078  0.3766 -1.0510
12351TIP3    H258545   5.158   3.668  16.892 -0.0037  0.0792  0.3986
12352TIP3   OH258546   2.058   2.421   0.574  0.3800  0.4123  0.1316
12352TIP3    H158547   2.130   2.404   0.513 -0.4457  0.5352 -0.8957
12352TIP3    H258548   2.039   2.515   0.563 -0.1493  0.3098  0.1513
12353TIP3   OH258549   2.435   5.071   1.573 -0.2387 -0.2010  0.0136
12353TIP3    H158550   2.367   5.014   1.607  0.6085 -0.0259  2.1614
12353TIP3    H258551   2.514   5.018   1.575  0.2415  0.5112  0.4612
12354TIP3   OH258552   4.025   2.696   5.430 -0.7717 -0.5124 -0.3049
12354TIP3    H158553   4.015   2.611   5.472 -0.5937  0.1038  1.0347
12354TIP3    H258554   4.087   2.743   5.486  1.3172 -0.4382 -2.4822
12355TIP3   OH258555   1.661   0.906  14.711  0.1588 -0.2836  0.0424
12355TIP3    H158556   1.696   0.827  14.753  1.8115  0.4132  0.0871
12355TIP3    H258557   1.667   0.888  14.617  1.3508  0.0582  0.0243
12356TIP3   OH258558   6.346   1.524   4.023  0.8083 -0.0535  0.0812
12356TIP3    H158559   6.375   1.435   4.046 -0.7684 -0.9050 -1.0312
12356TIP3    H258560   6.264   1.510   3.975  0.6221  2.0135 -0.2566
12357TIP3   OH258561   3.194   1.079  16.599 -0.1424  0.7096  0.1427
12357TIP3    H158562   3.264   1.038  16.548 -0.8282 -0.7861  0.3341
12357TIP3    H258563   3.217   1.171  16.602  0.2433  0.7633 -2.3635
12358TIP3   OH258564   4.143   0.839  14.039  0.0319  0.4835  0.2284
12358TIP3    H158565   4.076   0.772  14.046 -0.6106  1.0941  0.0346
12358TIP3    H258566   4.160   0.847  13.945  0.3907  0.3096  0.2795
12359TIP3   OH258567   6.209   6.355  11.840  0.1365 -0.2076 -0.2761
12359TIP3    H158568   6.227   6.374  11.932  0.3979  1.0033 -0.5654
12359TIP3    H258569   6.215   6.260  11.834 -1.6857 -0.4853  1.3406
12360TIP3   OH258570   6.048   0.227   3.618 -0.2355  0.6780 -0.7205
12360TIP3    H158571   6.121   0.230   3.557  0.9430 -0.2176  0.5880
12360TIP3    H258572   5.998   0.307   3.600 -0.1089  0.3000 -3.0222
12361TIP3   OH258573   2.932   4.896  17.472  0.0744 -0.5530  0.5951
12361TIP3    H158574   3.014   4.853  17.498  0.1346 -0.1591  1.0716
12361TIP3    H258575   2.880   4.899  17.553  0.4083  1.0221  0.7819
12362TIP3   OH258576   6.131   1.374  12.139 -0.0197 -0.3291 -0.0752
12362TIP3    H158577   6.051   1.326  12.162 -2.1118  3.5309  1.7497
12362TIP3    H258578   6.144   1.355  12.046 -1.7193 -2.7875  0.0738
12363TIP3   OH258579   3.582   1.882   0.608  0.2550  0.4706 -0.3076
12363TIP3    H158580   3.569   1.848   0.697  0.8348  2.0677  0.4219
12363TIP3    H258581   3.654   1.944   0.616 -0.4824  1.5644 -1.6383
12364TIP3   OH258582   3.484   4.305   5.406 -0.0195  0.4963  0.3893
12364TIP3    H158583   3.528   4.377   5.361  0.5345  0.9434  1.5943
12364TIP3    H258584   3.403   4.291   5.357  0.4934  1.0399 -0.6456
12365TIP3   OH258585   4.289   4.889  17.250 -0.4645  0.9384 -0.4237
12365TIP3    H158586   4.321   4.807  17.287  1.3396 -0.4148 -4.3848
12365TIP3    H258587   4.204   4.867  17.213 -0.0767  0.8361 -1.2942
12366TIP3   OH258588   4.557   5.042  15.285  0.5946  0.2321  0.0895
12366TIP3    H158589   4.620   5.015  15.218  1.8299  0.1906  1.2141
12366TIP3    H258590   4.579   5.133  15.304  1.9974 -0.4670  2.2154
12367TIP3   OH258591   3.029   6.119   3.150 -0.2130 -0.0903  0.5661
12367TIP3    H158592   2.959   6.053   3.142 -0.0929 -0.0762 -0.7960
12367TIP3    H258593   2.986   6.201   3.127 -0.0365  0.1083  0.9498
12368TIP3   OH258594   1.249   4.821   0.096  0.9076 -0.1545 -0.1087
12368TIP3    H158595   1.232   4.827   0.190 -1.2197 -1.0711 -0.3652
12368TIP3    H258596   1.269   4.728   0.082  0.9836 -0.0665 -0.5949
12369TIP3   OH258597   1.936   3.278   2.145  0.0577  0.0597 -0.2233
12369TIP3    H158598   1.863   3.339   2.152 -0.3612 -0.2849 -1.3104
12369TIP3    H258599   1.994   3.300   2.217 -1.4265 -0.0725  1.0472
12370TIP3   OH258600   3.348   0.721   0.725 -0.2485  0.3622 -0.1805
12370TIP3    H158601   3.366   0.806   0.764 -2.3415  1.3726 -1.2500
12370TIP3    H258602   3.263   0.732   0.682 -0.6486 -2.3268 -0.2250
12371TIP3   OH258603   5.320   1.449  12.241 -0.0465 -0.6772 -0.4100
12371TIP3    H158604   5.390   1.510  12.220  0.2441 -0.6092  0.6871
12371TIP3    H258605   5.299   1.466  12.333 -1.4192 -0.7880 -0.6743
12372TIP3   OH258606   2.843   5.815  12.361 -0.1886  0.0952  0.4544
12372TIP3    H158607   2.920   5.786  12.313 -0.7836  0.4779 -0.7592
12372TIP3    H258608   2.848   5.911  12.359 -1.2473  0.1449 -0.5754
12373TIP3   OH258609   4.273   1.260   0.550 -0.3043 -0.4590 -0.5087
12373TIP3    H158610   4.292   1.344   0.508  0.4091 -1.2144 -1.7589
12373TIP3    H258611   4.358   1.224   0.572 -0.6414 -0.4214  0.9610
12374TIP3   OH258612   5.911   2.467   0.704  0.5957  0.0232 -0.2391
12374TIP3    H158613   5.882   2.444   0.615  0.8159 -0.0101 -0.3028
12374TIP3    H258614   5.858   2.413   0.761  0.4324  0.0637 -0.3491
12375TIP3   OH258615   1.035   6.728  15.025  0.0733  0.1749  0.1978
12375TIP3    H158616   1.010   6.742  14.934  0.2314 -1.3889 -0.1212
12375TIP3    H258617   1.105   6.663  15.020 -0.0936 -0.1204  1.4524
12376TIP3   OH258618   1.898   3.283  12.221  0.9251 -0.4943  0.3177
12376TIP3    H158619   1.835   3.251  12.156 -0.1743 -0.8685  1.5296
12376TIP3    H258620   1.971   3.317  12.169 -0.0369 -0.5363 -1.1115
12377TIP3   OH258621   5.659   0.623  16.593 -0.2823  0.2153 -0.1807
12377TIP3    H158622   5.746   0.614  16.554  0.1015  1.4754  0.3329
12377TIP3    H258623   5.674   0.613  16.687 -0.8866 -0.6924 -0.1654
12378TIP3   OH258624   4.218   5.918  12.449  0.1802  0.4248 -0.3566
12378TIP3    H158625   4.222   6.006  12.412  0.7879 -0.2084 -1.9019
12378TIP3    H258626   4.271   5.923  12.529 -2.7028  2.3043  1.6218
12379TIP3   OH258627   1.060   5.740  15.672  0.3646 -0.1670  0.8994
12379TIP3    H158628   0.990   5.715  15.732  0.6236 -0.7363  0.9675
12379TIP3    H258629   1.136   5.755  15.728  0.4059  0.0441  0.7883
12380TIP3   OH258630   2.743   2.300   3.479 -0.0611 -0.2513 -0.0939
12380TIP3    H158631   2.798   2.340   3.412  0.6054 -0.1659  0.4967
12380TIP3    H258632   2.782   2.327   3.562 -1.4350  0.4431  0.3580
12381TIP3   OH258633   1.204   4.717   6.622 -0.0700 -0.5592  0.2583
12381TIP3    H158634   1.204   4.811   6.644 -2.1154 -0.5025  0.1494
12381TIP3    H258635   1.297   4.694   6.617  0.4834  1.5159  0.0664
12382TIP3   OH258636   3.204   2.803   7.031 -0.2283  0.3171 -0.0522
12382TIP3    H158637   3.117   2.785   6.995 -1.4574  2.8188  1.4079
12382TIP3    H258638   3.203   2.763   7.118  0.8292 -1.2268 -0.6993
12383TIP3   OH258639   0.353   0.324  13.077 -0.3112 -0.2414  0.0456
12383TIP3    H158640   0.263   0.311  13.045 -0.0387  0.5020 -1.0838
12383TIP3    H258641   0.347   0.397  13.138 -0.5832 -0.6804  0.5579
12384TIP3   OH258642   0.853   3.556  12.959  0.4227 -0.3073  0.5386
12384TIP3    H158643   0.800   3.504  13.020  0.6676  1.5191  2.4302
12384TIP3    H258644   0.910   3.608  13.016  0.2889  1.9097 -1.2389
12385TIP3   OH258645   0.232   2.683   3.683  0.2102 -0.2912 -0.7176
12385TIP3    H158646   0.325   2.669   3.667  0.8343  1.1970  1.3062
12385TIP3    H258647   0.221   2.673   3.777 -1.5851  0.1324 -0.8397
12386TIP3   OH258648   3.587   5.845   4.195 -0.8053  0.8427 -0.6649
12386TIP3    H158649   3.657   5.849   4.261 -0.2085 -1.4918 -1.0740
12386TIP3    H258650   3.506   5.842   4.246 -0.3939 -0.0097 -0.0403
12387TIP3   OH258651   2.156   6.020  17.404  0.0263 -0.0126  0.3539
12387TIP3    H158652   2.216   5.951  17.376  1.5824  1.3256  0.2233
12387TIP3    H258653   2.115   5.985  17.483 -0.0107 -1.4787 -0.2702
12388TIP3   OH258654   3.269   3.800   0.620  0.2671  0.3843 -0.3412
12388TIP3    H158655   3.328   3.726   0.632  0.3228  0.3031 -1.0967
12388TIP3    H258656   3.306   3.849   0.547  0.4996  1.4340  0.4574
12389TIP3   OH258657   1.941   1.856  13.009 -0.6013 -0.8988  0.0766
12389TIP3    H158658   2.032   1.866  13.036 -1.3206  1.1178  1.9906
12389TIP3    H258659   1.908   1.784  13.064 -0.8926  0.2980  1.5197
12390TIP3   OH258660   0.754   4.401  10.612  0.3309  0.0496 -0.3430
12390TIP3    H158661   0.807   4.404  10.692  0.6129  0.8045 -0.5589
12390TIP3    H258662   0.665   4.423  10.642  0.0669 -1.4224  0.0533
12391TIP3   OH258663   1.877   0.907   3.366 -0.4219  0.5806 -0.3869
12391TIP3    H158664   1.901   0.999   3.373 -1.1722  0.6911  1.4313
12391TIP3    H258665   1.942   0.869   3.307  0.8035  1.9601  0.0210
12392TIP3   OH258666   3.845   6.334  17.474 -0.1612  0.4629 -0.6768
12392TIP3    H158667   3.817   6.243  17.462 -1.0452  0.6277  0.0699
12392TIP3    H258668   3.886   6.336  17.561 -0.8726  0.9414 -0.3428
12393TIP3   OH258669   4.555   1.467  16.411 -0.1066  0.1870  0.3077
12393TIP3    H158670   4.499   1.482  16.487  1.3048 -1.2807  1.7204
12393TIP3    H258671   4.495   1.469  16.336 -1.5173  1.8092  1.4083
12394TIP3   OH258672   6.202   2.657   2.202  0.7942 -0.2957  0.7933
12394TIP3    H158673   6.152   2.738   2.193 -0.6320 -0.9051  2.5571
12394TIP3    H258674   6.291   2.685   2.218  0.8268  0.8537 -1.0566
12395TIP3   OH258675   4.014   2.184   1.415  0.2450 -0.2946  0.3783
12395TIP3    H158676   4.071   2.107   1.418 -0.9005 -1.1801  0.2440
12395TIP3    H258677   4.070   2.254   1.381  1.5538 -0.8340  1.3342
12396TIP3   OH258678   5.345   3.929   4.125  0.1330 -0.0160 -0.3638
12396TIP3    H158679   5.309   3.950   4.211  2.2448 -0.8466  0.8052
12396TIP3    H258680   5.400   4.004   4.103 -0.6737  0.3510 -1.1847
12397TIP3   OH258681   3.222   0.972   2.080 -0.7430  0.0324 -0.2057
12397TIP3    H158682   3.240   0.907   2.012 -2.2363  0.7195 -1.3053
12397TIP3    H258683   3.198   1.051   2.032 -0.1078  1.0758  1.1276
12398TIP3   OH258684   4.485   0.705   4.815  0.6572 -0.0781  0.5563
12398TIP3    H158685   4.523   0.787   4.847 -0.0301  1.2231 -1.7012
12398TIP3    H258686   4.526   0.693   4.729 -0.9100 -0.8828 -0.1148
12399TIP3   OH258687   0.023   6.034  11.617  1.0503  0.2499  0.2400
12399TIP3    H158688  -0.071   6.049  11.612  0.6509 -1.3602  1.8246
12399TIP3    H258689   0.050   6.023  11.526 -0.1841  1.2817 -0.2766
12400TIP3   OH258690   5.673   5.404  16.236  0.0373  0.0850  0.2845
12400TIP3    H158691   5.631   5.481  16.274  0.0546  0.3193 -0.1635
12400TIP3    H258692   5.663   5.415  16.141  0.4745 -0.2196  0.1991
12401TIP3   OH258693   1.556   2.391   3.286 -0.0010 -0.3028  0.5009
12401TIP3    H158694   1.556   2.296   3.293  0.5106 -0.3806 -0.4063
12401TIP3    H258695   1.642   2.417   3.319 -0.0431 -0.1691  0.5062
12402TIP3   OH258696   5.944   2.552  10.701 -0.1293  0.1898  0.0899
12402TIP3    H158697   5.994   2.633  10.706  0.6781 -0.3049  0.2120
12402TIP3    H258698   6.001   2.491  10.654 -0.3216 -0.6010  0.8615
12403TIP3   OH258699   4.802   4.083   3.215 -0.5532  0.2772 -0.0689
12403TIP3    H158700   4.843   4.035   3.287 -0.3952  0.5630  0.0326
12403TIP3    H258701   4.861   4.070   3.141 -1.1641 -0.7622 -0.3986
12404TIP3   OH258702   3.439   6.583  11.789 -0.2264 -0.3748  0.0668
12404TIP3    H158703   3.438   6.488  11.801  1.4843 -1.0281 -3.6002
12404TIP3    H258704   3.376   6.599  11.719  0.5635  0.9428 -0.3825
12405TIP3   OH258705   0.852   0.697   3.391 -0.4366  0.4834  0.3911
12405TIP3    H158706   0.814   0.645   3.462 -1.6053  0.8215  0.0435
12405TIP3    H258707   0.853   0.787   3.425  0.4347  0.4252  0.5386
12406TIP3   OH258708   0.124   0.099  12.705 -0.1462 -0.3094 -0.6196
12406TIP3    H158709   0.165   0.148  12.633 -1.8775  4.3651  1.1738
12406TIP3    H258710   0.030   0.105  12.686 -0.6234  0.8325  1.7838
12407TIP3   OH258711   0.966   1.494  13.806  0.1763 -0.3212 -0.1197
12407TIP3    H158712   0.974   1.585  13.835  0.0416  0.4188 -2.2281
12407TIP3    H258713   0.875   1.471  13.824 -0.1910  0.4813 -0.8493
12408TIP3   OH258714   0.468   3.720  16.153  0.4192 -0.2076 -0.1398
12408TIP3    H158715   0.556   3.758  16.162  1.1044 -1.4855 -1.0994
12408TIP3    H258716   0.427   3.770  16.082  0.7279 -0.2302 -0.3350
12409TIP3   OH258717   5.345   0.930  15.233 -0.0091 -0.2946  0.1236
12409TIP3    H158718   5.358   0.835  15.239  0.7889 -0.3204 -1.3413
12409TIP3    H258719   5.251   0.941  15.228 -0.0867 -1.0750 -0.3822
12410TIP3   OH258720   0.738   1.578  11.765  0.0268  0.2524 -0.1842
12410TIP3    H158721   0.734   1.641  11.694  0.5953  2.3902  1.5747
12410TIP3    H258722   0.777   1.626  11.838 -1.1029 -1.6314  1.7902
12411TIP3   OH258723   5.615   3.798  17.360 -0.2418  0.6940 -0.0889
12411TIP3    H158724   5.540   3.746  17.330 -0.0285  0.5570 -0.3968
12411TIP3    H258725   5.599   3.813  17.453 -0.3715  0.1876 -0.0263
12412TIP3   OH258726   1.686   4.458  13.130  0.4983 -0.3204  0.4235
12412TIP3    H158727   1.778   4.483  13.123  0.4537 -0.5854 -2.1698
12412TIP3    H258728   1.650   4.518  13.195  2.9690 -1.8769  3.4939
12413TIP3   OH258729   0.466   0.111   2.201  0.0399 -0.8418 -0.0100
12413TIP3    H158730   0.554   0.080   2.179  0.7198  0.8255  0.1647
12413TIP3    H258731   0.421   0.118   2.117  0.9462  0.6968 -0.4120
12414TIP3   OH258732   6.759   0.321  12.418  0.3848 -0.2333  0.6370
12414TIP3    H158733   6.828   0.284  12.473 -0.1734  0.0935  1.5606
12414TIP3    H258734   6.678   0.279  12.449 -0.0244  0.4839  0.5475
12415TIP3   OH258735   0.817   1.854   1.782  0.2299 -0.0694 -0.1230
12415TIP3    H158736   0.737   1.827   1.737  1.2653 -3.3648 -0.2582
12415TIP3    H258737   0.807   1.820   1.871  1.1026  0.3103  0.1282
12416TIP3   OH258738   2.389   6.596   6.661  0.1010  0.5705  0.2100
12416TIP3    H158739   2.408   6.684   6.692  0.9038  0.5384 -0.1705
12416TIP3    H258740   2.345   6.554   6.735 -0.6319  1.4041  0.2541
12417TIP3   OH258741   3.593   6.508  12.052  0.4180 -0.2953 -0.0761
12417TIP3    H158742   3.622   6.490  12.141 -2.6048  3.1205  1.8778
12417TIP3    H258743   3.501   6.482  12.051 -0.2773  1.9217 -1.3721
12418TIP3   OH258744   1.130   3.227  13.695  0.1058 -0.1342 -0.4568
12418TIP3    H158745   1.108   3.167  13.623 -2.1773 -0.0517  0.1021
12418TIP3    H258746   1.145   3.170  13.770 -1.5719 -0.1031 -0.0492
12419TIP3   OH258747   1.395   2.182  14.091 -0.4130 -0.3994 -0.2228
12419TIP3    H158748   1.479   2.209  14.128  0.8362  0.8065 -3.5631
12419TIP3    H258749   1.409   2.091  14.063 -0.0404 -0.0853 -1.1026
12420TIP3   OH258750   5.000   6.091  17.172  0.2683 -0.4316  0.3900
12420TIP3    H158751   4.937   6.128  17.234 -0.2590  0.4139 -0.6299
12420TIP3    H258752   5.078   6.074  17.226  0.5824  2.2338  0.9650
12421TIP3   OH258753   1.068   2.447  11.710  0.4820  0.1014 -0.2038
12421TIP3    H158754   1.085   2.353  11.696  0.1177  0.0839 -0.5680
12421TIP3    H258755   0.975   2.451  11.733  0.0239  0.5158 -1.9341
12422TIP3   OH258756   3.628   5.820  17.458  0.0923 -0.2901 -0.3757
12422TIP3    H158757   3.538   5.790  17.462 -0.4529  1.2372 -0.1926
12422TIP3    H258758   3.661   5.789  17.374 -0.7232 -0.5458 -0.6101
12423TIP3   OH258759   4.783   5.279  15.815  0.1954 -0.1559 -0.0756
12423TIP3    H158760   4.858   5.222  15.832  0.8746 -0.1552 -2.6308
12423TIP3    H258761   4.780   5.338  15.890  1.4291 -1.5090  1.1025
12424TIP3   OH258762   2.998   1.528   2.554 -0.4865 -0.2349 -0.2629
12424TIP3    H158763   2.969   1.575   2.475 -1.6886 -2.7919 -1.4412
12424TIP3    H258764   3.062   1.465   2.521 -1.1398 -1.4658  0.7715
12425TIP3   OH258765   3.569   1.600   0.166  0.4274 -0.0370 -0.1471
12425TIP3    H158766   3.653   1.605   0.121  1.0994  0.4764  1.1144
12425TIP3    H258767   3.567   1.677   0.222 -0.8619 -0.0882 -0.0911
12426TIP3   OH258768   1.948   3.227   4.533 -0.2548  0.1943  0.7064
12426TIP3    H158769   1.868   3.198   4.488 -0.2030  1.1041 -0.0217
12426TIP3    H258770   1.962   3.162   4.601  0.1965 -1.8257 -1.1894
12427TIP3   OH258771   4.423   2.908   6.438 -0.5391  0.8728  0.4477
12427TIP3    H158772   4.458   2.992   6.466  0.3059  0.4637  0.6627
12427TIP3    H258773   4.398   2.864   6.519 -0.1451  0.5696  0.4097
12428TIP3   OH258774   6.335   3.603  14.958 -0.1780  0.5654 -0.8431
12428TIP3    H158775   6.255   3.621  15.006 -0.7534 -1.0959 -1.0978
12428TIP3    H258776   6.326   3.652  14.877 -0.7562  0.7179 -0.6927
12429TIP3   OH258777   5.846   1.428  12.576  0.2493 -0.8666  0.0058
12429TIP3    H158778   5.840   1.444  12.670  0.3231 -1.4777  0.1173
12429TIP3    H258779   5.756   1.430  12.546  0.3172  0.9844 -0.2078
12430TIP3   OH258780   3.882   5.671   1.856  0.3174 -0.3967 -0.1393
12430TIP3    H158781   3.972   5.702   1.870  0.2880  0.0636 -0.9070
12430TIP3    H258782   3.884   5.630   1.770 -0.3369  0.1291 -0.4130
12431TIP3   OH258783   3.236   2.250   2.686  0.0252 -0.0071 -0.4430
12431TIP3    H158784   3.184   2.169   2.691 -1.5516  0.6303 -3.5913
12431TIP3    H258785   3.325   2.220   2.671 -0.5107 -1.2087 -1.4456
12432TIP3   OH258786   3.006   6.755  14.086  0.0176 -0.3047  0.0648
12432TIP3    H158787   2.973   6.772  13.998  1.2543 -1.2106 -0.5964
12432TIP3    H258788   3.085   6.702  14.073 -0.3033 -1.2750  1.7589
12433TIP3   OH258789   0.716   0.213   6.072 -0.5067 -0.8239 -0.0919
12433TIP3    H158790   0.748   0.282   6.130 -0.0591 -0.6737 -0.5134
12433TIP3    H258791   0.723   0.133   6.124  2.5679 -1.1559 -0.8080
12434TIP3   OH258792   4.626   5.364   2.614  0.3831 -0.0808 -0.3714
12434TIP3    H158793   4.627   5.317   2.530 -0.3504  0.9372 -0.9736
12434TIP3    H258794   4.598   5.298   2.677 -1.0615 -0.3827 -1.2706
12435TIP3   OH258795   6.063   0.587  10.594 -0.8675  0.0045  0.0710
12435TIP3    H158796   5.976   0.546  10.591 -0.9681  0.2435 -0.2498
12435TIP3    H258797   6.046   0.679  10.610 -0.6853  0.0980 -0.2660
12436TIP3   OH258798   4.635   6.627   6.328 -0.2484  0.5564  0.1871
12436TIP3    H158799   4.718   6.659   6.293 -0.1178  0.7449  0.6697
12436TIP3    H258800   4.569   6.683   6.287 -0.2205 -0.1491 -0.8744
12437TIP3   OH258801   2.835   1.215   1.253 -0.3419  0.4139 -0.6401
12437TIP3    H158802   2.882   1.278   1.197  1.4570  0.5699  0.9577
12437TIP3    H258803   2.786   1.161   1.191  1.6882  0.4641 -2.4219
12438TIP3   OH258804   6.472   5.661  13.063  0.5898 -0.0267  0.1164
12438TIP3    H158805   6.456   5.625  13.150  0.1412  1.4288  0.6622
12438TIP3    H258806   6.433   5.597  13.003  0.3314 -0.7250  1.0056
12439TIP3   OH258807   0.360   6.378  15.282 -0.2949 -0.0218 -0.6343
12439TIP3    H158808   0.412   6.307  15.320 -0.7563  0.6471  1.3957
12439TIP3    H258809   0.390   6.456  15.329 -1.9235  0.6377 -0.6283
12440TIP3   OH258810   3.267   0.407  16.438  0.0263 -0.1985  0.3849
12440TIP3    H158811   3.266   0.373  16.349 -1.4643 -0.2934  0.4225
12440TIP3    H258812   3.178   0.438  16.453  1.0106  2.7685  0.7258
12441TIP3   OH258813   1.384   5.836  11.320 -0.0730 -0.5465 -0.4578
12441TIP3    H158814   1.333   5.852  11.399 -1.0870 -0.4874 -1.1114
12441TIP3    H258815   1.397   5.922  11.281  2.0760 -0.3224  0.6010
12442TIP3   OH258816   4.712   3.537  15.902  0.4618 -0.1908  0.4287
12442TIP3    H158817   4.675   3.499  15.981 -0.4817  0.8748  0.5403
12442TIP3    H258818   4.723   3.463  15.842  2.3401 -1.2177  1.9224
12443TIP3   OH258819   3.416   0.769  13.405  0.1385 -1.1618  0.2517
12443TIP3    H158820   3.365   0.822  13.345  0.9985  0.2588  0.7384
12443TIP3    H258821   3.440   0.828  13.477  2.0652 -1.8670  0.2761
12444TIP3   OH258822   0.910   6.195   0.108  0.2269  0.2096  0.4223
12444TIP3    H158823   0.979   6.259   0.093  2.0431 -1.8483 -0.4016
12444TIP3    H258824   0.845   6.242   0.160  1.5395  2.6507 -0.0057
12445TIP3   OH258825   0.403   5.871   3.698 -0.2261 -0.0599 -0.4062
12445TIP3    H158826   0.474   5.849   3.757  0.9591  0.0122 -1.7404
12445TIP3    H258827   0.439   5.940   3.642 -1.5740  0.4577 -0.6814
12446TIP3   OH258828   6.703   3.425  12.841 -0.0141  0.1918 -0.3320
12446TIP3    H158829   6.769   3.403  12.775  0.3835 -0.7330  0.3461
12446TIP3    H258830   6.674   3.340  12.873 -0.0037  0.6356  0.8788
12447TIP3   OH258831   1.620   3.478  13.879 -0.4075 -0.1717 -0.3497
12447TIP3    H158832   1.658   3.458  13.964 -0.2454  0.5516 -0.2503
12447TIP3    H258833   1.665   3.557  13.849 -3.2842  2.1123  0.7812
12448TIP3   OH258834   0.109   3.534   1.499 -0.5382  0.2674  0.7613
12448TIP3    H158835   0.142   3.455   1.457 -0.8382  0.0097  1.0011
12448TIP3    H258836   0.014   3.529   1.490 -0.5217  0.9952  0.0900
12449TIP3   OH258837   1.928   4.638   1.510  0.0971 -0.0142  0.4367
12449TIP3    H158838   1.873   4.578   1.459  0.5914 -0.0520 -0.0513
12449TIP3    H258839   1.938   4.595   1.595 -0.5687 -0.0393  0.5123
12450TIP3   OH258840   6.189   5.120  11.246 -0.2181  0.3051 -0.6731
12450TIP3    H158841   6.161   5.032  11.218  2.3901 -0.7687 -0.1179
12450TIP3    H258842   6.157   5.128  11.336  1.4669 -1.0623  0.0965
12451TIP3   OH258843   4.297   5.022  13.625 -0.4860 -0.2598  0.4257
12451TIP3    H158844   4.341   5.034  13.541 -1.3069  2.3857  0.3043
12451TIP3    H258845   4.271   4.930  13.626 -0.0093 -0.4656 -1.9756
12452TIP3   OH258846   4.707   1.810  14.387  0.2050  0.2876  0.4129
12452TIP3    H158847   4.775   1.742  14.386  0.5997  0.6550  1.1450
12452TIP3    H258848   4.654   1.788  14.464 -0.7819 -0.2486 -0.3983
12453TIP3   OH258849   0.234   6.529  11.315  0.1045 -0.2980 -0.4742
12453TIP3    H158850   0.140   6.514  11.308  0.3650 -1.8599 -1.0862
12453TIP3    H258851   0.271   6.485  11.239  1.2493  1.3953 -0.9499
12454TIP3   OH258852   1.047   0.717   0.556  0.0921 -0.6472 -0.0025
12454TIP3    H158853   1.125   0.671   0.528  0.5908 -0.3434  0.8524
12454TIP3    H258854   0.995   0.652   0.604  1.6289  0.0271  2.7868
12455TIP3   OH258855   0.572   2.355  14.054 -0.0267  0.0356  0.4647
12455TIP3    H158856   0.549   2.289  13.990  1.6199  1.1909 -1.4288
12455TIP3    H258857   0.550   2.438  14.013  0.6999  0.8013  1.5543
12456TIP3   OH258858   2.167   0.177   5.209 -0.0489 -0.2746 -0.1050
12456TIP3    H158859   2.249   0.170   5.159 -1.1118 -2.7720 -1.7237
12456TIP3    H258860   2.169   0.101   5.268 -0.8482  0.0924  0.4041
12457TIP3   OH258861   5.675   0.674   3.429 -0.0290  0.1333  0.2720
12457TIP3    H158862   5.609   0.612   3.398  0.4522 -0.2042 -0.0876
12457TIP3    H258863   5.681   0.739   3.359  1.4837 -0.9495 -0.6522
12458TIP3   OH258864   0.259   3.627   4.802 -0.3905  0.1215 -0.8804
12458TIP3    H158865   0.174   3.594   4.771  0.5336 -1.5616 -1.7452
12458TIP3    H258866   0.323   3.587   4.743  1.2207 -0.6281  1.2495
12459TIP3   OH258867   1.743   3.910  12.024 -0.5724 -0.3957 -0.4217
12459TIP3    H158868   1.763   3.845  12.091  0.2601 -0.2793 -0.5453
12459TIP3    H258869   1.692   3.862  11.958  0.8844 -1.1989 -1.0054
12460TIP3   OH258870   6.316   1.812  17.274 -0.1264  0.2129 -0.0628
12460TIP3    H158871   6.317   1.900  17.312  2.0103  0.1435  0.1785
12460TIP3    H258872   6.224   1.786  17.273 -0.6461  1.9177  1.0969
12461TIP3   OH258873   4.593   4.935  15.550  0.2447  0.2831  0.2630
12461TIP3    H158874   4.508   4.923  15.593  0.3201 -0.1487  0.2987
12461TIP3    H258875   4.578   5.001  15.482 -0.6189 -1.3015 -1.1404
12462TIP3   OH258876   4.622   1.359   4.363 -0.4307  0.1943  0.0163
12462TIP3    H158877   4.710   1.334   4.333 -0.7264 -0.9102  0.0159
12462TIP3    H258878   4.598   1.434   4.308 -0.2552 -0.7087 -1.3360
12463TIP3   OH258879   4.586   1.443  13.633  0.0489  0.0546 -0.1687
12463TIP3    H158880   4.552   1.366  13.678  2.1634 -0.4934  0.6156
12463TIP3    H258881   4.545   1.517  13.677 -0.3805 -0.5772  0.5080
12464TIP3   OH258882   2.200   5.861   3.814  0.1561 -0.1961 -0.1638
12464TIP3    H158883   2.137   5.891   3.880 -0.1784  0.3133 -0.7079
12464TIP3    H258884   2.148   5.852   3.734  0.6615 -0.3302 -0.4766
12465TIP3   OH258885   4.997   2.196  14.856 -0.4730 -0.1958  0.4957
12465TIP3    H158886   4.959   2.177  14.942 -1.2411 -1.3819 -0.0782
12465TIP3    H258887   4.941   2.265  14.820 -2.1777 -1.9117 -0.3304
12466TIP3   OH258888   3.549   5.823   2.357 -0.3505 -0.3297 -0.4085
12466TIP3    H158889   3.586   5.815   2.269  2.1982  0.4743  0.5079
12466TIP3    H258890   3.621   5.800   2.416 -1.8592 -0.4355  1.5022
12467TIP3   OH258891   2.783   3.443  11.941  0.5870  0.0994  0.2510
12467TIP3    H158892   2.836   3.364  11.932  1.5497  0.9686 -2.9910
12467TIP3    H258893   2.846   3.514  11.950 -0.1038  0.8621 -0.7187
12468TIP3   OH258894   1.811   1.712  13.787 -0.2832 -0.5090 -0.1082
12468TIP3    H158895   1.737   1.695  13.846 -0.8271 -0.0278 -0.6460
12468TIP3    H258896   1.809   1.640  13.725 -1.4273  0.4544 -1.2310
12469TIP3   OH258897   3.582   3.828   2.025 -0.0107  1.0074 -0.5763
12469TIP3    H158898   3.648   3.796   1.963  1.1909  0.4691  0.9094
12469TIP3    H258899   3.572   3.921   2.003  0.7663  0.9543 -1.2381
12470TIP3   OH258900   6.023   0.894   1.611 -0.5434 -0.2594 -0.1167
12470TIP3    H158901   5.933   0.920   1.589 -0.5517  0.2054  0.4384
12470TIP3    H258902   6.012   0.816   1.665 -0.5822 -0.6207 -0.6468
12471TIP3   OH258903   2.157   5.267  14.102 -0.1114 -0.2692  0.0056
12471TIP3    H158904   2.187   5.180  14.126 -0.3397 -0.3800 -0.1098
12471TIP3    H258905   2.237   5.318  14.092 -0.0000 -0.2676  0.8128
12472TIP3   OH258906   3.173   4.774  16.089  0.5571  0.1007 -0.4298
12472TIP3    H158907   3.182   4.687  16.128 -0.7893  0.2670  0.3075
12472TIP3    H258908   3.212   4.833  16.152  3.6053 -0.0994 -1.9384
12473TIP3   OH258909   5.135   1.284  13.517  0.2839  0.3543  0.3728
12473TIP3    H158910   5.128   1.316  13.607 -3.3161 -3.5429  1.7958
12473TIP3    H258911   5.076   1.341  13.467 -1.6876 -0.4580  1.6566
12474TIP3   OH258912   3.636   5.402  16.848  0.7992  0.0327 -0.0931
12474TIP3    H158913   3.641   5.465  16.775 -1.2183 -0.4197 -0.6771
12474TIP3    H258914   3.644   5.457  16.927 -1.5697  1.1850 -0.5678
12475TIP3   OH258915   1.647   0.146   5.772 -0.2512  0.6862 -0.2822
12475TIP3    H158916   1.589   0.078   5.739  0.9571 -0.4652 -0.1071
12475TIP3    H258917   1.698   0.103   5.841 -0.7628  2.2788  1.1734
12476TIP3   OH258918   1.571   5.196   4.424 -0.6184  0.5693  0.1884
12476TIP3    H158919   1.642   5.134   4.436 -1.7589 -0.5721  1.2738
12476TIP3    H258920   1.541   5.216   4.512 -0.9974  1.8319 -0.2021
12477TIP3   OH258921   0.339   0.987   5.467 -0.3702  0.7932  0.2141
12477TIP3    H158922   0.327   0.947   5.554 -0.7725 -0.0899 -0.2360
12477TIP3    H258923   0.433   1.006   5.463 -0.4027  1.1417  0.9702
12478TIP3   OH258924   4.438   0.803   1.581 -0.6208 -0.3131  0.3635
12478TIP3    H158925   4.524   0.761   1.589 -0.8897 -0.9907 -0.1459
12478TIP3    H258926   4.416   0.830   1.670 -0.4887 -1.3820  0.7399
12479TIP3   OH258927   6.143   0.030  17.479  0.1623 -0.2676  0.3167
12479TIP3    H158928   6.120   0.004  17.389  1.8860 -0.0745 -0.2301
12479TIP3    H258929   6.177  -0.051  17.518  0.3897 -0.1157  0.4358
12480TIP3   OH258930   1.961   1.327  11.293  0.7363  0.2750 -0.1894
12480TIP3    H158931   1.931   1.362  11.377  1.2476  0.9141 -0.2620
12480TIP3    H258932   1.935   1.394  11.229  1.5438  0.4464 -0.3582
12481TIP3   OH258933   6.435   0.404   5.908 -0.4265 -0.1114 -0.9111
12481TIP3    H158934   6.502   0.455   5.955 -1.7249  0.4792  0.3722
12481TIP3    H258935   6.439   0.318   5.950 -0.2892 -0.1567 -1.0165
12482TIP3   OH258936   3.131   0.441   1.243  0.7058  0.3575 -0.4599
12482TIP3    H158937   3.210   0.404   1.282  0.5184  1.2754  0.8517
12482TIP3    H258938   3.164   0.500   1.175  1.0941 -0.0268 -0.6162
12483TIP3   OH258939   5.632   6.275   0.271 -0.2167  0.2245  0.1119
12483TIP3    H158940   5.728   6.271   0.268 -0.1046  2.2316 -0.1698
12483TIP3    H258941   5.606   6.291   0.181 -0.5026  3.7257  0.6950
12484TIP3   OH258942   3.796   2.563   5.695 -0.0278 -0.7339 -0.1456
12484TIP3    H158943   3.799   2.655   5.719  1.1805 -0.9196  0.4644
12484TIP3    H258944   3.882   2.529   5.718  0.0508 -1.6945 -1.6798
12485TIP3   OH258945   5.452   4.330  17.223 -0.1618  0.1064  0.0012
12485TIP3    H158946   5.465   4.323  17.317  0.7233 -0.5727 -0.1584
12485TIP3    H258947   5.462   4.423  17.204  3.3234 -0.1136  0.1160
12486TIP3   OH258948   1.773   3.300  13.352 -0.0503  0.5601 -0.4200
12486TIP3    H158949   1.706   3.317  13.286 -1.2193  1.2982  0.9034
12486TIP3    H258950   1.770   3.377  13.410 -0.5690 -0.9369  1.6976
12487TIP3   OH258951   2.256   0.209   1.693  0.5342  0.3504 -0.1926
12487TIP3    H158952   2.185   0.234   1.751  1.1475  1.0463  0.2739
12487TIP3    H258953   2.233   0.121   1.663  0.4281 -0.2051  1.4491
12488TIP3   OH258954   3.476   3.832   3.305  0.5889 -0.6254  0.5500
12488TIP3    H158955   3.394   3.857   3.263 -0.1236  1.2820  2.9005
12488TIP3    H258956   3.544   3.862   3.245 -0.3823  2.0362  0.6817
12489TIP3   OH258957   1.406   2.215  12.148 -0.3025 -0.2445  0.0651
12489TIP3    H158958   1.355   2.159  12.089 -0.1055  0.6823 -1.0403
12489TIP3    H258959   1.349   2.290  12.165  0.3144  0.3743 -0.4679
12490TIP3   OH258960   1.768   5.820  13.011  0.8315 -0.0025 -0.3804
12490TIP3    H158961   1.829   5.863  12.952  1.9370 -0.8768  0.0891
12490TIP3    H258962   1.749   5.884  13.079  2.1171 -0.0935  0.0777
12491TIP3   OH258963   3.022   5.454   4.855 -0.5137 -0.1248 -0.1003
12491TIP3    H158964   3.088   5.429   4.920 -0.1041  1.2136  0.0324
12491TIP3    H258965   2.995   5.542   4.881 -0.5668  0.3149 -1.5652
12492TIP3   OH258966   0.054   4.362   3.248 -0.2975  0.4627  0.1274
12492TIP3    H158967  -0.037   4.374   3.273  0.3348  4.0187  1.2949
12492TIP3    H258968   0.089   4.300   3.311 -2.1248 -2.1960 -1.2652
12493TIP3   OH258969   6.483   3.296  13.434 -0.4769  0.3946  0.0548
12493TIP3    H158970   6.510   3.385  13.460  2.1846  0.5334 -2.6258
12493TIP3    H258971   6.398   3.284  13.476 -1.3443  4.4937 -0.0550
12494TIP3   OH258972   4.603   2.619  13.571  0.0907 -0.6037 -0.1929
12494TIP3    H158973   4.603   2.646  13.479 -2.3468 -0.3427 -0.1934
12494TIP3    H258974   4.678   2.663  13.609 -1.6608  3.5194 -0.9936
12495TIP3   OH258975   2.689   6.034   4.193  0.7450  0.2217 -0.5106
12495TIP3    H158976   2.771   6.035   4.242  0.6344 -2.1713 -0.1845
12495TIP3    H258977   2.632   5.973   4.241 -1.5535  2.3758 -0.2816
12496TIP3   OH258978   4.025   4.431  16.254  0.2556  0.3654 -0.1133
12496TIP3    H158979   4.036   4.382  16.172  1.1028 -0.0477  0.2270
12496TIP3    H258980   4.060   4.518  16.235  0.3886  0.2909 -0.2138
12497TIP3   OH258981   4.372   3.076   4.480  0.2331  0.3435 -0.2590
12497TIP3    H158982   4.278   3.091   4.487  0.3391  0.5167  1.3880
12497TIP3    H258983   4.386   3.047   4.390 -1.1532  1.9394 -1.0514
12498TIP3   OH258984   0.491   3.000   4.296  0.3250 -0.1595 -0.1710
12498TIP3    H158985   0.421   2.934   4.300  1.3843 -1.4344 -1.6245
12498TIP3    H258986   0.478   3.052   4.376  0.2136 -2.9372  1.7761
12499TIP3   OH258987   0.354   4.980  12.604  0.1751  0.6082  0.2479
12499TIP3    H158988   0.438   4.935  12.610 -0.3106 -0.2381  0.9663
12499TIP3    H258989   0.372   5.067  12.640  0.6133  0.2281  0.9861
12500TIP3   OH258990   1.755   4.883  14.865  0.0072  0.4262  0.0557
12500TIP3    H158991   1.712   4.798  14.877 -3.0165  1.6778 -0.9449
12500TIP3    H258992   1.771   4.888  14.771  0.0861  0.9983  0.0995
12501TIP3   OH258993   5.867   5.104   2.145  0.2051  0.8511 -0.2147
12501TIP3    H158994   5.777   5.093   2.176 -0.4180  3.1047 -0.9643
12501TIP3    H258995   5.864   5.077   2.053  0.6507 -0.3930  0.1283
12502TIP3   OH258996   0.705   2.108  11.041  0.1069 -0.1568 -0.1285
12502TIP3    H158997   0.713   2.022  11.000  0.4739 -0.3096  0.2619
12502TIP3    H258998   0.717   2.169  10.968  2.4052 -0.4025 -0.0275
12503TIP3   OH258999   6.304   2.230  16.976 -0.0354  0.0757  0.0194
12503TIP3    H159000   6.215   2.252  16.946 -0.3582 -2.0625 -0.7256
12503TIP3    H259001   6.331   2.158  16.921  1.5427 -0.4124  1.3495
12504TIP3   OH259002   5.115   0.466  15.342  0.2370  0.5854 -0.7642
12504TIP3    H159003   5.107   0.470  15.438  1.0996  1.6811 -0.7155
12504TIP3    H259004   5.110   0.373  15.322  0.0033  0.3360  0.3427
12505TIP3   OH259005   3.524   5.688  13.817  0.1957  0.1761  0.1074
12505TIP3    H159006   3.569   5.613  13.776 -0.2502 -0.8254  1.3723
12505TIP3    H259007   3.562   5.765  13.774  0.8454 -0.7567 -1.0679
12506TIP3   OH259008   4.857   0.904  13.408 -0.3272  0.3456 -0.0229
12506TIP3    H159009   4.904   0.978  13.370 -0.2060 -0.4519 -1.5095
12506TIP3    H259010   4.820   0.858  13.332  2.0328 -2.7494  0.5257
12507TIP3   OH259011   3.824   6.456   4.486  0.0467  0.0151 -0.2147
12507TIP3    H159012   3.763   6.516   4.443 -1.3871 -0.3599  1.1919
12507TIP3    H259013   3.803   6.370   4.449 -0.7290 -0.2046  0.6867
12508TIP3   OH259014   5.308   4.484   4.337  0.0825  0.4764 -0.3075
12508TIP3    H159015   5.225   4.502   4.382  0.8741  1.2666  0.9330
12508TIP3    H259016   5.285   4.477   4.245 -1.1774  2.2253 -0.1857
12509TIP3   OH259017   5.532   1.381  16.463 -0.5818 -0.0373 -0.6479
12509TIP3    H159018   5.540   1.294  16.503 -0.4338 -0.4334 -1.5164
12509TIP3    H259019   5.529   1.364  16.369  2.6745  1.0926 -1.0713
12510TIP3   OH259020   4.933   3.336  12.521 -0.4299  0.3482  0.3426
12510TIP3    H159021   4.933   3.404  12.454 -4.0966  0.4420  0.2427
12510TIP3    H259022   4.905   3.380  12.601  2.5654 -0.0403  1.7552
12511TIP3   OH259023   4.518   3.594  14.516  0.8142 -0.0193 -0.4188
12511TIP3    H159024   4.592   3.537  14.533 -0.5340 -1.5215  0.7419
12511TIP3    H259025   4.499   3.636  14.600  0.5005  0.5445 -0.7625
12512TIP3   OH259026   2.956   2.571  14.549  0.2125 -0.4268 -0.6232
12512TIP3    H159027   2.915   2.655  14.568  1.4223  0.3535 -1.3117
12512TIP3    H259028   3.042   2.576  14.591  0.1673 -1.4603 -0.3852
12513TIP3   OH259029   4.565   0.280   4.555 -0.3278 -0.1950 -0.1823
12513TIP3    H159030   4.511   0.355   4.531  0.7886  0.1360 -1.8235
12513TIP3    H259031   4.645   0.291   4.504  0.6675 -1.4714  1.0401
12514TIP3   OH259032   6.729   4.860   3.506 -0.5457  0.6107  0.2009
12514TIP3    H159033   6.792   4.852   3.578 -1.8847 -1.1424  1.2716
12514TIP3    H259034   6.752   4.790   3.445  0.2242  1.7270 -0.8213
12515TIP3   OH259035   0.762   1.121  14.497 -0.0322  0.1252 -0.3871
12515TIP3    H159036   0.736   1.039  14.456  0.5962 -0.6334  0.6691
12515TIP3    H259037   0.858   1.120  14.495  0.0419 -0.2415  1.6063
12516TIP3   OH259038   0.795   0.307   4.987 -0.2603 -0.6594 -0.6073
12516TIP3    H159039   0.802   0.351   5.071  0.8238 -0.6263 -0.6968
12516TIP3    H259040   0.865   0.346   4.934 -0.7426 -0.8848 -1.4256
12517TIP3   OH259041   2.465   4.797  15.234 -0.4611  0.1773 -0.3641
12517TIP3    H159042   2.381   4.756  15.255  0.0561  0.1881  2.0745
12517TIP3    H259043   2.474   4.867  15.299  1.9939 -0.6803  0.3211
12518TIP3   OH259044   4.381   0.884   1.063  0.0489  0.5934  0.4665
12518TIP3    H159045   4.403   0.882   1.156  0.1441  0.6836  0.4458
12518TIP3    H259046   4.299   0.934   1.059  1.0788  2.3737  0.3023
12519TIP3   OH259047   3.628   3.228  12.838 -0.4332 -0.3085  0.1357
12519TIP3    H159048   3.646   3.276  12.918  2.8671  0.5967 -0.9788
12519TIP3    H259049   3.707   3.239  12.785 -2.0796 -1.6505 -2.8631
12520TIP3   OH259050   5.354   6.336  16.906 -0.5990  0.0006 -0.2433
12520TIP3    H159051   5.259   6.329  16.894 -0.5048 -0.2281 -0.9307
12520TIP3    H259052   5.386   6.248  16.888 -0.1716  0.2808 -0.8604
12521TIP3   OH259053   3.214   4.797  14.209  0.1217 -0.5757  0.0896
12521TIP3    H159054   3.277   4.756  14.268 -0.3766 -1.2990  0.1236
12521TIP3    H259055   3.160   4.853  14.265  1.0899  0.5179 -0.0218
12522TIP3   OH259056   5.563   0.888   4.606 -0.3841  0.0693  0.1389
12522TIP3    H159057   5.645   0.839   4.614  0.4442  1.0551 -1.6089
12522TIP3    H259058   5.538   0.878   4.514 -0.9053  1.7419  0.0631
12523TIP3   OH259059   3.247   2.279   3.117  0.2480 -0.6256  0.5198
12523TIP3    H159060   3.189   2.269   3.193 -1.9773  0.8892 -0.8361
12523TIP3    H259061   3.187   2.287   3.043  2.1767  1.4006 -0.9492
12524TIP3   OH259062   3.691   5.330  14.381  0.5843 -0.0999  0.3758
12524TIP3    H159063   3.700   5.425  14.386 -2.5096  0.3413 -0.4306
12524TIP3    H259064   3.613   5.316  14.328  0.9849 -3.1218  0.4126
12525TIP3   OH259065   3.125   6.164  15.104  0.3612 -0.2034 -0.2820
12525TIP3    H159066   3.147   6.255  15.128 -0.2012 -0.2315  0.3829
12525TIP3    H259067   3.198   6.136  15.049  1.5903 -0.0129  1.1490
12526TIP3   OH259068   4.952   1.461  12.127  0.1458 -0.0115  0.2672
12526TIP3    H159069   4.945   1.479  12.221  1.2965  1.7451  0.0646
12526TIP3    H259070   5.011   1.385  12.122 -0.9641 -0.9614  0.9760
12527TIP3   OH259071   0.158   5.487  15.999 -0.5820  0.4149  0.7312
12527TIP3    H159072   0.164   5.502  16.093 -0.8745 -1.8160  1.1697
12527TIP3    H259073   0.121   5.398  15.992 -0.3628  0.4598 -1.4776
12528TIP3   OH259074   4.704   3.154  13.116 -0.8830  0.3876  0.0581
12528TIP3    H159075   4.718   3.106  13.035  1.2246 -0.5928  0.9098
12528TIP3    H259076   4.791   3.185  13.141 -1.2381 -0.3710  2.5384
12529TIP3   OH259077   0.604   3.438   2.993  0.4653 -0.5071 -0.2869
12529TIP3    H159078   0.629   3.353   3.029  0.9059 -0.4928 -0.5535
12529TIP3    H259079   0.531   3.418   2.934  0.9427 -0.7862 -0.7965
12530TIP3   OH259080   4.223   6.602   4.797 -0.3984  0.0507  0.3682
12530TIP3    H159081   4.237   6.676   4.738  1.3189 -1.2200 -0.9631
12530TIP3    H259082   4.296   6.542   4.777  0.1715 -0.5475  3.7091
12531TIP3   OH259083   2.721   3.619   1.645 -0.0717  0.3465  0.2092
12531TIP3    H159084   2.806   3.646   1.681 -0.4748  1.3766  0.4244
12531TIP3    H259085   2.669   3.597   1.722  0.6544 -2.4533  0.0024
12532TIP3   OH259086   5.997   4.939  15.907 -0.2528 -0.3973  0.2524
12532TIP3    H159087   6.083   4.970  15.933 -0.5787  1.8074 -1.0415
12532TIP3    H259088   5.936   5.002  15.945 -1.2157 -1.3195  0.2759
12533TIP3   OH259089   4.806   6.182  17.335  0.0933 -0.7305  0.0600
12533TIP3    H159090   4.789   6.096  17.374  1.5965 -0.7153  0.8075
12533TIP3    H259091   4.732   6.235  17.363  0.9251 -0.8076  2.7157
12534TIP3   OH259092   6.507   1.060   0.121  0.0322  0.2156 -0.3624
12534TIP3    H159093   6.468   1.144   0.141 -0.6430 -0.5446  1.7656
12534TIP3    H259094   6.479   1.002   0.192  0.2741 -1.8824 -1.8572
12535TIP3   OH259095   1.948   6.215   6.001 -0.3395  0.1841  0.1936
12535TIP3    H159096   1.907   6.294   6.036  1.2757  0.9292  0.5390
12535TIP3    H259097   1.984   6.171   6.078  1.4130  0.7410 -0.2573
12536TIP3   OH259098   4.497   5.429   6.035 -0.3253 -0.5152 -0.0289
12536TIP3    H159099   4.514   5.433   5.941 -0.8696 -1.3998 -0.1747
12536TIP3    H259100   4.566   5.371   6.069  0.1909  0.2267  0.2024
12537TIP3   OH259101   3.266   3.856   3.857  0.4979  0.8342 -0.0404
12537TIP3    H159102   3.325   3.928   3.879  0.7833  0.5068  0.3057
12537TIP3    H259103   3.225   3.833   3.941  2.2539 -1.0152  0.3915
12538TIP3   OH259104   0.766   0.527   0.176 -0.0188  0.2521 -0.4405
12538TIP3    H159105   0.755   0.620   0.192  1.8045  0.4728 -0.2924
12538TIP3    H259106   0.696   0.505   0.115 -2.9381  0.8369  2.4196
12539TIP3   OH259107   4.396   6.456  17.236 -0.7783  0.4646  0.2123
12539TIP3    H159108   4.359   6.518  17.172 -0.0512  0.8171  0.1195
12539TIP3    H259109   4.319   6.417  17.278 -1.2606  0.9130 -0.2233
12540TIP3   OH259110   0.096   0.503   0.674 -0.4025 -0.4234  0.1820
12540TIP3    H159111   0.035   0.549   0.616  0.7006  0.3087 -0.4230
12540TIP3    H259112   0.106   0.562   0.749  2.0274  1.0269 -1.1837
12541TIP3   OH259113   0.627   3.475   1.131 -0.1660  0.5627 -0.2962
12541TIP3    H159114   0.678   3.555   1.137 -0.3037  0.7603 -1.5388
12541TIP3    H259115   0.635   3.447   1.040 -2.2019  0.5616 -0.5285
12542TIP3   OH259116   3.323   6.735  16.426 -0.3586 -0.1796 -0.0284
12542TIP3    H159117   3.279   6.710  16.508  1.2585 -0.8875  0.6603
12542TIP3    H259118   3.391   6.669  16.415 -1.5736 -1.1297 -2.8629
12543TIP3   OH259119   0.642   6.127   0.303  0.2123  0.3255  0.0274
12543TIP3    H159120   0.608   6.157   0.388 -0.7048  3.8832 -1.4095
12543TIP3    H259121   0.729   6.093   0.324 -0.7546 -0.8799  2.6202
12544TIP3   OH259122   3.751   3.304  16.179 -0.4492  0.2339  0.2483
12544TIP3    H159123   3.808   3.372  16.144  1.1608 -0.6483  1.0020
12544TIP3    H259124   3.710   3.343  16.256 -2.6521  1.6030 -1.5233
12545TIP3   OH259125   4.467   3.705  13.157 -0.0274  0.1731 -0.0253
12545TIP3    H159126   4.445   3.626  13.206 -0.8676  0.3854 -0.0407
12545TIP3    H259127   4.385   3.755  13.154  0.6178  1.2948  0.4455
12546TIP3   OH259128   2.358   0.607  14.653  0.3143 -0.2924  0.5980
12546TIP3    H159129   2.321   0.625  14.566  1.3224 -0.3312  0.1453
12546TIP3    H259130   2.364   0.693  14.694 -0.1902 -0.2757  0.6498
12547TIP3   OH259131   3.283   3.639  14.698 -0.0230 -0.6650  0.0634
12547TIP3    H159132   3.263   3.718  14.747  0.1869 -1.0128  0.7366
12547TIP3    H259133   3.206   3.583  14.709  0.1736 -0.8929  0.3247
12548TIP3   OH259134   6.168   3.286   2.393 -0.0846  0.7190 -0.3105
12548TIP3    H159135   6.142   3.266   2.483 -0.8221 -0.4917 -0.7732
12548TIP3    H259136   6.150   3.206   2.344  0.1140  1.4232 -1.5844
12549TIP3   OH259137   2.788   1.549  14.870  0.0354 -0.3506 -0.1352
12549TIP3    H159138   2.872   1.519  14.835 -0.3269 -0.1453 -1.2478
12549TIP3    H259139   2.733   1.558  14.792 -0.5815  0.8800  0.4196
12550TIP3   OH259140   6.625   4.204   3.774 -0.1634 -0.0542 -0.1900
12550TIP3    H159141   6.591   4.234   3.858 -2.9165 -0.9048 -0.8687
12550TIP3    H259142   6.621   4.109   3.779  0.3072 -0.1336 -1.0472
12551TIP3   OH259143   1.087   2.763  16.263  0.2496  0.3302  0.1217
12551TIP3    H159144   1.079   2.687  16.205  0.7816  0.5335 -0.2258
12551TIP3    H259145   1.144   2.824  16.216 -1.2192  1.5306 -0.2082
12552TIP3   OH259146   4.459   0.540  15.453  0.2451 -0.0249  0.3442
12552TIP3    H159147   4.448   0.482  15.528  1.2746 -0.9076 -0.1609
12552TIP3    H259148   4.445   0.484  15.377 -1.6178  1.0382 -0.1482
12553TIP3   OH259149   5.394   5.459  14.783  0.6762  0.1488 -0.8513
12553TIP3    H159150   5.471   5.505  14.751  0.6186  0.2015 -0.9160
12553TIP3    H259151   5.414   5.366  14.769  1.4570  0.0433  0.7681
12554TIP3   OH259152   3.685   6.427  15.595  0.3937 -0.7326 -0.2352
12554TIP3    H159153   3.635   6.415  15.515  0.3776  0.1710 -0.3701
12554TIP3    H259154   3.621   6.456  15.660  0.3932 -1.5325  0.1330
12555TIP3   OH259155   4.419   1.974  14.573 -0.0933  0.4552 -0.1862
12555TIP3    H159156   4.324   1.967  14.566 -0.1108 -0.1821  0.5250
12555TIP3    H259157   4.451   1.886  14.555  0.1468 -0.0884  2.5524
12556TIP3   OH259158   2.938   1.261  14.459  0.2660  0.4665 -0.3082
12556TIP3    H159159   3.007   1.327  14.457  1.2892 -0.5598 -0.2899
12556TIP3    H259160   2.881   1.287  14.530  0.5559  1.4216 -0.4140
12557TIP3   OH259161   4.473   4.341   4.659 -0.0606  0.0903 -0.6360
12557TIP3    H159162   4.477   4.246   4.654  0.1560  0.1540 -2.1665
12557TIP3    H259163   4.544   4.365   4.718  0.5479 -0.6504 -1.0502
12558TIP3   OH259164   3.954   0.965  16.481  0.0887  0.1612  0.0569
12558TIP3    H159165   3.860   0.946  16.476 -0.1393  0.7044  1.8311
12558TIP3    H259166   3.959   1.060  16.479  0.2901  0.3119  3.3580
12559TIP3   OH259167   2.307   6.118  14.393 -0.3173 -0.3004  0.0329
12559TIP3    H159168   2.309   6.177  14.469  0.0824  0.4888 -0.5795
12559TIP3    H259169   2.288   6.032  14.431  2.5849 -0.4768  1.3866
12560TIP3   OH259170   4.384   2.681   1.490  0.0477 -0.1729  0.1068
12560TIP3    H159171   4.353   2.739   1.421 -0.4054 -0.9434 -0.3629
12560TIP3    H259172   4.467   2.718   1.518  0.0382  0.3784 -0.5750
12561TIP3   OH259173   5.093   5.110  15.875 -0.0558  0.1132 -0.1872
12561TIP3    H159174   5.123   5.084  15.788 -1.0507 -1.4149 -0.0980
12561TIP3    H259175   5.012   5.061  15.889 -2.5312  3.7348 -0.2828
12562TIP3   OH259176   4.792   3.107  11.316 -0.5675 -0.2148 -0.6804
12562TIP3    H159177   4.706   3.069  11.334 -0.0097 -2.5383 -2.3696
12562TIP3    H259178   4.799   3.107  11.221  0.9277  0.8601 -0.6075
12563TIP3   OH259179   2.480   5.568  11.888 -0.2054  0.5683  0.2068
12563TIP3    H159180   2.544   5.634  11.916  0.1041  1.0702 -1.5201
12563TIP3    H259181   2.484   5.571  11.792 -2.5995  0.3827  0.0432
12564TIP3   OH259182   6.331   5.119  14.474  0.3693  0.0779 -0.1357
12564TIP3    H159183   6.330   5.040  14.527  0.4710 -0.1965 -0.5459
12564TIP3    H259184   6.332   5.190  14.538  0.2881 -0.2498  0.2314
12565TIP3   OH259185   0.756   1.682  13.610 -0.4484  0.2115  0.1302
12565TIP3    H159186   0.832   1.728  13.575 -0.7974  2.5343  2.1340
12565TIP3    H259187   0.734   1.729  13.690 -3.3187 -1.0691  0.2292
12566TIP3   OH259188   4.042   6.338   5.585 -0.3458  0.0676 -0.2589
12566TIP3    H159189   3.950   6.359   5.602  0.3334  2.0453  1.3164
12566TIP3    H259190   4.061   6.264   5.641 -0.6688  0.4406  0.3506
12567TIP3   OH259191   4.949   2.507  17.103 -0.6711  0.6799  0.4123
12567TIP3    H159192   5.009   2.477  17.170 -0.1321  1.2523  0.1937
12567TIP3    H259193   4.930   2.429  17.051  0.2504  0.5850  0.2026
12568TIP3   OH259194   1.654   1.142  15.947 -0.5400 -0.0762 -0.2926
12568TIP3    H159195   1.634   1.069  16.006 -3.8960 -1.2692 -2.5659
12568TIP3    H259196   1.749   1.153  15.953 -0.4565 -1.4122  3.6793
12569TIP3   OH259197   6.709   5.902  13.715  0.5442  0.1132  0.3931
12569TIP3    H159198   6.669   5.893  13.629  0.1886  1.9058  0.3409
12569TIP3    H259199   6.641   5.870  13.775 -0.7648  2.4104  0.2453
12570TIP3   OH259200   6.219   5.644   0.412  0.4049  0.1873 -0.0414
12570TIP3    H159201   6.243   5.697   0.336 -0.7792 -1.0724 -1.3443
12570TIP3    H259202   6.189   5.708   0.477  2.1137  1.3507 -0.3185
12571TIP3   OH259203   2.762   3.780   6.383 -0.1878 -0.5555  0.2998
12571TIP3    H159204   2.847   3.780   6.426  0.3901 -2.2250 -0.7671
12571TIP3    H259205   2.749   3.690   6.354 -1.7526 -0.0661 -0.6539
12572TIP3   OH259206   0.628   1.383  11.445  0.0779 -0.0638 -0.1511
12572TIP3    H159207   0.619   1.395  11.350 -1.2414 -3.1213 -0.5331
12572TIP3    H259208   0.546   1.343  11.472  0.6386  0.2441  2.2253
12573TIP3   OH259209   3.865   3.763   2.694 -0.0679 -0.2983 -0.1524
12573TIP3    H159210   3.881   3.857   2.694  2.5684 -0.6463 -1.2460
12573TIP3    H259211   3.931   3.728   2.755 -1.4806 -1.4230  0.8061
12574TIP3   OH259212   6.058   1.299   4.185  0.1556  0.4617  0.1558
12574TIP3    H159213   6.027   1.210   4.199 -1.3152  0.7775 -0.8073
12574TIP3    H259214   6.153   1.293   4.192 -0.0305 -0.7010  2.5500
12575TIP3   OH259215   4.124   0.089   3.665  0.4416 -0.2707 -0.2055
12575TIP3    H159216   4.107   0.175   3.625  0.2205  0.4031  1.2763
12575TIP3    H259217   4.042   0.041   3.653  0.5789 -0.3127 -1.0812
12576TIP3   OH259218   2.612   0.931  17.346  0.1987  0.0211 -0.1347
12576TIP3    H159219   2.695   0.976  17.330 -1.3929  2.8002 -1.4828
12576TIP3    H259220   2.627   0.841  17.315  2.7429  0.3521 -0.0686
12577TIP3   OH259221   3.995   6.041   2.670  0.4053  0.1413  0.0135
12577TIP3    H159222   4.013   5.959   2.716  0.0579 -0.3908 -0.7711
12577TIP3    H259223   4.042   6.108   2.720 -0.9250 -0.2200  1.8162
12578TIP3   OH259224   2.818   5.938   3.088  0.6297  0.7864  0.5582
12578TIP3    H159225   2.735   5.979   3.063  0.9854  1.1249 -0.1003
12578TIP3    H259226   2.831   5.870   3.022  1.8266  2.0112 -0.5271
12579TIP3   OH259227   2.157   6.628   1.978 -0.3988 -0.1943  0.2910
12579TIP3    H159228   2.220   6.586   1.918  0.8974  0.6747  0.9843
12579TIP3    H259229   2.083   6.651   1.922 -0.2990 -1.6091 -0.4822
12580TIP3   OH259230   6.717   2.650  15.645  0.3436 -0.3578  0.5490
12580TIP3    H159231   6.767   2.698  15.578  0.5809  0.1527  1.0777
12580TIP3    H259232   6.784   2.610  15.700  0.1474 -0.9171  0.3874
12581TIP3   OH259233   2.906   2.295  11.458 -0.2426 -0.1282  0.4044
12581TIP3    H159234   2.905   2.388  11.479 -1.1664  0.2742 -1.2341
12581TIP3    H259235   2.993   2.266  11.485  0.3131  1.3679  0.3359
12582TIP3   OH259236   4.866   2.705  12.662 -0.5912 -0.4817  0.2693
12582TIP3    H159237   4.897   2.633  12.718 -1.5047  0.9063  2.7285
12582TIP3    H259238   4.780   2.676  12.631 -2.2845  0.4804  3.5442
12583TIP3   OH259239   2.215   2.658   6.403  0.0329  0.0165 -0.2077
12583TIP3    H159240   2.178   2.599   6.469  2.1599 -0.3141  0.7510
12583TIP3    H259241   2.211   2.745   6.443  1.3774 -0.1923  0.4155
12584TIP3   OH259242   5.586   3.467   4.727 -0.1822  0.0424  0.1092
12584TIP3    H159243   5.669   3.497   4.689 -0.3251  0.7901  0.3828
12584TIP3    H259244   5.608   3.442   4.817 -0.4972  1.5342  0.6296
12585TIP3   OH259245   4.012   1.564  14.479 -0.2919 -0.2841  0.8441
12585TIP3    H159246   4.090   1.606  14.441 -0.4262 -0.0412  0.8354
12585TIP3    H259247   4.043   1.525  14.560 -0.2352  0.1238  1.0228
12586TIP3   OH259248   1.535   6.224  12.666 -0.1075  0.3321  0.5468
12586TIP3    H159249   1.510   6.145  12.714  0.9902 -1.8095 -2.1444
12586TIP3    H259250   1.629   6.230  12.678  0.3302 -0.7359 -1.8416
12587TIP3   OH259251   1.716   3.294   6.206  0.0627  0.3999  0.3145
12587TIP3    H159252   1.758   3.345   6.136 -1.3360  0.2911 -0.6317
12587TIP3    H259253   1.766   3.317   6.285  0.4432  2.0500 -0.3607
12588TIP3   OH259254   0.587   2.820  15.297 -0.2554 -0.3695 -0.4615
12588TIP3    H159255   0.561   2.790  15.210 -2.0935  0.3331 -0.1991
12588TIP3    H259256   0.627   2.743  15.338 -2.3989 -1.7118 -0.7576
12589TIP3   OH259257   5.423   5.906   4.904 -0.5815 -0.5945 -0.2937
12589TIP3    H159258   5.500   5.881   4.852  0.3452 -0.7235  1.0901
12589TIP3    H259259   5.388   5.823   4.935  0.8992 -0.4326  2.0594
12590TIP3   OH259260   4.150   6.529  11.292  0.4833 -0.6087  0.1983
12590TIP3    H159261   4.075   6.477  11.322  0.0730 -0.0966  0.0580
12590TIP3    H259262   4.112   6.598  11.238  0.9488  0.3330  1.0387
12591TIP3   OH259263   1.273   6.069   0.566  0.4666  0.0718  0.2228
12591TIP3    H159264   1.192   6.063   0.617  0.3250 -1.2367 -0.1129
12591TIP3    H259265   1.287   6.162   0.554 -0.4720  0.3473  1.1142
12592TIP3   OH259266   1.353   6.208  17.474  0.3442 -0.6167  0.4962
12592TIP3    H159267   1.276   6.202  17.417 -0.0849 -4.5620  1.2354
12592TIP3    H259268   1.428   6.194  17.417  0.4052  1.0533  0.1202
12593TIP3   OH259269   6.696   0.885   5.564  0.1306 -0.1481 -0.0731
12593TIP3    H159270   6.729   0.959   5.614  0.4744  0.8400 -1.7033
12593TIP3    H259271   6.771   0.826   5.555 -0.6341 -1.8224  3.0081
12594TIP3   OH259272   6.488   4.053   4.405 -0.6568  0.5077  0.1414
12594TIP3    H159273   6.403   4.010   4.416 -1.2794  1.9018  0.9767
12594TIP3    H259274   6.530   4.045   4.490  0.1195 -0.2645 -0.2966
12595TIP3   OH259275   2.835   5.093  14.055  0.6018 -0.0771 -0.5860
12595TIP3    H159276   2.760   5.038  14.033  1.6240 -0.9518 -2.0181
12595TIP3    H259277   2.856   5.070  14.145 -0.7574  0.0924 -0.1999
12596TIP3   OH259278   2.656   5.268  15.901 -0.0087 -0.4299  0.2495
12596TIP3    H159279   2.564   5.253  15.878 -0.1209  1.7531 -0.9844
12596TIP3    H259280   2.679   5.194  15.957 -1.5501 -2.8030 -2.0312
12597TIP3   OH259281   3.451   1.940  12.309 -0.0259 -0.2278  0.4029
12597TIP3    H159282   3.476   1.856  12.271 -0.7953 -0.4922  0.4656
12597TIP3    H259283   3.366   1.923  12.350  0.1193  0.4177  0.9813
12598TIP3   OH259284   5.010   2.753   2.498 -0.1993 -0.1022 -0.2886
12598TIP3    H159285   5.044   2.664   2.509 -1.0818 -0.4918 -0.5492
12598TIP3    H259286   5.065   2.807   2.554  1.8115 -0.4336 -1.8575
12599TIP3   OH259287   3.306   6.543   2.702 -0.3794 -0.1817 -0.2999
12599TIP3    H159288   3.271   6.623   2.742 -1.7342 -0.1640 -1.4249
12599TIP3    H259289   3.280   6.474   2.763  0.2721  0.1639  0.3801
12600TIP3   OH259290   5.687   0.807   0.665 -0.9395 -0.0588  0.0044
12600TIP3    H159291   5.663   0.848   0.748  0.2059  3.0814 -1.0629
12600TIP3    H259292   5.763   0.753   0.687 -0.9361  0.3498  1.0895
12601TIP3   OH259293   3.153   2.176  15.952 -0.2910  0.0396  0.1940
12601TIP3    H159294   3.145   2.187  16.047 -0.2049  0.9516  0.1024
12601TIP3    H259295   3.078   2.222  15.916 -1.0570 -1.4085 -0.1422
12602TIP3   OH259296   2.790   3.102  13.754  0.3784 -0.3209  0.3561
12602TIP3    H159297   2.827   3.091  13.842  0.1630  2.8895  0.9844
12602TIP3    H259298   2.864   3.087  13.695  0.6867 -1.8638  1.0862
12603TIP3   OH259299   2.634   4.888  14.270  0.3730  0.1754  0.2625
12603TIP3    H159300   2.667   4.899  14.360  0.3595 -0.3135  0.3325
12603TIP3    H259301   2.569   4.817  14.277  1.8710 -1.3384 -0.4810
12604TIP3   OH259302   2.659   2.223  16.677  0.0060  0.1832  0.1103
12604TIP3    H159303   2.612   2.194  16.598  1.9282  1.2396 -1.4995
12604TIP3    H259304   2.594   2.215  16.747 -2.8225  2.0188 -2.0359
12605TIP3   OH259305   0.587   1.696   2.543 -0.3647  0.0477  0.1095
12605TIP3    H159306   0.507   1.643   2.549  0.7025 -1.6615 -0.2405
12605TIP3    H259307   0.593   1.739   2.628 -1.5923  0.1425  0.1760
12606TIP3   OH259308   1.231   0.140   0.884  0.0911  0.3707  0.4099
12606TIP3    H159309   1.227   0.045   0.895 -0.1625  0.1902 -1.1227
12606TIP3    H259310   1.147   0.164   0.844  0.5757  1.1002 -0.1917
12607TIP3   OH259311   4.559   6.408  15.867  0.2544  0.5265  0.0613
12607TIP3    H159312   4.582   6.326  15.910 -0.5874  0.4778  0.4410
12607TIP3    H259313   4.574   6.476  15.933  1.1977  0.7177 -0.3350
12608TIP3   OH259314   2.532   6.633   3.728 -0.1099  0.6484 -0.1806
12608TIP3    H159315   2.562   6.554   3.683  0.7041 -0.1400  1.6245
12608TIP3    H259316   2.438   6.620   3.739 -0.1970  0.5273 -1.0035
12609TIP3   OH259317   6.756   1.759   5.822 -0.4366 -0.8357 -0.1989
12609TIP3    H159318   6.708   1.763   5.904  0.8725 -0.4215  0.5861
12609TIP3    H259319   6.756   1.666   5.798  1.1924 -1.3445  1.5565
12610TIP3   OH259320   5.726   1.166  17.383  0.5521  0.0318 -0.8378
12610TIP3    H159321   5.633   1.184  17.395  0.4882 -0.3302 -0.7949
12610TIP3    H259322   5.763   1.250  17.353  0.6644  0.9172  1.5327
12611TIP3   OH259323   4.601   3.084  14.218 -0.2993 -0.1448  0.0996
12611TIP3    H159324   4.528   3.062  14.276  0.0535 -1.9387 -0.0766
12611TIP3    H259325   4.563   3.083  14.130 -0.3770  0.4360  0.1239
12612TIP3   OH259326   6.708   4.704   4.008  0.8103  0.3156  0.1140
12612TIP3    H159327   6.772   4.711   4.079  0.2578  1.0289  0.5642
12612TIP3    H259328   6.684   4.612   4.007  0.7336  0.3116  0.9638
12613TIP3   OH259329   1.745   5.955   0.940  0.3619 -0.6563  0.0273
12613TIP3    H159330   1.763   5.878   0.887  0.2782  0.7032 -2.0711
12613TIP3    H259331   1.703   5.920   1.019  1.0865 -2.8027 -0.4679
12614TIP3   OH259332   0.829   4.971   5.420 -0.4795 -0.1034 -0.1712
12614TIP3    H159333   0.738   4.997   5.435  0.0850  2.7393 -0.9809
12614TIP3    H259334   0.876   5.054   5.413  1.9273 -1.4695 -1.3164
12615TIP3   OH259335   5.293   4.167   1.937  0.2665 -0.4969 -0.1371
12615TIP3    H159336   5.247   4.089   1.970  1.6190 -1.1811  0.2142
12615TIP3    H259337   5.302   4.152   1.843 -1.9239  0.5789 -0.5953
12616TIP3   OH259338   3.558   2.381   1.603  0.2934 -0.0595  0.3327
12616TIP3    H159339   3.473   2.397   1.561  0.2987 -1.0318 -0.0672
12616TIP3    H259340   3.595   2.468   1.615 -1.4503  0.5391  1.9514
12617TIP3   OH259341   0.952   2.168  17.203 -0.5045  0.1570 -0.1874
12617TIP3    H159342   1.002   2.249  17.212 -0.1873 -0.0690  0.0626
12617TIP3    H259343   1.015   2.105  17.169 -0.4806 -0.2720  0.6474
12618TIP3   OH259344   3.510   5.567   3.093 -0.6597  0.0853  0.5538
12618TIP3    H159345   3.471   5.526   3.170  2.0723  0.4250  2.2727
12618TIP3    H259346   3.443   5.561   3.025 -2.1513 -2.8481  2.1038
12619TIP3   OH259347   5.833   1.082  14.759  0.6289 -0.3936  0.1880
12619TIP3    H159348   5.778   1.131  14.820  2.0271  0.7743  0.5559
12619TIP3    H259349   5.774   1.056  14.689 -1.0739 -1.8647  2.0344
12620TIP3   OH259350   3.766   4.759   0.790  0.1647  0.0918 -0.1228
12620TIP3    H159351   3.834   4.767   0.856  0.6874  0.0315 -0.6482
12620TIP3    H259352   3.806   4.793   0.709  0.1353 -1.4623 -0.8228
12621TIP3   OH259353   4.734   3.741  11.491 -0.4903  0.8922 -0.3458
12621TIP3    H159354   4.767   3.782  11.411  1.8126 -0.6558 -0.2804
12621TIP3    H259355   4.718   3.650  11.466 -1.4300  0.7897  0.5626
12622TIP3   OH259356   5.776   3.477   5.755 -0.2501  0.4590 -0.2769
12622TIP3    H159357   5.805   3.509   5.840 -0.0013  1.4132 -0.7081
12622TIP3    H259358   5.708   3.412   5.775 -0.5377  1.0243  0.6292
12623TIP3   OH259359   0.687   1.937   6.264  0.0450 -0.2480  0.1552
12623TIP3    H159360   0.687   1.888   6.347 -2.7206  0.2448  0.5545
12623TIP3    H259361   0.613   1.997   6.272  0.0936  0.2653 -2.4363
12624TIP3   OH259362   5.816   4.195  14.058 -0.1751  0.7651 -0.3358
12624TIP3    H159363   5.858   4.269  14.013  0.0572  2.0013  1.7427
12624TIP3    H259364   5.794   4.133  13.989  3.5905  0.7856 -1.7600
12625TIP3   OH259365   4.617   0.856  13.776 -0.2797 -0.1916  0.5913
12625TIP3    H159366   4.546   0.795  13.792 -1.3738  1.0863  0.8131
12625TIP3    H259367   4.696   0.808  13.799 -1.1950 -1.0511  2.0707
12626TIP3   OH259368   4.671   5.436  12.668  0.2111 -0.0047 -0.3090
12626TIP3    H159369   4.626   5.473  12.592  0.3887  1.2317  0.1634
12626TIP3    H259370   4.730   5.505  12.697  0.6307 -0.7042  0.5634
12627TIP3   OH259371   3.604   4.034  12.036 -0.2826  0.1330 -0.3084
12627TIP3    H159372   3.643   4.015  12.121  0.6973 -1.4025 -1.0581
12627TIP3    H259373   3.575   4.125  12.043 -2.6089 -0.6890  2.5306
12628TIP3   OH259374   1.577   5.735   2.534 -0.4111  0.6220  0.1004
12628TIP3    H159375   1.547   5.802   2.596 -1.2877  0.6194 -0.3100
12628TIP3    H259376   1.670   5.723   2.556 -0.2253  1.9679  0.1853
12629TIP3   OH259377   5.228   2.125  16.279  0.2905  0.5354 -0.5312
12629TIP3    H159378   5.285   2.061  16.321  0.1041  0.8650  0.2240
12629TIP3    H259379   5.176   2.073  16.217  0.7980  0.1052 -0.6036
12630TIP3   OH259380   1.652   0.890  11.384  0.2001 -0.0753 -0.5265
12630TIP3    H159381   1.642   0.915  11.292  0.8453 -0.0855 -0.6016
12630TIP3    H259382   1.745   0.900  11.402  0.3596 -1.6332 -0.3325
12631TIP3   OH259383   4.792   0.048  13.708 -0.0881 -0.0961  0.1639
12631TIP3    H159384   4.860   0.025  13.771  1.3720 -2.1127 -1.9533
12631TIP3    H259385   4.747  -0.035  13.691 -0.6673  0.4673 -1.1469
12632TIP3   OH259386   2.485   5.751   1.288 -0.1014 -0.3668  0.0217
12632TIP3    H159387   2.509   5.830   1.238  1.1434 -0.8989 -0.2479
12632TIP3    H259388   2.494   5.679   1.225  0.0079 -0.8751  0.6120
12633TIP3   OH259389   6.437   0.159  11.667  0.0141  0.3972  0.0638
12633TIP3    H159390   6.390   0.096  11.612 -0.2474 -1.3307  2.1591
12633TIP3    H259391   6.397   0.151  11.753  1.8243  1.4339  1.0613
12634TIP3   OH259392   2.020   4.276  17.221  0.2245 -0.3790 -0.2927
12634TIP3    H159393   1.987   4.215  17.288  1.3545  0.7955  1.4217
12634TIP3    H259394   2.113   4.284  17.240  0.4814  0.3698 -1.7450
12635TIP3   OH259395   2.897   5.834  12.908  0.0219 -0.2719 -0.1436
12635TIP3    H159396   2.825   5.796  12.858 -1.1214  0.9129  0.5670
12635TIP3    H259397   2.890   5.928  12.892  0.7212 -0.0427  0.8490
12636TIP3   OH259398   1.816   6.215  12.648 -0.5811  0.5496  0.1816
12636TIP3    H159399   1.840   6.155  12.577  1.5758 -0.8972  2.0083
12636TIP3    H259400   1.851   6.299  12.621 -1.9129  0.6221 -1.5164
12637TIP3   OH259401   1.674   1.671  15.889 -0.3557 -0.0595  0.1191
12637TIP3    H159402   1.648   1.644  15.801  2.6353 -4.0035  0.1412
12637TIP3    H259403   1.647   1.598  15.945  2.4199 -0.1642  1.4832
12638TIP3   OH259404   4.830   2.322   0.431 -0.6506  0.0122 -0.2933
12638TIP3    H159405   4.744   2.305   0.470 -1.4728  0.2685 -1.9141
12638TIP3    H259406   4.871   2.235   0.426 -1.3382 -0.3048 -0.6412
12639TIP3   OH259407   4.307   2.806  16.909  0.1427  0.1284  0.1301
12639TIP3    H159408   4.259   2.772  16.834  2.2609 -1.7942 -0.4661
12639TIP3    H259409   4.310   2.734  16.971  1.2145  0.5799  0.6351
12640TIP3   OH259410   3.741   1.277  16.535  0.3832  0.5194  0.7570
12640TIP3    H159411   3.722   1.371  16.539  0.1621  0.4591  1.2517
12640TIP3    H259412   3.691   1.239  16.608  1.7494  0.2329  1.5752
12641TIP3   OH259413   5.829   0.269   3.951  0.0294 -0.3059 -0.5477
12641TIP3    H159414   5.796   0.183   3.926 -0.3366 -0.4111  0.2737
12641TIP3    H259415   5.806   0.278   4.043 -1.8809  1.5572 -1.1218
12642TIP3   OH259416   2.994   3.361  12.533  0.3398 -0.2682  0.1235
12642TIP3    H159417   3.044   3.355  12.452 -1.2201 -1.3887 -0.8084
12642TIP3    H259418   3.055   3.335  12.602  1.1581 -1.1390 -0.9112
12643TIP3   OH259419   3.714   3.897  12.735 -0.6144 -0.3643 -0.5000
12643TIP3    H159420   3.753   3.985  12.740 -1.6270  0.1085 -0.6864
12643TIP3    H259421   3.789   3.839  12.726  0.5829 -0.0523  4.3838
12644TIP3   OH259422   5.914   0.624  14.547  0.3830  0.0903 -0.0559
12644TIP3    H159423   5.919   0.541  14.594  2.9363 -1.0134 -2.0263
12644TIP3    H259424   5.944   0.690  14.609  1.3640 -0.9585  0.6104
12645TIP3   OH259425   4.431   3.062  13.639 -0.6231  0.2616  0.6063
12645TIP3    H159426   4.402   2.984  13.592  1.1328 -0.8047  1.1906
12645TIP3    H259427   4.391   3.135  13.592 -3.0646 -0.9839  0.5703
12646TIP3   OH259428   3.525   6.631  13.876  0.7702 -0.4637 -0.0539
12646TIP3    H159429   3.519   6.542  13.839 -0.2285 -0.8305  0.9322
12646TIP3    H259430   3.522   6.689  13.800 -1.3340 -1.1995 -0.5861
12647TIP3   OH259431   4.266   0.553  14.288  0.5815  1.0396  0.5458
12647TIP3    H159432   4.238   0.642  14.268  1.1112  1.0631 -0.1433
12647TIP3    H259433   4.322   0.563  14.365  1.6231  1.4868 -0.2343
12648TIP3   OH259434   1.212   4.731   2.792 -0.1480  0.0001  0.0213
12648TIP3    H159435   1.276   4.663   2.812 -1.1665 -0.4266  2.0520
12648TIP3    H259436   1.128   4.686   2.789 -0.6772  0.9505  0.0574
12649TIP3   OH259437   6.330   3.043  12.824  0.2772  0.2032  0.0600
12649TIP3    H159438   6.349   3.120  12.877  0.8655 -0.2031  0.4505
12649TIP3    H259439   6.235   3.045  12.812  0.4839  2.3237 -1.9868
12650TIP3   OH259440   6.363   4.983  13.644 -0.2485 -0.3516  0.2334
12650TIP3    H159441   6.293   5.048  13.650 -0.4072 -0.4524 -0.4863
12650TIP3    H259442   6.350   4.940  13.560 -0.6050 -1.8493  1.0054
12651TIP3   OH259443   0.839   2.181   1.969  0.2217 -0.5652 -0.4822
12651TIP3    H159444   0.845   2.175   2.064  1.7146 -3.0101 -0.6460
12651TIP3    H259445   0.753   2.144   1.948  0.5517 -1.5458 -0.1521
12652TIP3   OH259446   6.308   3.860  11.854  0.3118  0.1607  0.7269
12652TIP3    H159447   6.307   3.802  11.777 -1.5769  0.2626  0.6418
12652TIP3    H259448   6.296   3.948  11.818 -0.3854  0.2303  1.1178
12653TIP3   OH259449   4.431   3.147   1.892 -0.1375  0.2090  0.2189
12653TIP3    H159450   4.465   3.124   1.978  0.6192 -0.0976 -0.1486
12653TIP3    H259451   4.410   3.063   1.851 -0.3674  0.3467  0.0516
12654TIP3   OH259452   0.920   6.221  12.954  0.3590 -0.0033 -0.1521
12654TIP3    H159453   0.951   6.291  12.896  3.6083  1.5019  3.0067
12654TIP3    H259454   0.958   6.141  12.918  0.3794  0.5075 -1.3138
12655TIP3   OH259455   3.036   4.949  11.829  0.0877 -0.5413 -0.3518
12655TIP3    H159456   2.983   4.906  11.762 -1.7199  0.8905  0.0817
12655TIP3    H259457   3.123   4.911  11.818 -0.8207 -2.4297 -1.6004
12656TIP3   OH259458   4.122   1.697  14.147  0.2829 -0.4986  0.5281
12656TIP3    H159459   4.117   1.792  14.135 -2.1660 -0.5308  0.7455
12656TIP3    H259460   4.126   1.685  14.242  0.5045 -0.6242  0.5033
12657TIP3   OH259461   2.807   1.774  13.559 -0.4175  0.6544 -0.0629
12657TIP3    H159462   2.814   1.792  13.653  1.4172 -0.1993  0.0053
12657TIP3    H259463   2.868   1.702  13.543 -2.3954 -0.8573 -1.5295
12658TIP3   OH259464   0.235   5.121   0.505 -0.1073 -0.2182  0.0543
12658TIP3    H159465   0.203   5.162   0.585 -2.5074 -1.6965 -0.0494
12658TIP3    H259466   0.156   5.096   0.457  1.2532 -0.2623 -2.3448
12659TIP3   OH259467   3.764   0.011   4.721  0.3668  0.1457  0.2721
12659TIP3    H159468   3.697   0.055   4.669 -1.3531 -1.7072  0.8117
12659TIP3    H259469   3.764   0.059   4.804 -1.7435 -0.9292  0.9863
12660TIP3   OH259470   2.498   1.832  10.834  0.2950 -0.6255 -0.0930
12660TIP3    H159471   2.523   1.918  10.869 -4.0690  1.0324 -0.3758
12660TIP3    H259472   2.581   1.786  10.822  2.7504  2.7117  2.0880
12661TIP3   OH259473   2.373   5.346   0.990  0.1772  0.4630  0.7553
12661TIP3    H159474   2.350   5.314   1.078 -1.0145 -0.4183  0.1612
12661TIP3    H259475   2.357   5.271   0.933 -0.0790  1.3332 -0.3501
12662TIP3   OH259476   5.998   0.966  15.976 -0.1667  0.0447  0.3052
12662TIP3    H159477   5.964   1.031  16.038  1.5875  0.7529  0.5873
12662TIP3    H259478   6.031   1.017  15.903  1.6518 -0.4644  0.7269
12663TIP3   OH259479   0.432   3.566  12.699  0.3415  0.2386  0.1196
12663TIP3    H159480   0.465   3.477  12.688  0.9572  0.4953 -0.1732
12663TIP3    H259481   0.471   3.615  12.626 -0.3114  0.6598  0.0461
12664TIP3   OH259482   2.329   3.756  13.747  0.5898 -0.5126 -0.0417
12664TIP3    H159483   2.368   3.744  13.833  2.1574  1.0030 -0.4772
12664TIP3    H259484   2.297   3.846  13.747  0.9282 -0.3798 -1.1581
12665TIP3   OH259485   4.865   1.522   0.087  0.2303 -0.1053  1.0744
12665TIP3    H159486   4.875   1.607   0.131 -1.8655  0.5316  0.4695
12665TIP3    H259487   4.950   1.504   0.048  0.2882  2.6646 -0.3447
12666TIP3   OH259488   2.737   0.190   0.250  0.0915  0.4748 -0.2194
12666TIP3    H159489   2.706   0.279   0.266 -2.4984 -0.7031  2.1536
12666TIP3    H259490   2.777   0.162   0.333 -2.2194 -1.6126  0.3274
12667TIP3   OH259491   6.160   4.947   1.207 -0.2632  0.0440  0.5226
12667TIP3    H159492   6.165   4.968   1.300  1.6166 -0.6091  0.6181
12667TIP3    H259493   6.206   5.019   1.163  1.9692 -1.3340  0.4532
12668TIP3   OH259494   1.886   5.542  13.552  0.0775 -0.2341  0.1546
12668TIP3    H159495   1.921   5.571  13.636  0.4243 -0.6113  0.1431
12668TIP3    H259496   1.952   5.568  13.488  0.7231 -1.6153  0.2183
12669TIP3   OH259497   0.378   2.883   2.414  0.1242  0.3588  0.0802
12669TIP3    H159498   0.312   2.813   2.410  0.1267  0.2984  0.8569
12669TIP3    H259499   0.436   2.857   2.486 -1.0027  2.1202  1.7252
12670TIP3   OH259500   4.228   1.868  12.715 -0.1523  0.0993 -0.1757
12670TIP3    H159501   4.174   1.945  12.698  0.3782  0.1489 -1.7483
12670TIP3    H259502   4.202   1.805  12.648 -0.1328 -0.8796  0.7104
12671TIP3   OH259503   1.712   1.932  14.305 -0.2513  0.6015  0.2626
12671TIP3    H159504   1.702   1.981  14.223  0.4368  0.1674 -0.0850
12671TIP3    H259505   1.795   1.886  14.296 -0.5773 -0.1283  0.8582
12672TIP3   OH259506   0.215   5.848   4.068  0.1804 -0.3431 -0.0617
12672TIP3    H159507   0.281   5.910   4.037  0.4109 -0.2825  0.5414
12672TIP3    H259508   0.190   5.880   4.155 -0.7917 -0.2545 -0.3614
12673TIP3   OH259509   0.170   1.977  12.851 -0.1259  0.0771 -0.6673
12673TIP3    H159510   0.119   1.904  12.815 -0.3655  0.8660 -1.9581
12673TIP3    H259511   0.165   2.045  12.785 -0.3024  1.4697  0.7133
12674TIP3   OH259512   3.810   1.979  14.279  0.0248  0.0307 -0.2878
12674TIP3    H159513   3.891   2.023  14.305 -0.9631 -0.5578  4.7057
12674TIP3    H259514   3.813   1.894  14.323 -1.7166 -1.6664 -3.1175
12675TIP3   OH259515   1.898   2.245   5.254  0.5369  0.2793 -0.3630
12675TIP3    H159516   1.877   2.304   5.327 -0.3742 -0.7507  0.2247
12675TIP3    H259517   1.984   2.208   5.276  0.0182 -0.4470  0.4775
12676TIP3   OH259518   1.768   3.428   0.816 -0.3686  0.4443 -0.0689
12676TIP3    H159519   1.760   3.333   0.830  0.9249 -0.0393 -2.1880
12676TIP3    H259520   1.845   3.438   0.760 -0.1039  2.8376  0.5999
12677TIP3   OH259521   0.693   0.453   4.364 -0.1101  0.1497  0.4195
12677TIP3    H159522   0.688   0.396   4.287 -0.1067 -0.6802  1.0083
12677TIP3    H259523   0.752   0.524   4.339  1.2029 -0.9746  0.1808
12678TIP3   OH259524   4.584   4.588  14.667  0.2081 -0.0659  0.0922
12678TIP3    H159525   4.604   4.633  14.749 -0.6479 -0.8891  0.7793
12678TIP3    H259526   4.491   4.605  14.653  0.6486  1.2996 -1.5133
12679TIP3   OH259527   4.874   5.197   4.107  0.3026 -1.1565  0.0321
12679TIP3    H159528   4.879   5.112   4.065  1.3269 -0.6116 -1.0059
12679TIP3    H259529   4.917   5.257   4.046 -0.1391  0.0575  0.8646
12680TIP3   OH259530   2.954   0.545   2.970  0.4053 -0.4055  0.1543
12680TIP3    H159531   2.952   0.481   3.042 -1.6619 -1.5023 -0.7835
12680TIP3    H259532   2.902   0.504   2.901 -1.2803  2.4390 -0.3856
12681TIP3   OH259533   3.385   6.772   0.688  0.0876  0.2558  0.3995
12681TIP3    H159534   3.297   6.736   0.698 -0.8733  2.2108 -0.4329
12681TIP3    H259535   3.409   6.800   0.776 -0.1877 -0.1451  0.6060
12682TIP3   OH259536   2.651   0.114   3.701 -0.3713 -0.1516 -0.0852
12682TIP3    H159537   2.727   0.073   3.741 -1.9318 -2.1157  1.0152
12682TIP3    H259538   2.583   0.046   3.702 -2.6123  1.9526  0.3267
12683TIP3   OH259539   5.946   6.774   5.951  0.5523  0.1422  0.4386
12683TIP3    H159540   6.025   6.732   5.984  0.1453 -0.8218  0.2096
12683TIP3    H259541   5.891   6.702   5.921 -0.3162  0.8139  0.3748
12684TIP3   OH259542   6.376   5.553   2.485  0.0316  0.2174 -0.4474
12684TIP3    H159543   6.368   5.505   2.567  0.7426 -0.1335 -0.5746
12684TIP3    H259544   6.437   5.624   2.504 -0.7803  0.9041 -0.3421
12685TIP3   OH259545   3.335   6.651  11.147  0.3091  0.1033 -0.2300
12685TIP3    H159546   3.349   6.707  11.070 -0.1198  0.8625  0.2307
12685TIP3    H259547   3.353   6.563  11.116 -0.8828  0.2748 -1.4940
12686TIP3   OH259548   4.505   4.956   5.194  0.3307 -0.1258 -0.2090
12686TIP3    H159549   4.471   5.045   5.190  0.7731  0.0521  0.0002
12686TIP3    H259550   4.478   4.917   5.110  0.2270  0.2313 -0.3451
12687TIP3   OH259551   4.756   5.840   5.487  0.1976 -0.4210  0.0656
12687TIP3    H159552   4.796   5.826   5.573 -0.0655  0.6865  0.3843
12687TIP3    H259553   4.772   5.932   5.468 -1.3664 -0.1827 -0.2231
12688TIP3   OH259554   0.569   6.300  12.024  0.0500 -0.1466  0.5559
12688TIP3    H159555   0.641   6.278  11.965 -0.1003 -1.3526  0.7998
12688TIP3    H259556   0.610   6.312  12.109  0.1798  0.9598  0.3598
12689TIP3   OH259557   6.575   2.531   2.499 -0.5279 -0.5093  0.4635
12689TIP3    H159558   6.540   2.592   2.564 -0.8054 -0.6349  0.4313
12689TIP3    H259559   6.573   2.579   2.417  0.9291  0.0801  0.7346
12690TIP3   OH259560   5.702   2.741   4.925 -0.0633 -0.0251 -0.6287
12690TIP3    H159561   5.714   2.749   5.020 -0.2801  1.6271 -0.7067
12690TIP3    H259562   5.610   2.764   4.911 -0.0340 -0.2709 -1.2422
12691TIP3   OH259563   5.333   0.906   6.282 -0.0818 -0.1242  0.3663
12691TIP3    H159564   5.318   0.915   6.376 -1.1517  0.0773  0.1826
12691TIP3    H259565   5.364   0.992   6.254  0.2400 -0.1849  0.5303
12692TIP3   OH259566   6.567   2.415   0.089 -0.2853  0.1524  0.4871
12692TIP3    H159567   6.582   2.454   0.175 -1.4711  0.5612  0.5227
12692TIP3    H259568   6.640   2.448   0.036 -1.9787  3.7953  0.0899
12693TIP3   OH259569   5.895   6.351  12.212 -0.4516 -0.6258  0.4822
12693TIP3    H159570   5.851   6.394  12.139  0.4165 -0.4095  0.0745
12693TIP3    H259571   5.952   6.419  12.249 -0.2018 -0.9970  0.7852
12694TIP3   OH259572   3.040   1.059   0.367  0.1905  0.0029 -0.0214
12694TIP3    H159573   2.974   1.023   0.427 -0.3530  0.0853 -0.5609
12694TIP3    H259574   2.991   1.119   0.311  0.3016 -1.5310 -1.8492
12695TIP3   OH259575   2.035   1.392   4.070  0.2767 -0.1877  0.3527
12695TIP3    H159576   2.065   1.389   3.979 -1.7059 -0.8429 -0.3221
12695TIP3    H259577   2.026   1.300   4.096  0.7275 -0.0049  1.1915
12696TIP3   OH259578   4.706   2.810  16.593 -0.1962  0.0841  0.0839
12696TIP3    H159579   4.629   2.860  16.622 -0.5001  0.4826 -1.3733
12696TIP3    H259580   4.750   2.867  16.531  0.4575 -0.7379 -0.2235
12697TIP3   OH259581   4.739   3.421   3.469  0.1806  0.0094 -0.5635
12697TIP3    H159582   4.743   3.332   3.435  1.0951  0.2999 -1.2302
12697TIP3    H259583   4.775   3.476   3.400 -1.5458  1.0726 -0.6915
12698TIP3   OH259584   4.009   5.768  16.235 -0.0368 -0.2168 -0.6414
12698TIP3    H159585   4.034   5.861  16.235  0.2396 -0.2724  0.4619
12698TIP3    H259586   3.941   5.761  16.302  1.0107 -1.0542  0.3847
12699TIP3   OH259587   1.918   1.232   4.345 -0.6212  0.0524  0.4368
12699TIP3    H159588   2.005   1.205   4.317 -1.5339 -1.5570 -1.0574
12699TIP3    H259589   1.909   1.196   4.433  0.7902  1.6987  1.3269
12700TIP3   OH259590   0.573   5.300   5.998  0.2096  0.1946  0.5535
12700TIP3    H159591   0.552   5.224   6.052 -0.5048 -0.9701 -1.2645
12700TIP3    H259592   0.604   5.263   5.916  0.4249  1.8843 -0.1736
12701TIP3   OH259593   3.312   6.238  11.457  0.1892  0.2804 -0.3668
12701TIP3    H159594   3.388   6.229  11.515 -0.0366  1.8476  0.2255
12701TIP3    H259595   3.331   6.313  11.402 -1.6302  1.8609  1.0108
12702TIP3   OH259596   1.384   0.465   6.166 -0.3711 -0.6149 -0.1463
12702TIP3    H159597   1.298   0.446   6.204 -0.2568 -3.8702 -1.1890
12702TIP3    H259598   1.371   0.543   6.113 -1.4807  1.7288  3.2588
12703TIP3   OH259599   3.402   0.659  16.328 -0.1294  0.2367 -0.7713
12703TIP3    H159600   3.404   0.746  16.369  0.3545  0.2242 -0.7622
12703TIP3    H259601   3.337   0.610  16.379  1.8216 -0.4022  1.3237
12704TIP3   OH259602   3.371   1.522  14.345 -0.0677 -0.6660  0.2424
12704TIP3    H159603   3.420   1.460  14.290  1.0847 -0.2940  0.8119
12704TIP3    H259604   3.438   1.563  14.399 -0.7688  1.2650 -0.2729
12705TIP3   OH259605   0.709   5.939   4.627 -0.2555 -0.5092  0.5824
12705TIP3    H159606   0.710   5.864   4.568 -2.4679  0.0099 -0.1951
12705TIP3    H259607   0.778   5.996   4.593 -2.3708  0.4470 -2.5703
12706TIP3   OH259608   2.499   1.728  15.660  0.3410 -0.2211 -0.4668
12706TIP3    H159609   2.404   1.732  15.656  0.2646 -0.1167  0.9603
12706TIP3    H259610   2.518   1.701  15.750  1.6579 -0.1253 -0.6984
12707TIP3   OH259611   5.609   3.506   4.355  0.1441 -0.1439 -0.3287
12707TIP3    H159612   5.565   3.562   4.292 -0.9335 -0.8223 -0.2102
12707TIP3    H259613   5.699   3.538   4.358  0.3092 -0.3141 -2.4609
12708TIP3   OH259614   3.771   6.679  15.497 -0.8743  0.0145  0.1282
12708TIP3    H159615   3.772   6.591  15.534 -2.0797  0.1240  0.4852
12708TIP3    H259616   3.827   6.730  15.555 -0.2444 -0.4836 -0.0257
12709TIP3   OH259617   6.626   5.387   0.879 -0.1498 -0.2829  0.3127
12709TIP3    H159618   6.571   5.309   0.888  0.8677 -0.9681  0.9077
12709TIP3    H259619   6.649   5.390   0.786 -0.7613 -0.2886  0.1609
12710TIP3   OH259620   2.062   4.103  15.060 -0.7243  0.5145 -0.4163
12710TIP3    H159621   1.978   4.149  15.049 -1.2781  0.0417  1.4652
12710TIP3    H259622   2.097   4.138  15.142 -0.2282 -0.9945  0.0457
12711TIP3   OH259623   0.437   0.695   6.183 -0.4526  0.0395 -0.1356
12711TIP3    H159624   0.451   0.606   6.150 -0.6375  0.4027 -1.2359
12711TIP3    H259625   0.432   0.685   6.278  2.9198 -0.7075  0.0854
12712TIP3   OH259626   4.728   2.679   0.446  0.2168 -0.1143 -0.4502
12712TIP3    H159627   4.730   2.760   0.395  1.2700  0.4709  0.4797
12712TIP3    H259628   4.798   2.625   0.408  0.7981  0.1996  0.1593
12713TIP3   OH259629   6.506   5.951  15.106  0.0835  0.5602  0.4717
12713TIP3    H159630   6.601   5.949  15.111  0.1369  0.2852 -0.4582
12713TIP3    H259631   6.477   5.884  15.168  0.4951  0.5555  0.6627
12714TIP3   OH259632   5.744   4.877  11.965  0.4772 -0.4449 -0.4541
12714TIP3    H159633   5.772   4.812  11.900 -0.9666  0.8253 -2.4651
12714TIP3    H259634   5.774   4.961  11.930  0.4162  0.2139  0.9986
12715TIP3   OH259635   0.838   4.256   0.526  0.1199  0.3164 -0.8061
12715TIP3    H159636   0.892   4.241   0.448 -0.3626  1.3244 -1.3505
12715TIP3    H259637   0.749   4.237   0.499 -0.0710  0.8106 -0.5501
12716TIP3   OH259638   2.083   4.737   0.268  0.3531  0.0791  1.0534
12716TIP3    H159639   2.111   4.807   0.209  0.1918 -0.6492  0.0863
12716TIP3    H259640   2.020   4.686   0.217 -0.8427  0.2118  2.3311
12717TIP3   OH259641   2.666   2.891   4.499  0.0686  0.5360 -0.6632
12717TIP3    H159642   2.585   2.852   4.529 -0.0784 -0.5071 -2.2801
12717TIP3    H259643   2.724   2.887   4.575 -0.8039 -0.4036 -0.0154
12718TIP3   OH259644   0.332   1.882   1.258  0.2865  0.1715  0.2204
12718TIP3    H159645   0.243   1.857   1.285 -0.1521 -0.3870 -1.6407
12718TIP3    H259646   0.379   1.895   1.341 -1.0106 -1.3350  1.2507
12719TIP3   OH259647   5.766   2.932  16.027 -0.5584 -0.7467  0.1861
12719TIP3    H159648   5.853   2.922  16.066 -1.5937 -1.1929  2.5526
12719TIP3    H259649   5.743   3.023  16.043 -0.4300 -0.5495 -0.7045
12720TIP3   OH259650   6.309   6.719   4.879 -0.1126 -0.0039 -0.5396
12720TIP3    H159651   6.325   6.794   4.823  0.5421  0.3443  0.0998
12720TIP3    H259652   6.393   6.701   4.920 -0.9382  0.8331  1.6587
12721TIP3   OH259653   3.800   0.942   2.655  0.1784  0.9032 -0.6596
12721TIP3    H159654   3.851   1.020   2.637 -0.1168  1.4435  0.7127
12721TIP3    H259655   3.710   0.965   2.632  0.3527  0.3013 -2.0702
12722TIP3   OH259656   3.152   0.452   6.079  0.3564 -0.0834  0.0172
12722TIP3    H159657   3.245   0.474   6.076  0.7425 -1.5223  0.5223
12722TIP3    H259658   3.148   0.371   6.131 -1.0761 -0.5484 -0.7651
12723TIP3   OH259659   5.573   2.454  11.970  0.1338 -0.1013  0.4013
12723TIP3    H159660   5.560   2.541  11.933  0.7262 -0.6863 -1.2989
12723TIP3    H259661   5.600   2.469  12.061 -1.4979  1.4033  0.6674
12724TIP3   OH259662   4.821   4.263   6.539  0.8986  0.6499  0.2778
12724TIP3    H159663   4.739   4.283   6.494  1.5003 -2.0017 -2.3579
12724TIP3    H259664   4.794   4.234   6.626 -1.2211 -1.4940 -0.9681
12725TIP3   OH259665   3.657   2.173   1.707 -0.2373  0.0948  0.0084
12725TIP3    H159666   3.723   2.142   1.645 -0.3016 -0.0079 -0.0079
12725TIP3    H259667   3.622   2.253   1.666  1.0826  1.1308  0.8066
12726TIP3   OH259668   0.334   5.263  12.104 -0.3745 -0.2685  0.4135
12726TIP3    H159669   0.363   5.298  12.188 -0.0021 -1.7325  0.9227
12726TIP3    H259670   0.403   5.288  12.042  0.2876 -0.7613  0.9304
12727TIP3   OH259671   2.568   3.281   4.040 -0.0842  0.7054 -0.1324
12727TIP3    H159672   2.646   3.294   4.094 -0.5596  1.9644  0.2820
12727TIP3    H259673   2.503   3.342   4.076 -1.4019 -0.5698 -0.2204
12728TIP3   OH259674   5.879   0.759   2.441  0.7303  0.6409  0.1977
12728TIP3    H159675   5.933   0.795   2.511 -0.4687 -1.9426  2.6574
12728TIP3    H259676   5.822   0.696   2.485 -1.4297  0.2448 -2.8734
12729TIP3   OH259677   2.422   4.167   1.506 -0.6228  0.1623 -0.4074
12729TIP3    H159678   2.426   4.161   1.410  0.5567  0.5979 -0.3902
12729TIP3    H259679   2.485   4.235   1.529  0.5390 -1.2524  0.8096
12730TIP3   OH259680   4.561   6.146  15.924 -0.3177  0.7434  0.1292
12730TIP3    H159681   4.565   6.079  15.855  0.3737 -0.3012  1.1618
12730TIP3    H259682   4.645   6.139  15.969 -0.6033  1.6943  0.8317
12731TIP3   OH259683   0.815   1.541   0.395  0.4501  0.6101  0.2876
12731TIP3    H159684   0.889   1.596   0.370 -0.4056  2.7844  2.2039
12731TIP3    H259685   0.855   1.469   0.445  1.4005  0.7528 -0.2332
12732TIP3   OH259686   4.333   6.576   6.226 -0.3060 -0.3135 -0.3311
12732TIP3    H159687   4.336   6.552   6.319  2.4246 -0.0147 -0.2752
12732TIP3    H259688   4.314   6.494   6.181 -1.2820 -0.5338  0.4396
12733TIP3   OH259689   2.525   1.111  13.294  0.3078 -0.4264 -0.2264
12733TIP3    H159690   2.568   1.052  13.232 -1.2164 -2.3612  0.4147
12733TIP3    H259691   2.449   1.145  13.247 -0.7729 -1.7875  0.4489
12734TIP3   OH259692   3.348   1.424  13.724  0.3220 -0.0263 -0.4458
12734TIP3    H159693   3.443   1.418  13.734  0.4190 -0.6464 -1.5633
12734TIP3    H259694   3.314   1.426  13.814  1.4780  2.3800 -0.0055
12735TIP3   OH259695   2.338   3.599   4.615 -0.3087  0.0263 -0.0354
12735TIP3    H159696   2.303   3.510   4.610  0.9026 -0.4675 -0.2439
12735TIP3    H259697   2.264   3.656   4.593 -1.4465 -0.8390  1.3454
12736TIP3   OH259698   6.275   0.763  14.875 -0.0731  0.0111  0.1987
12736TIP3    H159699   6.282   0.835  14.813 -0.4810 -0.8547 -0.8857
12736TIP3    H259700   6.205   0.789  14.935  0.5525  1.0020  0.5069
12737TIP3   OH259701   2.894   6.747   0.347 -0.1107 -0.2409  0.0770
12737TIP3    H159702   2.909   6.765   0.254 -0.0140  3.1524  0.6263
12737TIP3    H259703   2.979   6.762   0.388 -0.5515 -0.0376  0.9268
12738TIP3   OH259704   1.055   2.257   5.617 -0.3043  0.4108 -0.3414
12738TIP3    H159705   1.142   2.288   5.642  0.0443 -0.5075 -0.3892
12738TIP3    H259706   1.061   2.247   5.522 -0.5370  0.5495 -0.3715
12739TIP3   OH259707   2.500   6.124  14.134 -0.2960 -0.2202 -0.5169
12739TIP3    H159708   2.418   6.126  14.184 -0.3167 -0.3129 -0.5457
12739TIP3    H259709   2.514   6.215  14.106  0.4436  0.0964  0.8167
12740TIP3   OH259710   1.854   2.503   4.662  0.4110 -0.2075 -0.5025
12740TIP3    H159711   1.842   2.597   4.646 -0.9639 -0.3506 -0.4229
12740TIP3    H259712   1.929   2.479   4.607  0.3610  0.8039 -1.0435
12741TIP3   OH259713   6.016   4.186  12.779  0.5828 -0.4297  0.0728
12741TIP3    H159714   5.993   4.094  12.788  1.2725 -0.4777  1.7390
12741TIP3    H259715   5.948   4.232  12.829 -0.4804  0.0965 -1.7904
12742TIP3   OH259716   0.159   2.646   5.541 -0.0648  0.4626  0.0034
12742TIP3    H159717   0.204   2.583   5.485 -1.2522  0.9735 -1.6003
12742TIP3    H259718   0.212   2.649   5.621  2.6207  0.8754 -1.6705
12743TIP3   OH259719   2.215   4.011  12.351  0.3609  0.3105 -0.3416
12743TIP3    H159720   2.248   3.999  12.262  1.8703 -0.0239  0.2244
12743TIP3    H259721   2.149   3.942  12.361  1.1083 -0.4912 -0.7869
12744TIP3   OH259722   2.387   2.587   6.756 -0.9140 -0.0414 -0.2310
12744TIP3    H159723   2.326   2.638   6.704  2.1714  3.7679 -0.5863
12744TIP3    H259724   2.344   2.576   6.841 -2.3631  1.8540 -0.6702
12745TIP3   OH259725   4.153   5.447  14.863 -0.3536  0.1042  0.0001
12745TIP3    H159726   4.179   5.453  14.955 -0.8831 -0.3678  0.1875
12745TIP3    H259727   4.114   5.531  14.843 -1.0525 -0.1038  0.4713
12746TIP3   OH259728   4.760   5.418  14.305 -0.0151 -0.6501  0.9042
12746TIP3    H159729   4.726   5.374  14.227 -0.7170 -0.6449  1.2032
12746TIP3    H259730   4.684   5.428  14.363 -0.1546  1.9701  0.3982
12747TIP3   OH259731   2.691   6.421  13.288  0.1375  0.6660 -0.0636
12747TIP3    H159732   2.730   6.470  13.360 -0.6458 -0.3580  1.1109
12747TIP3    H259733   2.599   6.412  13.313 -0.3398  0.9667 -1.5982
12748TIP3   OH259734   2.609   6.389  16.975 -0.2917  0.1996 -0.6786
12748TIP3    H159735   2.587   6.421  16.887 -0.5029  0.5360 -0.5050
12748TIP3    H259736   2.576   6.299  16.976  1.5837 -0.5690 -1.6690
12749TIP3   OH259737   0.977   4.751   3.571  0.2299 -0.3772 -0.2173
12749TIP3    H159738   0.898   4.754   3.518  0.2602 -1.3507 -0.3416
12749TIP3    H259739   1.040   4.806   3.524  0.3613 -1.4861 -1.4023
12750TIP3   OH259740   6.014   4.577   5.670 -0.4916 -0.2181  0.8275
12750TIP3    H159741   6.072   4.544   5.739 -0.6993 -0.7090  0.7744
12750TIP3    H259742   5.978   4.498   5.630  0.8185  0.0012 -0.8759
12751TIP3   OH259743   5.730   6.495  12.624 -0.3674  0.1851 -0.6784
12751TIP3    H159744   5.639   6.479  12.646  0.4369 -2.4655  1.3130
12751TIP3    H259745   5.738   6.467  12.533 -1.5696  0.6986 -0.9530
12752TIP3   OH259746   0.006   3.624  13.457 -0.4595 -0.7410 -0.1974
12752TIP3    H159747  -0.026   3.608  13.369 -1.6290  1.7871 -0.3083
12752TIP3    H259748   0.101   3.633  13.447 -0.3664 -2.2649 -0.8642
12753TIP3   OH259749   3.230   4.452   1.530 -0.0915  0.1178  0.6602
12753TIP3    H159750   3.181   4.531   1.554  1.4118  1.7249 -1.2162
12753TIP3    H259751   3.163   4.392   1.496 -1.0504  1.4103  0.1762
12754TIP3   OH259752   2.180   4.091   2.521  0.0381  0.1411  0.1804
12754TIP3    H159753   2.126   4.021   2.483  0.9772 -0.0457 -0.8792
12754TIP3    H259754   2.259   4.091   2.467  0.6543  1.0884  1.0613
12755TIP3   OH259755   4.968   2.951  10.513  0.4782 -0.7324  0.0270
12755TIP3    H159756   5.008   2.982  10.595  0.3604 -1.1038  0.2273
12755TIP3    H259757   5.040   2.913  10.464  0.7568  0.4552 -0.5217
12756TIP3   OH259758   0.175   2.652   4.321  0.2481 -0.6158  0.0936
12756TIP3    H159759   0.136   2.698   4.397  1.3903  0.9941 -0.2442
12756TIP3    H259760   0.100   2.631   4.266 -0.4896 -0.7815  1.1164
12757TIP3   OH259761   1.597   3.082  12.697  0.0519  0.6312 -0.1647
12757TIP3    H159762   1.623   3.048  12.782 -0.2843 -0.0687 -0.3373
12757TIP3    H259763   1.517   3.133  12.714 -0.6568 -0.4342 -0.2195
12758TIP3   OH259764   0.524   3.158  11.519  0.0700 -0.6040 -0.3398
12758TIP3    H159765   0.608   3.204  11.521  0.1027 -0.5646 -1.6839
12758TIP3    H259766   0.469   3.212  11.463 -0.7984 -0.7302  0.3829
12759TIP3   OH259767   4.162   1.631   2.726 -0.5047 -0.3915  0.0351
12759TIP3    H159768   4.246   1.604   2.762 -1.7694 -2.4474  1.6901
12759TIP3    H259769   4.144   1.569   2.656 -0.7444 -0.0996 -0.1648
12760TIP3   OH259770   2.012   4.405   1.183  0.3608 -0.7747 -0.4511
12760TIP3    H159771   2.059   4.387   1.264 -1.5843 -1.7217  0.5449
12760TIP3    H259772   2.007   4.501   1.178  3.5619 -0.5516 -1.3908
12761TIP3   OH259773   0.113   1.532   4.034 -0.3837 -0.3273  0.3907
12761TIP3    H159774   0.151   1.454   3.994  1.2055  0.4031  0.3961
12761TIP3    H259775   0.102   1.508   4.126  1.4350 -0.1333  0.7017
12762TIP3   OH259776   0.393   5.627   4.787 -0.5374 -0.1235  0.3445
12762TIP3    H159777   0.392   5.643   4.881 -0.4864 -1.1069  0.5284
12762TIP3    H259778   0.406   5.713   4.747 -0.0588  0.2333  1.2582
12763TIP3   OH259779   1.417   4.418   4.403  0.2421  0.0103 -0.2500
12763TIP3    H159780   1.409   4.463   4.486  2.7872  1.7110 -0.7919
12763TIP3    H259781   1.477   4.473   4.352  1.9723 -2.9577 -1.7028
12764TIP3   OH259782   3.803   3.394  15.374  0.0778 -0.1773  0.2559
12764TIP3    H159783   3.851   3.429  15.449  0.6059  0.2698 -0.2766
12764TIP3    H259784   3.717   3.436  15.379  0.1251 -0.1155  0.5807
12765TIP3   OH259785   4.351   5.474   5.689  0.3670  0.0824  0.1499
12765TIP3    H159786   4.294   5.493   5.615 -0.0317 -1.1695  0.1091
12765TIP3    H259787   4.359   5.378   5.690  0.8012  0.1036  1.3904
12766TIP3   OH259788   4.077   2.940  16.546 -0.5583 -0.6421 -0.2948
12766TIP3    H159789   4.137   2.985  16.487 -0.6025 -0.0582  0.0948
12766TIP3    H259790   4.005   2.911  16.491 -0.1647 -0.8983 -0.6790
12767TIP3   OH259791   0.353   5.506  11.681 -0.0315 -0.0405  0.2894
12767TIP3    H159792   0.422   5.572  11.688  2.3834 -2.3834  0.2995
12767TIP3    H259793   0.293   5.540  11.615  0.8556  2.3154  0.6020
12768TIP3   OH259794   4.697   6.621   2.143  0.9056  0.5093  0.2488
12768TIP3    H159795   4.632   6.632   2.074  0.5891 -0.8056  0.3226
12768TIP3    H259796   4.781   6.612   2.097  0.5724 -1.4500 -0.0697
12769TIP3   OH259797   6.127   2.693  15.853 -0.1018 -0.9518 -0.2536
12769TIP3    H159798   6.034   2.670  15.846 -0.6656  0.9087  0.4252
12769TIP3    H259799   6.153   2.661  15.939 -1.0788  1.3304  1.0032
12770TIP3   OH259800   2.403   2.963   3.114  0.2015 -0.3063 -0.2195
12770TIP3    H159801   2.346   2.914   3.174  1.0769 -0.8436  0.1942
12770TIP3    H259802   2.467   3.005   3.171  0.6992 -0.3548 -0.7400
12771TIP3   OH259803   3.282   3.680  12.402  0.0678 -0.1347 -0.1607
12771TIP3    H159804   3.242   3.745  12.459 -0.8355 -0.0833 -0.8319
12771TIP3    H259805   3.242   3.695  12.316  1.9817  0.3266 -1.0184
12772TIP3   OH259806   4.566   2.223  15.113 -0.3448  1.1566  0.5305
12772TIP3    H159807   4.537   2.238  15.203 -0.0058  0.6786  0.7218
12772TIP3    H259808   4.504   2.159  15.078  1.6469 -1.5479  1.6261
12773TIP3   OH259809   3.976   1.893  11.358  0.4492 -0.2139 -0.4131
12773TIP3    H159810   4.019   1.813  11.389  0.1673  0.2327  1.2384
12773TIP3    H259811   4.043   1.961  11.366  0.0871  0.0837  0.1251
12774TIP3   OH259812   1.558   4.830  17.059 -0.3382  0.3258  0.2078
12774TIP3    H159813   1.540   4.779  17.138 -0.2900  1.4051  0.9292
12774TIP3    H259814   1.652   4.821  17.045 -0.4269 -0.2808 -0.0270
12775TIP3   OH259815   2.715   1.282  15.352 -0.3807  0.0349  0.2569
12775TIP3    H159816   2.640   1.341  15.359  0.0922  0.6531  0.2103
12775TIP3    H259817   2.790   1.337  15.375 -0.0582 -0.8777  1.4406
12776TIP3   OH259818   3.658   5.769   0.472 -0.1626  0.6333 -0.2741
12776TIP3    H159819   3.612   5.827   0.410 -0.5577 -0.5079 -1.0712
12776TIP3    H259820   3.590   5.740   0.532 -0.0298  0.7111 -0.0840
12777TIP3   OH259821   3.082   5.322   5.406 -0.1509  0.4557  0.3076
12777TIP3    H159822   3.125   5.407   5.398 -0.4240  0.5728  0.0695
12777TIP3    H259823   3.069   5.311   5.500 -0.6760  0.9653  0.3021
12778TIP3   OH259824   1.670   6.749   3.838  0.0877  0.0195 -0.0577
12778TIP3    H159825   1.692   6.768   3.929  0.6221 -0.5232 -0.0708
12778TIP3    H259826   1.719   6.813   3.787 -0.2465  0.3523  0.0378
12779TIP3   OH259827   1.405   1.276  14.270 -0.1936  0.0939  0.1752
12779TIP3    H159828   1.384   1.219  14.195 -2.1485  0.1267  0.6342
12779TIP3    H259829   1.377   1.226  14.346 -0.4433  1.0141  0.6997
12780TIP3   OH259830   2.814   1.402  11.847  0.3316 -0.1090  0.3235
12780TIP3    H159831   2.816   1.390  11.752  2.0425  1.3415  0.1225
12780TIP3    H259832   2.722   1.414  11.868 -0.0186  0.0731 -1.2225
12781TIP3   OH259833   6.242   6.387  14.781  0.1531 -0.2160 -0.5876
12781TIP3    H159834   6.231   6.474  14.744  0.7340  0.3333  0.4990
12781TIP3    H259835   6.310   6.397  14.847  0.3222 -1.5233 -0.5303
12782TIP3   OH259836   3.443   3.310   1.548  0.5847 -0.4145  0.0124
12782TIP3    H159837   3.437   3.271   1.635  1.1320  0.6429  0.5381
12782TIP3    H259838   3.479   3.397   1.562  1.2296 -0.4299 -1.3389
12783TIP3   OH259839   1.119   5.717  13.337  0.2972 -0.0636 -0.5564
12783TIP3    H159840   1.104   5.794  13.392  0.7185 -0.1781 -0.2798
12783TIP3    H259841   1.172   5.749  13.265  0.1392 -0.0133 -0.6516
12784TIP3   OH259842   4.783   5.187  13.494  0.6123 -0.2540  0.2908
12784TIP3    H159843   4.787   5.111  13.437 -0.1505 -0.6791  0.7863
12784TIP3    H259844   4.737   5.254  13.442 -0.9847 -0.9590  0.7209
12785TIP3   OH259845   3.773   0.758   0.369 -0.0253  0.0136 -0.3768
12785TIP3    H159846   3.702   0.759   0.434  0.7616 -0.3472  0.5160
12785TIP3    H259847   3.839   0.816   0.405  0.2015  0.2372 -1.1344
12786TIP3   OH259848   5.866   2.453  15.169 -0.3307 -0.0535 -0.1765
12786TIP3    H159849   5.831   2.476  15.083 -1.8997  4.6209  1.4227
12786TIP3    H259850   5.916   2.529  15.196 -1.0912 -0.7065  3.6034
12787TIP3   OH259851   6.257   0.700   4.593  0.0181 -0.1215  0.3239
12787TIP3    H159852   6.168   0.715   4.626  0.0986 -0.5508  0.7595
12787TIP3    H259853   6.303   0.782   4.607  0.6516 -0.8633  3.2675
12788TIP3   OH259854   2.886   5.964   1.285 -0.5412 -0.6351  0.0188
12788TIP3    H159855   2.794   5.972   1.310 -0.5693 -0.0271 -0.2670
12788TIP3    H259856   2.913   6.054   1.266 -0.7439 -1.1320 -2.9992
12789TIP3   OH259857   6.426   6.117  10.844  0.4900  0.3423 -0.0454
12789TIP3    H159858   6.434   6.124  10.939  0.5637 -0.9099  0.0548
12789TIP3    H259859   6.512   6.140  10.811  0.3502  1.1981  0.1494
12790TIP3   OH259860   5.495   2.607   1.604  0.6086 -0.0638  0.1776
12790TIP3    H159861   5.467   2.581   1.692 -0.9168 -0.6911 -0.4428
12790TIP3    H259862   5.569   2.549   1.584  0.4097 -0.5162  0.7194
12791TIP3   OH259863   1.953   4.284  15.803  0.3981  0.5497 -0.0902
12791TIP3    H159864   1.946   4.346  15.730  0.6115  2.3266  1.3329
12791TIP3    H259865   1.911   4.329  15.876  0.8042 -0.9020  1.0701
12792TIP3   OH259866   1.858   1.864   2.386 -0.6492 -0.8435 -0.2978
12792TIP3    H159867   1.866   1.783   2.436  2.0960  1.0379  2.7188
12792TIP3    H259868   1.936   1.866   2.331 -0.5690 -0.1931 -0.1694
12793TIP3   OH259869   2.479   5.560   4.286  0.4448 -0.7931  0.2326
12793TIP3    H159870   2.512   5.471   4.273  0.9759 -0.6665  0.6558
12793TIP3    H259871   2.384   5.552   4.279  0.2398 -1.9135  3.0739
12794TIP3   OH259872   4.637   0.220  14.348 -0.3468  0.4392 -0.3311
12794TIP3    H159873   4.606   0.258  14.430 -1.2739 -0.7113 -0.1360
12794TIP3    H259874   4.727   0.192  14.367 -0.1078  1.3105 -0.1052
12795TIP3   OH259875   6.554   6.132  16.284 -0.0790 -0.6649 -0.1108
12795TIP3    H159876   6.480   6.077  16.258  0.9556 -2.5504  0.7515
12795TIP3    H259877   6.624   6.108  16.223  0.6348 -0.9385  0.7999
12796TIP3   OH259878   3.106   4.811   3.736 -0.8990  0.1165 -0.2642
12796TIP3    H159879   3.117   4.782   3.827 -1.4308  2.0980  0.4819
12796TIP3    H259880   3.157   4.892   3.730 -2.2756  0.9577 -1.2270
12797TIP3   OH259881   6.287   1.766   3.260 -0.0058 -0.1512  0.1273
12797TIP3    H159882   6.202   1.777   3.217 -0.3656  1.0292  1.0584
12797TIP3    H259883   6.269   1.706   3.333 -0.2454  0.7116  0.7976
12798TIP3   OH259884   2.584   2.887  15.530  0.1628  0.0411  0.3334
12798TIP3    H159885   2.558   2.854  15.444  1.2795 -0.4870  0.1793
12798TIP3    H259886   2.559   2.979  15.528  0.8501  0.2254 -0.8495
12799TIP3   OH259887   3.012   1.496  12.285 -0.4555 -0.3969 -0.3455
12799TIP3    H159888   3.028   1.404  12.302 -0.2500 -0.1169  1.1112
12799TIP3    H259889   3.009   1.503  12.190 -2.3206 -2.2236 -0.4990
12800TIP3   OH259890   4.793   3.688  13.131 -0.1457 -0.4322  0.4980
12800TIP3    H159891   4.825   3.710  13.043 -0.4413  0.9309  0.7028
12800TIP3    H259892   4.700   3.712  13.129  0.3427  1.9328  1.8462
12801TIP3   OH259893   5.884   3.005   4.765 -0.0377 -0.0696 -0.2322
12801TIP3    H159894   5.876   2.976   4.855  2.6425 -2.6615 -0.6830
12801TIP3    H259895   5.813   2.959   4.719 -0.2508 -0.2352  0.2545
12802TIP3   OH259896   6.236   2.971   5.373 -0.5899 -0.1419 -0.1669
12802TIP3    H159897   6.308   3.034   5.386 -0.7912  0.6352 -2.4298
12802TIP3    H259898   6.170   2.997   5.438 -0.0272  0.9996 -0.0152
12803TIP3   OH259899   6.322   4.052   5.654 -0.2789  0.0256 -0.6689
12803TIP3    H159900   6.379   3.982   5.622 -0.8725 -0.7789  0.0032
12803TIP3    H259901   6.234   4.016   5.649 -0.3898 -0.3648  2.3272
12804TIP3   OH259902   3.542   0.378   1.057 -0.4775  0.3195 -0.2307
12804TIP3    H159903   3.476   0.382   1.126 -0.3033  3.0928 -0.1216
12804TIP3    H259904   3.624   0.361   1.104 -0.6141  0.3577  0.0259
12805TIP3   OH259905   5.112   0.954  14.789 -0.0387 -0.3353  0.0578
12805TIP3    H159906   5.157   1.027  14.832 -0.9370  0.8598 -0.9567
12805TIP3    H259907   5.120   0.973  14.696  0.9214 -2.3040 -0.3271
12806TIP3   OH259908   6.030   0.671   1.769 -0.1847  0.3928 -0.1564
12806TIP3    H159909   6.045   0.616   1.846 -0.3406 -0.1598 -0.5196
12806TIP3    H259910   6.071   0.623   1.697  0.5829  1.2464 -0.3019
12807TIP3   OH259911   0.429   5.643  12.323  0.5529 -0.0163  0.2806
12807TIP3    H159912   0.443   5.721  12.377  0.3785 -1.1434  2.0380
12807TIP3    H259913   0.360   5.669  12.261  0.7385  1.3153  0.5972
12808TIP3   OH259914   6.093   3.629  15.068  0.2888 -1.1053  0.0548
12808TIP3    H159915   6.066   3.671  15.150  0.9296 -0.7312  0.0745
12808TIP3    H259916   6.012   3.622  15.018  0.0154 -0.6758  0.4238
12809TIP3   OH259917   5.376   5.765  16.879  0.6657 -0.4169 -0.2252
12809TIP3    H159918   5.298   5.800  16.838  0.7025 -0.3313 -0.2239
12809TIP3    H259919   5.348   5.742  16.968  0.8149  0.2917  0.0124
12810TIP3   OH259920   1.507   4.351   3.545  0.0774 -0.4749 -0.0013
12810TIP3    H159921   1.458   4.434   3.544  1.0884  0.1392 -1.1013
12810TIP3    H259922   1.533   4.340   3.637  0.5869  0.8357  0.0347
12811TIP3   OH259923   0.815   5.451   2.482 -0.6369 -0.6790  0.5734
12811TIP3    H159924   0.784   5.529   2.435 -0.3998 -0.5160  0.6854
12811TIP3    H259925   0.802   5.379   2.421 -0.0171 -0.4177  0.1300
12812TIP3   OH259926   4.105   1.393  11.560 -0.2665  0.2615  0.8097
12812TIP3    H159927   4.011   1.410  11.555 -0.3585 -0.2200  0.7713
12812TIP3    H259928   4.144   1.450  11.494 -0.7452 -0.9324 -0.5663
12813TIP3   OH259929   3.330   6.044   5.086  0.2653  0.6473  0.1215
12813TIP3    H159930   3.397   6.048   5.018  0.1470  0.3429 -0.0140
12813TIP3    H259931   3.329   6.132   5.124  1.2879  0.4430  0.6457
12814TIP3   OH259932   6.611   0.568  13.191 -0.3942  0.3639 -0.2677
12814TIP3    H159933   6.528   0.531  13.220 -0.2633  0.5122  0.3092
12814TIP3    H259934   6.615   0.654  13.231  1.7575 -1.0537  2.9973
12815TIP3   OH259935   5.261   3.844  13.609  0.0934 -0.4768 -0.4161
12815TIP3    H159936   5.254   3.768  13.666  1.4198 -1.3317 -1.3067
12815TIP3    H259937   5.355   3.865  13.609  0.0529 -0.1905 -1.8426
12816TIP3   OH259938   5.655   1.676  13.865  0.1073 -0.3768 -0.0798
12816TIP3    H159939   5.746   1.703  13.851  0.0214 -0.3805 -0.6775
12816TIP3    H259940   5.604   1.754  13.843  0.0087 -0.0497  1.2456
12817TIP3   OH259941   1.479   0.188  11.251  0.0781 -0.1519 -0.2665
12817TIP3    H159942   1.424   0.141  11.313  0.4378  1.4583  1.3630
12817TIP3    H259943   1.417   0.231  11.191 -0.3354 -0.4141 -0.0260
12818TIP3   OH259944   0.015   5.733   5.066  0.0892  0.8696  0.0154
12818TIP3    H159945  -0.048   5.660   5.060  1.8412 -0.8288  1.0616
12818TIP3    H259946  -0.025   5.794   5.128 -0.2284 -0.5609  1.3011
12819TIP3   OH259947   5.904   4.472  13.411  0.0695  0.1346  0.4292
12819TIP3    H159948   5.841   4.482  13.483  0.4742  1.9195  0.5885
12819TIP3    H259949   5.859   4.418  13.347 -0.6716 -0.6851  1.5912
12820TIP3   OH259950   2.351   0.855   3.516  0.1941 -0.3416 -0.0923
12820TIP3    H159951   2.431   0.884   3.560 -1.0743  0.9148  1.5594
12820TIP3    H259952   2.291   0.832   3.588 -0.8210 -1.5857 -1.2768
12821TIP3   OH259953   2.715   2.500  16.366 -0.6547 -0.0118  0.2504
12821TIP3    H159954   2.651   2.514  16.436 -0.5527  1.1995  0.1239
12821TIP3    H259955   2.688   2.560  16.296  1.6528  1.9528  0.9140
12822TIP3   OH259956   3.976   5.430   6.201  0.2393 -0.1851  0.2855
12822TIP3    H159957   3.927   5.348   6.201  0.3401 -0.2519  1.2599
12822TIP3    H259958   4.013   5.435   6.113 -3.8333  1.2941 -1.5822
12823TIP3   OH259959   5.188   4.886  12.008  0.1487 -0.0654  0.2593
12823TIP3    H159960   5.136   4.874  11.929 -0.4542 -0.1125  0.6575
12823TIP3    H259961   5.261   4.824  11.999 -1.0168 -1.5708  0.6706
12824TIP3   OH259962   3.011   2.871   1.126 -0.1133  0.0484  0.2093
12824TIP3    H159963   2.946   2.934   1.093  0.9721 -0.7700 -4.2166
12824TIP3    H259964   2.961   2.789   1.136 -0.6635  0.5412  1.6640
12825TIP3   OH259965   1.733   3.445  15.631 -0.1970  0.5969 -0.0112
12825TIP3    H159966   1.675   3.520  15.647  0.4001  1.0304  0.1645
12825TIP3    H259967   1.741   3.440  15.536 -0.8946  0.2398 -0.0579
12826TIP3   OH259968   4.893   0.828   2.463 -0.3795 -0.4938  0.2675
12826TIP3    H159969   4.807   0.830   2.506 -0.5729 -0.5613 -0.1072
12826TIP3    H259970   4.877   0.865   2.376  0.1537  0.3270  0.5091
12827TIP3   OH259971   3.301   3.593   0.955  0.8364 -0.2838 -0.3267
12827TIP3    H159972   3.334   3.612   0.868  1.7014 -3.6336 -0.8886
12827TIP3    H259973   3.379   3.574   1.007  0.1732 -2.1296  0.0682
12828TIP3   OH259974   2.664   5.499   0.848 -0.3490  0.4695  0.4897
12828TIP3    H159975   2.759   5.508   0.837 -0.4746 -0.4366 -1.9170
12828TIP3    H259976   2.652   5.491   0.943  1.9183  0.9869  0.8994
12829TIP3   OH259977   0.706   3.800  15.712 -0.1098 -0.2828 -0.2337
12829TIP3    H159978   0.668   3.870  15.660  2.7402 -0.5205 -2.9328
12829TIP3    H259979   0.770   3.844  15.768 -1.0472 -0.3793  0.9626
12830TIP3   OH259980   4.688   4.036  12.444 -0.1476 -0.0858 -0.2624
12830TIP3    H159981   4.646   4.114  12.410  1.2036  0.7362 -0.0954
12830TIP3    H259982   4.763   4.021  12.386  1.4017  0.5592  1.4830
12831TIP3   OH259983   3.319   0.784  14.427  0.3283  0.5831 -0.9265
12831TIP3    H159984   3.252   0.720  14.451  2.4972 -1.6829 -0.5215
12831TIP3    H259985   3.279   0.837  14.359 -2.0278 -0.3410 -0.3418
12832TIP3   OH259986   4.790   6.580   0.984 -0.0106  0.0088 -0.3830
12832TIP3    H159987   4.794   6.592   0.889  1.6036  0.6219 -0.2677
12832TIP3    H259988   4.710   6.627   1.010  1.0487  2.4070 -1.1342
12833TIP3   OH259989   1.846   4.856   3.400  0.0617 -0.4700  0.9312
12833TIP3    H159990   1.753   4.875   3.413 -0.5297 -1.4445 -1.3648
12833TIP3    H259991   1.867   4.792   3.468 -1.6684 -2.1765 -0.0497
12834TIP3   OH259992   1.831   5.457  16.929  0.1409  0.0963 -0.2467
12834TIP3    H159993   1.848   5.529  16.868 -0.3155 -0.0402 -0.5450
12834TIP3    H259994   1.767   5.402  16.883 -0.0108 -0.1465  0.2523
12835TIP3   OH259995   2.584   4.111  16.849 -0.1483  0.5727  0.5382
12835TIP3    H159996   2.592   4.016  16.851 -1.0531  0.5056  2.1451
12835TIP3    H259997   2.490   4.127  16.839 -0.3785  1.2596  3.1838
12836TIP3   OH259998   1.546   0.821   5.903 -0.3404 -0.2295 -0.3651
12836TIP3    H159999   1.570   0.878   5.976 -0.5697 -1.0025  0.3295
12836TIP3    H260000   1.568   0.733   5.933 -2.4145 -0.7988 -0.3623
12837TIP3   OH260001   6.160   1.184   1.652  0.1007 -0.1755  0.1624
12837TIP3    H160002   6.119   1.121   1.593  2.2103 -1.2853 -0.1942
12837TIP3    H260003   6.144   1.269   1.611 -0.1577 -0.7569 -0.9717
12838TIP3   OH260004   4.861   2.053   0.470  0.1518 -0.2002 -0.1264
12838TIP3    H160005   4.779   2.018   0.435 -0.9874  0.2671  1.8587
12838TIP3    H260006   4.926   1.985   0.453 -1.0481 -1.3754 -0.2118
12839TIP3   OH260007   3.994   1.118  11.319  0.2142  0.4579 -0.1959
12839TIP3    H160008   4.015   1.209  11.296 -0.5063  0.2671 -1.7893
12839TIP3    H260009   3.912   1.101  11.274  0.4909 -1.0820 -0.1680
12840TIP3   OH260010   3.568   2.926   1.822  0.2626  0.2082  0.1905
12840TIP3    H160011   3.582   2.850   1.878 -0.9948  0.1044  0.3884
12840TIP3    H260012   3.512   2.984   1.874 -1.6777 -0.2786 -1.2331
12841TIP3   OH260013   1.029   5.723   3.898  0.1926  0.3703 -0.1677
12841TIP3    H160014   1.037   5.717   3.803  0.9325  1.4529 -0.1802
12841TIP3    H260015   1.061   5.810   3.920  1.7005 -0.4838  1.2595
12842TIP3   OH260016   5.343   5.450   2.112  0.1725  0.4112 -0.0827
12842TIP3    H160017   5.398   5.401   2.050  2.2358  1.9118  0.4310
12842TIP3    H260018   5.340   5.395   2.190 -0.2437 -0.3143 -0.5958
12843TIP3   OH260019   2.513   1.811  16.500 -0.5148 -0.1007  0.1102
12843TIP3    H160020   2.568   1.807  16.578  0.4749  1.9335 -0.4305
12843TIP3    H260021   2.513   1.721  16.467  1.6403 -0.3833  0.7159
12844TIP3   OH260022   4.691   4.569  15.128 -0.0337 -0.0249 -0.6305
12844TIP3    H160023   4.764   4.523  15.170 -0.0562 -0.3042 -0.8924
12844TIP3    H260024   4.672   4.642  15.186 -1.3898 -1.5201  0.9389
12845TIP3   OH260025   6.352   6.204  13.402 -0.6445 -0.0356  0.5377
12845TIP3    H160026   6.265   6.237  13.428 -1.2497 -0.4530 -0.8739
12845TIP3    H260027   6.404   6.283  13.389 -1.1890  0.2699  0.1723
12846TIP3   OH260028   4.357   5.195   5.149  0.3116 -0.0946  0.2239
12846TIP3    H160029   4.326   5.241   5.070 -0.2579 -1.4007 -0.3373
12846TIP3    H260030   4.330   5.251   5.221 -0.1958  0.5575 -0.4537
12847TIP3   OH260031   0.899   3.869   0.068 -0.1639  0.1228 -0.2556
12847TIP3    H160032   0.980   3.903   0.031  0.2996 -1.8916 -1.2444
12847TIP3    H260033   0.839   3.864  -0.006 -2.0069  3.4915  0.7976
12848TIP3   OH260034   0.375   1.023  13.655  0.0456 -0.1974  0.1604
12848TIP3    H160035   0.329   1.106  13.670 -1.3456 -0.8285 -0.3881
12848TIP3    H260036   0.407   1.029  13.565  1.5356  0.4429  0.7027
12849TIP3   OH260037   4.494   4.382   3.545  0.5281  0.3243  0.2231
12849TIP3    H160038   4.400   4.372   3.558  0.7869 -1.7906  0.9361
12849TIP3    H260039   4.533   4.336   3.619  2.1135  0.4398 -0.4993
12850TIP3   OH260040   4.481   0.205  11.974  0.5892  0.1561 -0.1641
12850TIP3    H160041   4.502   0.279  11.917 -1.1343  0.2910 -0.6966
12850TIP3    H260042   4.417   0.154  11.924 -0.9018  0.2044  1.5786
12851TIP3   OH260043   6.437   6.542   5.485  0.7053  0.0042 -0.8733
12851TIP3    H160044   6.485   6.621   5.508  0.0054  0.0373  0.6359
12851TIP3    H260045   6.349   6.556   5.519  0.7941 -1.7447  0.2700
12852TIP3   OH260046   1.630   0.910   6.390 -0.7778  0.7116 -0.5196
12852TIP3    H160047   1.585   0.987   6.425 -2.2770 -0.5064  0.3661
12852TIP3    H260048   1.565   0.840   6.396 -0.1193 -0.2185 -3.1076
12853TIP3   OH260049   4.785   5.753   1.468  0.0228 -0.0418 -0.1304
12853TIP3    H160050   4.732   5.675   1.451  0.1477 -0.2005  0.1891
12853TIP3    H260051   4.745   5.792   1.546  1.0547 -0.7978  0.8232
12854TIP3   OH260052   4.254   2.727  12.093  0.2013 -0.3406 -0.0417
12854TIP3    H160053   4.271   2.745  12.186  2.8294  0.0111 -0.5015
12854TIP3    H260054   4.283   2.636  12.081  1.0776  0.0163 -0.7401
12855TIP3   OH260055   4.843   2.170   1.996 -0.1556 -0.9032 -0.4306
12855TIP3    H160056   4.865   2.252   2.039 -3.1326 -0.8445  1.2922
12855TIP3    H260057   4.911   2.158   1.929  1.2905  2.0776  0.3464
12856TIP3   OH260058   3.702   3.907   3.837  0.5611 -0.7768 -0.3699
12856TIP3    H160059   3.713   3.863   3.921 -1.7028 -1.5701 -0.4098
12856TIP3    H260060   3.664   3.840   3.779  0.2658  0.2790 -1.4515
12857TIP3   OH260061   0.849   2.801   0.159 -0.4073  0.4752 -0.3034
12857TIP3    H160062   0.852   2.738   0.087 -0.9323  0.7011 -0.5303
12857TIP3    H260063   0.864   2.749   0.238 -0.8942  0.0617 -0.4852
12858TIP3   OH260064   6.564   1.619   5.984  0.4250  0.2648  0.3438
12858TIP3    H160065   6.543   1.535   6.024 -0.4158 -0.8518 -2.2137
12858TIP3    H260066   6.496   1.679   6.017 -0.7340 -0.8046 -0.0029
12859TIP3   OH260067   4.746   0.995   4.505 -0.3131 -0.0806  0.2895
12859TIP3    H160068   4.737   1.083   4.544  0.1917 -0.2998  0.9145
12859TIP3    H260069   4.840   0.985   4.490 -0.5090  0.0605 -1.1665
12860TIP3   OH260070   5.363   5.296  12.822 -0.3273 -0.7557  0.1196
12860TIP3    H160071   5.372   5.227  12.888 -2.7401 -0.9483  0.3305
12860TIP3    H260072   5.292   5.266  12.767  1.5204 -0.5195 -2.5673
12861TIP3   OH260073   3.589   4.133  11.391  0.0846  0.0148 -0.0746
12861TIP3    H160074   3.538   4.117  11.312 -2.2272  0.0812  1.3203
12861TIP3    H260075   3.588   4.228  11.402 -1.4291 -0.1026  1.1134
12862TIP3   OH260076   1.419   6.027  15.975 -0.5974 -0.3460  0.0882
12862TIP3    H160077   1.330   6.019  15.939 -0.9093  0.8232  0.5589
12862TIP3    H260078   1.413   6.100  16.037  0.8977  0.3629 -0.5577
12863TIP3   OH260079   6.333   1.199  16.265  0.2693  0.1229  0.1304
12863TIP3    H160080   6.378   1.154  16.337 -1.1035  2.0375  2.3216
12863TIP3    H260081   6.403   1.223  16.205  1.6909 -0.3078  1.5317
12864TIP3   OH260082   3.725   1.419   0.370  0.0218  0.0008 -0.5780
12864TIP3    H160083   3.652   1.396   0.312 -0.4708 -0.7610  0.3156
12864TIP3    H260084   3.694   1.497   0.417 -0.1685 -0.2395 -0.3003
12865TIP3   OH260085   0.500   5.466  15.427  0.2170 -0.2914  0.0624
12865TIP3    H160086   0.410   5.497  15.421  0.2703 -0.2214 -0.3903
12865TIP3    H260087   0.552   5.538  15.392  0.4569 -0.2935  0.4116
12866TIP3   OH260088   5.007   0.200  12.392 -0.1569  0.0078  0.6982
12866TIP3    H160089   4.946   0.249  12.337  1.0131 -0.0960 -0.7643
12866TIP3    H260090   4.957   0.125  12.423 -0.6843 -0.2902 -0.7868
12867TIP3   OH260091   2.529   4.908   6.263  0.2820  0.0899  1.0323
12867TIP3    H160092   2.483   4.949   6.190  0.9194 -0.3743  0.3484
12867TIP3    H260093   2.477   4.831   6.284  0.8139 -0.5384  0.1347
12868TIP3   OH260094   2.307   6.258   5.015 -0.1717  0.1474  0.1916
12868TIP3    H160095   2.360   6.251   5.095  0.3473  1.0894 -0.0609
12868TIP3    H260096   2.221   6.226   5.041  0.5610 -1.7245  0.5298
12869TIP3   OH260097   6.209   6.491  13.989 -0.2256  0.3142  0.0193
12869TIP3    H160098   6.133   6.545  14.010  0.3304  1.3060 -0.4102
12869TIP3    H260099   6.281   6.530  14.040  0.4696  0.8477 -1.2998
12870TIP3   OH260100   3.680   1.284  12.391  0.4366  0.6002 -0.0632
12870TIP3    H160101   3.661   1.215  12.455 -1.0919 -0.2445 -1.3540
12870TIP3    H260102   3.649   1.365  12.433 -2.7618 -0.2416 -0.5643
12871TIP3   OH260103   4.548   0.478   2.485 -0.3027  0.4689 -0.1464
12871TIP3    H160104   4.537   0.481   2.580  0.1820 -1.5405  0.0205
12871TIP3    H260105   4.460   0.493   2.450 -1.1714 -2.0419  0.7589
12872TIP3   OH260106   3.499   3.227   0.777  0.0105 -0.5080 -0.2935
12872TIP3    H160107   3.483   3.171   0.854 -1.4674  0.3072  0.0265
12872TIP3    H260108   3.509   3.165   0.705 -0.7234 -1.2364  0.2061
12873TIP3   OH260109   2.406   4.433   1.977 -0.2410  0.4297 -0.7546
12873TIP3    H160110   2.401   4.461   2.069 -1.0852 -1.4658 -0.1808
12873TIP3    H260111   2.499   4.433   1.957 -0.0831  1.4600 -0.0991
12874TIP3   OH260112   3.525   0.495   2.551  0.1079  0.0227 -0.1654
12874TIP3    H160113   3.433   0.521   2.553  0.0533 -0.0027 -1.4458
12874TIP3    H260114   3.524   0.401   2.535  0.3561 -0.1310  0.6755
12875TIP3   OH260115   3.907   0.661  12.603 -0.7621  0.4365 -0.6100
12875TIP3    H160116   4.002   0.673  12.595 -0.5935 -0.7585 -0.5718
12875TIP3    H260117   3.897   0.575  12.642 -1.8519  1.0506  0.5404
12876TIP3   OH260118   0.794   4.317  13.663 -0.3244  0.5725 -0.6357
12876TIP3    H160119   0.806   4.223  13.651 -1.2689  0.5138 -1.1963
12876TIP3    H260120   0.866   4.356  13.614  0.6050  0.1399  0.3440
12877TIP3   OH260121   3.461   6.295  11.838 -0.0008 -0.9141  0.2117
12877TIP3    H160122   3.555   6.312  11.840  0.2755 -2.2493  2.7014
12877TIP3    H260123   3.447   6.232  11.909 -2.7327 -1.0184 -0.3312
12878TIP3   OH260124   1.066   6.703   0.329  0.2191 -0.4374 -0.6852
12878TIP3    H160125   1.134   6.678   0.391 -1.7447 -1.3022  1.2598
12878TIP3    H260126   1.091   6.790   0.299  1.7694 -0.4188  0.5524
12879TIP3   OH260127   5.725   0.091   3.042  0.2031 -0.5837  0.3813
12879TIP3    H160128   5.664   0.041   2.988 -0.2708  1.8075 -1.4787
12879TIP3    H260129   5.791   0.028   3.069 -2.1390 -2.9106  1.0720
12880TIP3   OH260130   5.900   1.494   3.469 -0.6375  0.4503 -0.3298
12880TIP3    H160131   5.888   1.400   3.455 -2.3887  0.0283  2.9967
12880TIP3    H260132   5.817   1.532   3.440 -2.3122  0.1221  3.4490
12881TIP3   OH260133   6.755   5.949  12.401 -0.1365 -0.0160  0.5893
12881TIP3    H160134   6.707   5.914  12.326  1.2869  2.4558 -1.6473
12881TIP3    H260135   6.699   6.019  12.435  0.3287  0.5194  0.2474
12882TIP3   OH260136   3.204   0.070   5.708  0.4014  0.1943 -0.2796
12882TIP3    H160137   3.259   0.144   5.682  0.2448  0.5807  0.4673
12882TIP3    H260138   3.225   0.056   5.800 -0.0459 -0.2827 -0.2474
12883TIP3   OH260139   4.989   2.603  13.540 -0.2418 -0.2913 -0.0658
12883TIP3    H160140   5.009   2.626  13.449 -2.4610 -2.2159 -1.1232
12883TIP3    H260141   5.046   2.528  13.559  1.0244  0.7907  0.5669
12884TIP3   OH260142   1.141   6.544  15.645  0.1699 -0.1641  0.4884
12884TIP3    H160143   1.118   6.461  15.604 -1.8875 -0.3612  1.9144
12884TIP3    H260144   1.137   6.608  15.573 -0.1363 -0.9890 -0.2521
12885TIP3   OH260145   2.483   3.054  12.241 -0.3518  0.0230  0.8148
12885TIP3    H160146   2.436   2.988  12.190  0.3057 -0.0458  0.2861
12885TIP3    H260147   2.472   3.134  12.191  0.4023 -0.0697  0.5001
12886TIP3   OH260148   4.500   2.869   0.262 -0.1735  0.2882  0.0210
12886TIP3    H160149   4.505   2.790   0.208 -0.8392  0.3919 -0.2043
12886TIP3    H260150   4.421   2.914   0.231 -1.3394 -0.3119  1.9570
12887TIP3   OH260151   1.589   4.075   1.285  0.2975 -0.7287 -0.2641
12887TIP3    H160152   1.652   4.144   1.265  1.4808 -1.4335  0.8189
12887TIP3    H260153   1.567   4.037   1.200  1.7036 -0.7537 -0.6487
12888TIP3   OH260154   3.634   3.017  12.527  0.0898 -0.1826 -0.1486
12888TIP3    H160155   3.539   3.025  12.539  0.1598  1.1713 -0.3518
12888TIP3    H260156   3.664   2.976  12.607 -0.4656  1.0504  0.7236
12889TIP3   OH260157   5.205   3.403  14.707  0.4293 -0.2026 -0.0866
12889TIP3    H160158   5.235   3.436  14.791  0.3415 -1.0898  0.3101
12889TIP3    H260159   5.164   3.319  14.728 -1.5398  0.5489 -0.7284
12890TIP3   OH260160   3.468   0.718   2.245  0.1224  0.4829 -0.1152
12890TIP3    H160161   3.404   0.669   2.296  0.1902 -0.4864 -0.9396
12890TIP3    H260162   3.451   0.694   2.154  1.0213  0.9664 -0.4294
12891TIP3   OH260163   3.016   3.367  11.258  0.4813 -0.0848  0.2110
12891TIP3    H160164   2.943   3.427  11.240  1.3277  1.0182  0.3337
12891TIP3    H260165   2.975   3.292  11.301 -0.7303  0.0082 -0.7092
12892TIP3   OH260166   6.683   3.031   4.817 -0.3006  0.3121 -0.1308
12892TIP3    H160167   6.654   3.017   4.907 -0.6398 -0.7829 -0.3956
12892TIP3    H260168   6.767   2.985   4.812 -0.6688 -0.3404 -0.5788
12893TIP3   OH260169   6.689   0.799   6.322 -0.1910 -0.1522  0.4248
12893TIP3    H160170   6.745   0.726   6.348  0.3865  0.1507  0.0329
12893TIP3    H260171   6.675   0.848   6.403  1.1345  0.4656  0.2994
12894TIP3   OH260172   5.592   2.735   0.760  0.2378  0.2346  0.2036
12894TIP3    H160173   5.522   2.674   0.738  0.1099  0.0223  1.1782
12894TIP3    H260174   5.588   2.801   0.691  2.0038 -2.1158 -2.4012
12895TIP3   OH260175   6.177   6.061   1.911 -0.3821  0.4153 -0.0494
12895TIP3    H160176   6.241   5.990   1.900  1.0690  1.7449 -0.5350
12895TIP3    H260177   6.230   6.138   1.930 -1.8948  1.4818 -0.0208
12896TIP3   OH260178   3.931   0.480   1.776 -0.0755  0.5827 -0.2957
12896TIP3    H160179   3.920   0.515   1.687  3.6983  0.7684 -0.8540
12896TIP3    H260180   3.965   0.391   1.761 -0.1633  0.3253  0.9859
12897TIP3   OH260181   3.599   3.599  15.712  0.2401  0.2248 -0.2902
12897TIP3    H160182   3.563   3.521  15.754  0.6529  0.8922  1.3870
12897TIP3    H260183   3.609   3.575  15.620  1.0726 -1.9616  0.3236
12898TIP3   OH260184   4.757   2.402  17.341  0.3744 -0.0752 -0.3945
12898TIP3    H160185   4.832   2.376  17.287 -0.6147  1.2273 -2.5329
12898TIP3    H260186   4.731   2.487  17.307 -3.8315 -1.6526 -1.8214
12899TIP3   OH260187   1.386   1.004   2.443 -0.5648  0.4025  0.6956
12899TIP3    H160188   1.340   1.077   2.485 -0.8865  0.4420  0.2880
12899TIP3    H260189   1.322   0.969   2.380 -0.6820 -0.6985  1.4115
12900TIP3   OH260190   4.113   3.507  11.925 -0.7565  0.3257 -0.6465
12900TIP3    H160191   4.019   3.526  11.932 -0.8535 -0.5142  0.5425
12900TIP3    H260192   4.125   3.427  11.975  0.9491  1.5077  0.9781
12901TIP3   OH260193   2.648   4.784   4.085 -0.0617 -0.3008  0.3896
12901TIP3    H160194   2.573   4.736   4.051  1.5180 -1.4357 -1.8413
12901TIP3    H260195   2.614   4.838   4.156 -2.8279 -1.1603 -0.1945
12902TIP3   OH260196   4.804   3.641   5.640  0.5201  0.7807 -0.1128
12902TIP3    H160197   4.899   3.632   5.654  0.3999 -0.5882 -0.0021
12902TIP3    H260198   4.782   3.569   5.581  0.0330  2.9096 -2.7462
12903TIP3   OH260199   0.272   4.972  11.249 -0.3583 -0.3181  0.3156
12903TIP3    H160200   0.250   5.063  11.273  1.9760  0.0437  1.4050
12903TIP3    H260201   0.360   4.978  11.212 -0.4314 -2.0763 -0.2127
12904TIP3   OH260202   1.075   5.472   5.218  0.3314 -0.6648 -0.2469
12904TIP3    H160203   1.023   5.506   5.290  0.6739 -1.0359  0.1881
12904TIP3    H260204   1.131   5.545   5.192  0.7566 -0.7538  0.3905
12905TIP3   OH260205   2.513   0.474   0.958 -0.2738 -0.2526  0.1800
12905TIP3    H160206   2.491   0.381   0.963  0.5657 -0.5045 -0.5261
12905TIP3    H260207   2.488   0.500   0.870 -0.0755  0.0783  0.2186
12906TIP3   OH260208   4.047   6.765   1.872  0.0027 -0.2778  0.2569
12906TIP3    H160209   4.108   6.804   1.934  0.1550  0.2533 -0.2102
12906TIP3    H260210   4.066   6.809   1.789 -0.5122 -0.6357 -0.0604
12907TIP3   OH260211   6.229   1.313  15.626  0.4143 -0.1072 -0.0017
12907TIP3    H160212   6.280   1.281  15.700 -1.6079 -0.2630  1.3749
12907TIP3    H260213   6.157   1.250  15.617  0.3897  0.1302 -1.8589
12908TIP3   OH260214   6.122   3.033  15.005  0.0961  0.0340  0.4127
12908TIP3    H160215   6.173   3.052  15.083  0.4416 -1.0017  0.4484
12908TIP3    H260216   6.184   2.991  14.945  0.0708  1.5743 -0.7808
12909TIP3   OH260217   0.116   0.961   1.028 -0.6771 -0.3334 -0.0219
12909TIP3    H160218   0.119   0.979   1.122 -1.9340  1.6338 -0.2995
12909TIP3    H260219   0.046   0.896   1.018 -0.7863 -0.2758  0.3659
12910TIP3   OH260220   4.283   0.347  14.617  0.4775  0.7223  0.1797
12910TIP3    H160221   4.303   0.280  14.683  0.7400 -0.1483 -0.7647
12910TIP3    H260222   4.212   0.310  14.565 -2.0046  2.7220  1.8920
12911TIP3   OH260223   4.558   5.677  11.379 -0.6538 -0.0719 -0.5479
12911TIP3    H160224   4.605   5.749  11.421 -0.3591 -0.3397 -0.4128
12911TIP3    H260225   4.560   5.698  11.286 -1.2253  0.4769 -0.4453
12912TIP3   OH260226   2.298   0.209   1.266 -0.5511 -0.1776  0.0765
12912TIP3    H160227   2.376   0.159   1.290 -0.5129  0.2503  0.8886
12912TIP3    H260228   2.231   0.180   1.327 -0.6969  0.3177  0.1573
12913TIP3   OH260229   0.518   2.720   3.675 -0.5871  0.5027  0.6292
12913TIP3    H160230   0.582   2.788   3.654 -1.7032  1.3234 -0.2383
12913TIP3    H260231   0.497   2.734   3.767  1.2680 -0.4789  1.2537
12914TIP3   OH260232   2.563   1.031   0.493 -0.2288 -0.0145 -0.3640
12914TIP3    H160233   2.496   1.034   0.562 -2.0893  0.1941 -2.0866
12914TIP3    H260234   2.535   1.097   0.430  0.7226 -1.0539 -1.9353
12915TIP3   OH260235   5.857   4.572  16.717  0.1205 -0.0972  0.7984
12915TIP3    H160236   5.898   4.647  16.759 -1.0902  1.9029 -1.3206
12915TIP3    H260237   5.764   4.581  16.738 -0.4692  0.7382 -1.7117
12916TIP3   OH260238   4.027   5.872   4.598  0.2694  0.4453 -0.0317
12916TIP3    H160239   3.965   5.932   4.638 -0.2796 -0.5888  0.7122
12916TIP3    H260240   4.041   5.907   4.509 -0.8786  1.0344  0.0084
12917TIP3   OH260241   5.980   3.615   3.605 -0.3219 -0.4341  0.1292
12917TIP3    H160242   5.885   3.606   3.599 -0.3680 -0.3040  0.6329
12917TIP3    H260243   6.006   3.657   3.523 -0.7611 -0.0086  0.2053
12918TIP3   OH260244   3.158   4.672   3.959  0.2398 -0.2027 -0.5434
12918TIP3    H160245   3.208   4.708   4.032 -0.8199  0.4195 -0.0922
12918TIP3    H260246   3.072   4.652   3.997 -0.6715  1.0745 -1.8180
12919TIP3   OH260247   6.336   1.425   1.334 -0.4129 -0.3821  0.3681
12919TIP3    H160248   6.256   1.479   1.333  0.8732  1.8644  3.2534
12919TIP3    H260249   6.395   1.469   1.273 -1.1290 -1.8403 -1.4899
12920TIP3   OH260250   3.508   0.084   1.965 -0.1603 -0.4716  0.0077
12920TIP3    H160251   3.475  -0.005   1.954 -0.5209 -0.3956  0.4179
12920TIP3    H260252   3.587   0.087   1.913 -1.8907 -0.0200 -2.7969
12921TIP3   OH260253   3.647   0.410  15.072  0.2106  0.1099 -0.3751
12921TIP3    H160254   3.611   0.389  14.985 -2.6261  0.9187  0.4773
12921TIP3    H260255   3.703   0.486  15.057 -1.1309  0.9523 -1.3986
12922TIP3   OH260256   3.114   3.594  12.179 -0.1195 -0.0990 -0.0909
12922TIP3    H160257   3.059   3.642  12.117  1.6345  1.3266 -0.6353
12922TIP3    H260258   3.113   3.504  12.147 -0.1582  0.3882 -1.5390
12923TIP3   OH260259   0.441   4.519   3.302 -0.4977  0.1776 -0.2361
12923TIP3    H160260   0.445   4.612   3.282  0.6569  0.3432  0.6395
12923TIP3    H260261   0.367   4.486   3.251 -0.7749  1.5211 -0.7338
12924TIP3   OH260262   5.439   4.163   0.062 -0.1038 -0.0104  0.3210
12924TIP3    H160263   5.367   4.216   0.094 -0.4442  0.2825 -0.8778
12924TIP3    H260264   5.413   4.073   0.081 -1.5012 -0.0270 -1.3743
12925TIP3   OH260265   6.480   1.389   6.121  0.3115  0.0452 -0.1595
12925TIP3    H160266   6.398   1.399   6.168  0.5177 -1.1710  0.4778
12925TIP3    H260267   6.456   1.342   6.041  0.5138 -1.1911  0.4850
12926TIP3   OH260268   3.012   2.929   4.047  0.2119  0.0262 -0.5789
12926TIP3    H160269   3.093   2.970   4.079 -0.5895  0.6527  0.7337
12926TIP3    H260270   2.969   2.998   3.997  1.2320 -0.8073 -2.7057
12927TIP3   OH260271   0.417   0.259   0.857 -0.7225  0.2134  0.0764
12927TIP3    H160272   0.449   0.325   0.795 -1.3565  1.8552  1.4315
12927TIP3    H260273   0.324   0.249   0.836 -2.4289  4.7396  3.8620
12928TIP3   OH260274   5.416   3.281   2.404  0.2070  0.0952 -0.1184
12928TIP3    H160275   5.373   3.362   2.432 -1.7492 -1.0299  0.2608
12928TIP3    H260276   5.479   3.262   2.474  0.0854  0.8147  0.1979
12929TIP3   OH260277   5.799   0.493  15.620  0.3029  0.2715  0.0811
12929TIP3    H160278   5.735   0.425  15.598 -1.4360  1.3744  1.4870
12929TIP3    H260279   5.850   0.455  15.691 -0.0179  0.0734  0.2104
12930TIP3   OH260280   6.352   5.825   3.347  0.7577 -0.6965  0.1502
12930TIP3    H160281   6.308   5.887   3.406  0.7625 -2.4368  2.0734
12930TIP3    H260282   6.382   5.880   3.274  3.1384  2.1627  2.9567
12931TIP3   OH260283   2.334   3.253  17.421  0.1771 -0.3379  0.3985
12931TIP3    H160284   2.257   3.250  17.477 -0.8706 -2.4986 -1.0411
12931TIP3    H260285   2.300   3.250  17.332  1.8695  1.0890 -0.3679
12932TIP3   OH260286   2.997   5.930  15.396 -0.2345 -0.7970  0.3956
12932TIP3    H160287   2.978   5.958  15.307 -1.0756 -0.8102  0.5679
12932TIP3    H260288   3.082   5.970  15.416 -1.1920  1.2492  0.4923
12933TIP3   OH260289   4.310   4.381   5.502 -0.2368 -0.0870  0.0490
12933TIP3    H160290   4.216   4.371   5.521 -0.4662 -1.5292 -1.5987
12933TIP3    H260291   4.337   4.294   5.473  1.4241  0.5392 -0.3345
12934TIP3   OH260292   2.797   1.719   1.481  0.1870  0.1642  0.1169
12934TIP3    H160293   2.857   1.657   1.441 -2.0059 -0.0270 -3.2868
12934TIP3    H260294   2.808   1.800   1.430 -1.4801  0.5031  0.2274
12935TIP3   OH260295   2.862   5.398  16.533 -0.0915 -0.1465  0.4406
12935TIP3    H160296   2.800   5.446  16.478  0.5929 -0.2349 -0.4202
12935TIP3    H260297   2.821   5.312  16.544 -0.0147 -0.2925 -0.3386
12936TIP3   OH260298   0.322   3.220  13.431  0.0370  0.0554  0.6498
12936TIP3    H160299   0.243   3.216  13.485 -0.2305 -1.8937  0.1749
12936TIP3    H260300   0.391   3.247  13.492 -0.8713  1.3149  1.1700
12937TIP3   OH260301   5.869   2.232   4.646  0.2094 -0.1894  0.1315
12937TIP3    H160302   5.801   2.280   4.692  0.2170  0.3902 -0.4515
12937TIP3    H260303   5.835   2.143   4.639 -0.2188 -0.0452  0.3860
12938TIP3   OH260304   3.514   4.642  17.384  0.4892 -0.1287  0.2361
12938TIP3    H160305   3.516   4.560  17.434  0.5882 -1.9796 -2.6160
12938TIP3    H260306   3.421   4.657  17.367  0.4102  0.8171  1.3676
12939TIP3   OH260307   2.492   1.042  12.912  0.6088  0.0227 -0.0135
12939TIP3    H160308   2.427   1.082  12.970  0.1164 -0.1033 -0.4643
12939TIP3    H260309   2.526   1.114  12.859 -0.0812 -0.0975 -0.6386
12940TIP3   OH260310   5.068   5.967  14.217  0.2159  0.7545 -0.2070
12940TIP3    H160311   4.992   5.980  14.159  0.9455  0.7637 -1.1925
12940TIP3    H260312   5.123   5.904  14.170  0.1724 -0.3320  1.1470
12941TIP3   OH260313   0.707   1.209   1.421  0.0645  0.0427 -0.3383
12941TIP3    H160314   0.615   1.215   1.396 -0.0129 -0.7677 -0.2702
12941TIP3    H260315   0.745   1.292   1.391 -0.5597  0.1447 -0.8880
12942TIP3   OH260316   6.341   1.810  13.065 -0.3119 -0.2815 -0.1387
12942TIP3    H160317   6.303   1.844  12.984  0.3257 -0.3284 -0.4576
12942TIP3    H260318   6.407   1.874  13.091 -0.0954 -0.5631  0.0184
12943TIP3   OH260319   2.072   6.108   5.086 -0.0499  0.1891  0.3565
12943TIP3    H160320   2.063   6.067   5.172 -0.9996 -1.7181 -0.5881
12943TIP3    H260321   2.065   6.036   5.024  2.5976  1.2298 -1.3131
12944TIP3   OH260322   6.089   2.156  13.886  0.4657  0.4523  0.0925
12944TIP3    H160323   6.119   2.100  13.815  1.5382  1.5124 -0.3087
12944TIP3    H260324   6.162   2.215  13.904  0.1810  0.3061  1.9992
12945TIP3   OH260325   2.203   0.281  15.232 -0.5441 -0.0299  0.7189
12945TIP3    H160326   2.227   0.189  15.221  1.5154  0.5565 -0.2591
12945TIP3    H260327   2.255   0.311  15.307 -0.5069  0.5438  0.4721
12946TIP3   OH260328   6.214   0.279  11.890  0.1923  0.0062  0.4122
12946TIP3    H160329   6.188   0.351  11.832  0.0821 -2.1780 -2.4920
12946TIP3    H260330   6.133   0.254  11.934 -0.6611 -0.6802 -1.4255
12947TIP3   OH260331   1.579   4.624   4.293 -0.0459  0.3407  0.0021
12947TIP3    H160332   1.649   4.656   4.350 -1.5512  0.5277  1.8809
12947TIP3    H260333   1.550   4.702   4.244  0.5252  0.4317 -0.1937
12948TIP3   OH260334   5.637   3.759   5.356  0.4254  0.2609  0.1786
12948TIP3    H160335   5.682   3.834   5.394 -0.5642 -0.5852  3.2965
12948TIP3    H260336   5.683   3.683   5.393  0.1557 -0.6847 -1.3363
12949TIP3   OH260337   1.784   1.880   5.886  0.4183  0.3506  0.2034
12949TIP3    H160338   1.772   1.960   5.834 -0.7453  0.5729  0.7947
12949TIP3    H260339   1.823   1.818   5.824  2.3272  1.6471 -0.0170
12950TIP3   OH260340   1.590   4.024   4.847 -0.0152  0.5200 -0.0963
12950TIP3    H160341   1.595   4.113   4.881  0.0559  0.8576 -0.9812
12950TIP3    H260342   1.507   4.020   4.799 -0.5060 -0.1989  0.7745
12951TIP3   OH260343   5.201   6.723   3.047  0.7790 -0.5262 -0.7711
12951TIP3    H160344   5.195   6.656   2.979  0.7729 -1.2805 -0.0371
12951TIP3    H260345   5.219   6.675   3.127 -1.8970  0.0618  0.2859
12952TIP3   OH260346   0.590   3.263   2.326  0.0320  0.3651  0.0668
12952TIP3    H160347   0.569   3.251   2.233 -0.3790 -1.3215  0.3434
12952TIP3    H260348   0.505   3.269   2.369  0.2234  1.8784  0.2742
12953TIP3   OH260349   4.581   1.476  12.603  0.2677  0.1305 -0.0553
12953TIP3    H160350   4.517   1.506  12.667  1.0650 -0.2431  0.9333
12953TIP3    H260351   4.540   1.494  12.518 -0.1685  2.0474  0.5155
12954TIP3   OH260352   5.186   0.864   2.695  0.6948 -0.0032 -0.2533
12954TIP3    H160353   5.142   0.940   2.658 -3.1785 -2.3522 -1.1544
12954TIP3    H260354   5.182   0.877   2.790  0.9155  1.2585 -0.4028
12955TIP3   OH260355   5.965   5.138  12.185 -0.3451  0.1051 -0.7292
12955TIP3    H160356   5.991   5.199  12.253 -0.9735 -2.5726  2.1274
12955TIP3    H260357   5.870   5.130  12.195 -0.4142 -0.5964 -1.7362
12956TIP3   OH260358   2.852   4.246   3.860  0.4070  0.8309  0.2594
12956TIP3    H160359   2.928   4.231   3.804 -0.1867  0.0665 -0.3643
12956TIP3    H260360   2.830   4.338   3.846  1.1565  1.0351  0.3788
12957TIP3   OH260361   5.811   5.374  11.201  0.7218 -0.1989 -0.1907
12957TIP3    H160362   5.854   5.327  11.129  0.8792  0.3760 -0.4830
12957TIP3    H260363   5.723   5.335  11.206  0.5792  0.0090 -0.9485
12958TIP3   OH260364   1.824   2.317   5.003 -0.5767 -0.3369 -0.0218
12958TIP3    H160365   1.842   2.291   5.093  0.6067  0.5228  0.0237
12958TIP3    H260366   1.803   2.411   5.009 -0.1237 -0.1853 -0.6639
12959TIP3   OH260367   5.714   0.992  14.217  0.1114  0.3101  0.1996
12959TIP3    H160368   5.781   0.932  14.249  0.4591  0.5063 -0.1571
12959TIP3    H260369   5.759   1.046  14.152  0.5940  2.7824  2.3804
12960TIP3   OH260370   2.069   2.419  13.167 -0.2219  0.3908  0.1274
12960TIP3    H160371   2.013   2.357  13.120 -0.2220  0.4948 -0.0115
12960TIP3    H260372   2.009   2.487  13.198 -0.1193  0.7243 -0.3852
12961TIP3   OH260373   6.705   0.429  16.535 -0.0392  0.0549 -0.2397
12961TIP3    H160374   6.676   0.473  16.614  2.2199  2.0080 -0.3973
12961TIP3    H260375   6.766   0.361  16.565  0.0397  0.1250 -0.2403
12962TIP3   OH260376   3.395   5.889   1.224  0.0255  0.2679 -0.3340
12962TIP3    H160377   3.393   5.970   1.174 -1.1709 -0.1045 -0.9286
12962TIP3    H260378   3.307   5.851   1.213  0.1778 -0.5173  0.9025
12963TIP3   OH260379   3.603   4.499   5.629  0.2917 -0.0767  0.1159
12963TIP3    H160380   3.608   4.516   5.723  0.3298 -0.7439  0.2421
12963TIP3    H260381   3.672   4.435   5.613  0.3974  0.1659 -0.4019
12964TIP3   OH260382   0.606   4.666  16.850 -0.1918 -0.1136 -0.2389
12964TIP3    H160383   0.546   4.604  16.808 -0.8723  0.3594  0.0200
12964TIP3    H260384   0.693   4.632  16.829 -0.5416 -1.6397  0.5897
12965TIP3   OH260385   0.538   3.310  16.525  0.3568  0.2886 -0.4771
12965TIP3    H160386   0.538   3.264  16.441 -0.3954 -0.2656 -0.1834
12965TIP3    H260387   0.583   3.393  16.507  0.2227  0.1663 -1.4170
12966TIP3   OH260388   3.492   4.507   1.426  1.1384 -0.3842  0.5344
12966TIP3    H160389   3.521   4.595   1.453  0.8704 -0.0730 -0.1634
12966TIP3    H260390   3.412   4.491   1.476  0.0482  0.6333 -0.8096
12967TIP3   OH260391   0.114   4.374  11.649  0.0127  0.1252  0.0156
12967TIP3    H160392   0.088   4.389  11.558 -0.4829 -0.2107  0.0996
12967TIP3    H260393   0.209   4.360  11.644  0.0573  0.5684 -0.3901
12968TIP3   OH260394   0.758   1.538  16.277  0.1986 -0.5131 -0.1702
12968TIP3    H160395   0.663   1.531  16.271 -0.1448  0.5880  2.4724
12968TIP3    H260396   0.775   1.549  16.370  3.0448 -1.8405 -0.4202
12969TIP3   OH260397   4.219   4.318  13.308 -0.4850  0.0557 -0.1846
12969TIP3    H160398   4.188   4.377  13.377  0.4476  1.6547 -1.0859
12969TIP3    H260399   4.307   4.348  13.289 -0.8587 -0.0911 -2.3428
12970TIP3   OH260400   1.399   3.640  15.298  0.0241 -0.7047 -0.0736
12970TIP3    H160401   1.332   3.669  15.236 -0.3507  0.2159  0.7266
12970TIP3    H260402   1.468   3.603  15.244 -0.6376 -0.6323 -0.9890
12971TIP3   OH260403   0.924   1.065   5.445  0.1321  0.1118 -0.2927
12971TIP3    H160404   0.964   1.102   5.366 -0.4677  0.9100 -0.2383
12971TIP3    H260405   0.932   1.134   5.511 -1.5952  0.4365 -0.3717
12972TIP3   OH260406   2.692   3.661  13.950 -0.7067  0.0162  0.2143
12972TIP3    H160407   2.716   3.612  13.872 -0.0200 -0.3434  0.6421
12972TIP3    H260408   2.662   3.746  13.917 -0.4687 -0.1505 -0.4381
12973TIP3   OH260409   6.776   3.270  16.979 -0.0625  0.4363 -0.3657
12973TIP3    H160410   6.870   3.276  16.996 -0.4548  0.9469  2.1323
12973TIP3    H260411   6.739   3.345  17.027 -1.7512  0.1824 -1.1990
12974TIP3   OH260412   0.951   2.459   6.762  0.5649 -0.1704  0.6078
12974TIP3    H160413   1.038   2.426   6.738  0.5581 -0.1535  0.5599
12974TIP3    H260414   0.959   2.554   6.755  0.6633 -0.1463  1.0080
12975TIP3   OH260415   5.878   2.775   3.695  0.0186 -0.1004  0.7288
12975TIP3    H160416   5.804   2.714   3.693  0.4907 -0.6781  0.8844
12975TIP3    H260417   5.850   2.844   3.756 -0.2584 -0.4858  1.0429
12976TIP3   OH260418   2.978   3.735  13.528 -0.1271  0.6442 -0.2513
12976TIP3    H160419   2.943   3.678  13.460 -0.0087 -1.2690  1.1842
12976TIP3    H260420   3.071   3.714  13.531 -0.0244  1.1300  0.1155
12977TIP3   OH260421   2.044   5.104   2.420 -0.0240  0.0352  0.2608
12977TIP3    H160422   2.080   5.016   2.417  0.4019  0.1868  0.6780
12977TIP3    H260423   1.958   5.094   2.460 -0.9307 -0.4726 -1.7061
12978TIP3   OH260424   5.833   0.550  11.076 -0.0862  0.0487 -0.5926
12978TIP3    H160425   5.746   0.583  11.058  0.4079  0.5197 -2.2972
12978TIP3    H260426   5.821   0.486  11.146 -1.4095  2.0264  1.0998
12979TIP3   OH260427   5.053   4.022  10.426  0.1162 -0.6858 -0.3285
12979TIP3    H160428   4.983   4.075  10.389 -0.1240  0.5400  1.7035
12979TIP3    H260429   5.133   4.057  10.386 -0.0044  1.5490  1.1733
12980TIP3   OH260430   5.555   2.608  14.166  0.3705 -0.4656  0.0887
12980TIP3    H160431   5.566   2.523  14.209 -0.1026 -1.0257 -0.8596
12980TIP3    H260432   5.606   2.669  14.219  0.9283 -1.3889  0.6387
12981TIP3   OH260433   4.803   5.183  12.306  0.6045 -0.7237  0.0007
12981TIP3    H160434   4.847   5.259  12.267  0.6829 -1.8738 -2.3782
12981TIP3    H260435   4.710   5.195  12.283  0.9035 -2.3947 -2.5481
12982TIP3   OH260436   4.199   5.820  16.040  0.2146  0.1169 -0.0751
12982TIP3    H160437   4.143   5.773  16.102 -0.0176  0.4348 -0.0438
12982TIP3    H260438   4.278   5.841  16.090 -0.8073  2.1955  0.7516
12983TIP3   OH260439   2.741   4.697  12.572  0.1990  0.0862 -0.0296
12983TIP3    H160440   2.676   4.739  12.516  0.6732  0.7252 -0.1103
12983TIP3    H260441   2.798   4.649  12.512 -0.2410 -0.5492  0.0476
12984TIP3   OH260442   0.574   4.987   4.058 -0.9169 -0.0782 -0.4435
12984TIP3    H160443   0.524   5.066   4.041 -2.0448 -0.6439  0.1361
12984TIP3    H260444   0.644   5.014   4.118 -0.8605  0.6081 -0.8123
12985TIP3   OH260445   6.335   2.025  17.451  0.4456  0.2819 -0.1738
12985TIP3    H160446   6.428   2.006  17.466  1.1445  2.5777 -1.1460
12985TIP3    H260447   6.318   2.102  17.505 -0.8826 -0.0369 -0.1121
12986TIP3   OH260448   3.417   5.729   3.730 -0.6891 -0.3174  0.1985
12986TIP3    H160449   3.477   5.700   3.799  0.0476  0.2586 -0.1837
12986TIP3    H260450   3.405   5.822   3.746 -1.2026 -0.3554  0.0541
12987TIP3   OH260451   4.345   1.868   5.039  0.1558 -0.2868 -0.0156
12987TIP3    H160452   4.388   1.947   5.072 -1.3928  0.7949 -0.4535
12987TIP3    H260453   4.278   1.901   4.979  0.5761 -2.0389 -1.5134
12988TIP3   OH260454   6.484   4.848  16.468  0.3317  0.3159  0.8021
12988TIP3    H160455   6.526   4.921  16.515 -0.0103  1.1715 -0.1691
12988TIP3    H260456   6.400   4.835  16.512  0.0591  1.0378  0.5088
12989TIP3   OH260457   1.801   0.338  15.097  0.0658 -0.2399 -0.5496
12989TIP3    H160458   1.758   0.256  15.120  1.1623 -0.4255  1.0529
12989TIP3    H260459   1.859   0.315  15.025  0.3128 -0.8881 -0.1598
12990TIP3   OH260460   1.005   5.906   4.814 -0.1166 -0.2429  0.1463
12990TIP3    H160461   1.064   5.977   4.788 -0.2634 -0.2941 -0.3410
12990TIP3    H260462   0.923   5.950   4.834 -0.0012 -0.2029  0.5300
12991TIP3   OH260463   0.659   4.637  12.964 -0.1965  0.3858  0.4268
12991TIP3    H160464   0.583   4.646  13.021 -0.8672  2.6402 -0.6828
12991TIP3    H260465   0.719   4.580  13.012 -1.9527 -0.2418  1.9982
12992TIP3   OH260466   0.289   6.528   2.913  0.3700 -0.1344  0.1006
12992TIP3    H160467   0.269   6.615   2.876  0.5304 -0.7942 -1.6242
12992TIP3    H260468   0.383   6.529   2.927  0.4306 -0.1422 -0.2792
12993TIP3   OH260469   2.746   1.935  16.344  0.1314  0.6050 -0.2250
12993TIP3    H160470   2.817   1.924  16.407  0.3185  0.7556 -0.4084
12993TIP3    H260471   2.669   1.953  16.397  0.3199  0.8918 -0.0471
12994TIP3   OH260472   0.585   2.791  13.686 -0.3044 -0.1257 -0.1436
12994TIP3    H160473   0.581   2.840  13.604  2.6729  0.3607 -0.1034
12994TIP3    H260474   0.515   2.829  13.739 -0.7177  1.2638 -1.5783
12995TIP3   OH260475   2.244   2.737   1.444 -0.0362  0.2370 -0.0214
12995TIP3    H160476   2.224   2.819   1.490  1.0378  0.4751  0.0549
12995TIP3    H260477   2.197   2.670   1.494 -1.3372  0.8524 -0.3783
12996TIP3   OH260478   0.242   4.230  15.144 -0.1399  0.4476 -0.0634
12996TIP3    H160479   0.155   4.191  15.146 -0.2622  0.5547 -1.7703
12996TIP3    H260480   0.269   4.234  15.236 -0.1160 -3.5660  0.2698
12997TIP3   OH260481   0.025   0.592  12.368  0.2684 -0.2600 -0.1011
12997TIP3    H160482   0.011   0.498  12.377 -1.1926 -0.1628 -1.0505
12997TIP3    H260483   0.114   0.606  12.399 -0.1276 -1.6692  1.9000
12998TIP3   OH260484   5.124   6.744  14.968 -0.4647  0.0330  0.3127
12998TIP3    H160485   5.161   6.788  15.045 -0.5266 -0.4929  0.6536
12998TIP3    H260486   5.058   6.804  14.935  1.4123  1.5361 -0.9788
12999TIP3   OH260487   1.598   1.413  15.958 -0.5588 -1.0002  0.5131
12999TIP3    H160488   1.504   1.429  15.949 -0.6035 -2.0051 -1.3242
12999TIP3    H260489   1.608   1.320  15.937  0.6797 -1.2923  2.2422
13000TIP3   OH260490   1.865   5.727  12.683 -0.2746  0.0752  0.1452
13000TIP3    H160491   1.899   5.714  12.771 -2.7920 -0.8589  1.0862
13000TIP3    H260492   1.883   5.644  12.638 -2.0986 -0.8500  0.9924
13001TIP3   OH260493   6.736   0.621  11.573  0.5303  0.2590 -1.1635
13001TIP3    H160494   6.823   0.585  11.592  0.6624  0.3638 -1.5600
13001TIP3    H260495   6.677   0.571  11.629  0.6822 -0.7297 -1.8530
13002TIP3   OH260496   5.889   0.308  13.934  0.5642  0.1581  0.1087
13002TIP3    H160497   5.964   0.276  13.985  0.9349  0.9330  0.0707
13002TIP3    H260498   5.928   0.346  13.855  0.3681  2.5240  1.0562
13003TIP3   OH260499   3.993   3.161  15.994  0.3622 -0.5757  0.3416
13003TIP3    H160500   3.938   3.110  16.054  1.0556 -1.0630  0.5805
13003TIP3    H260501   4.070   3.106  15.981  0.4258 -0.2588 -0.6316
13004TIP3   OH260502   6.584   4.968   0.224 -0.1173 -0.1417  0.1624
13004TIP3    H160503   6.566   5.008   0.310 -0.0628 -2.7206  1.4832
13004TIP3    H260504   6.680   4.964   0.220 -0.1327 -0.9612  0.4761
13005TIP3   OH260505   4.024   5.303  12.429 -0.6682  0.0538 -0.5115
13005TIP3    H160506   4.086   5.374  12.412 -0.3230  0.4165  1.9518
13005TIP3    H260507   3.983   5.287  12.344  2.0266  0.5145 -2.0139
13006TIP3   OH260508   6.082   0.343  10.752  0.4587 -0.1665 -0.0398
13006TIP3    H160509   6.074   0.249  10.736  0.6820 -0.0483 -0.8812
13006TIP3    H260510   6.108   0.380  10.667  1.9249  0.4640  0.6456
13007TIP3   OH260511   5.606   5.999   1.072 -0.3272 -0.0168  0.3624
13007TIP3    H160512   5.641   5.944   1.002  1.3482  0.0828  1.0836
13007TIP3    H260513   5.521   6.028   1.039 -1.5360 -3.3614  0.1361
13008TIP3   OH260514   2.727   6.659  14.876  0.4872 -0.0758  0.3172
13008TIP3    H160515   2.780   6.656  14.955 -0.1128 -2.2612  0.6864
13008TIP3    H260516   2.639   6.631  14.904 -0.1531  0.7015 -0.8166
13009TIP3   OH260517   2.764   3.767   3.633  0.4300  0.0417  0.2890
13009TIP3    H160518   2.788   3.830   3.564 -0.9565  0.2287 -0.0662
13009TIP3    H260519   2.731   3.691   3.585 -0.3421  0.0836  0.7393
13010TIP3   OH260520   3.528   6.488   1.766 -0.3728  0.2722 -0.0076
13010TIP3    H160521   3.468   6.540   1.818 -2.0612 -0.1552 -1.4001
13010TIP3    H260522   3.584   6.552   1.722  0.0695  0.6959  1.1592
13011TIP3   OH260523   5.616   1.594   1.409  0.3214 -0.5517 -0.0450
13011TIP3    H160524   5.684   1.546   1.457 -0.5051 -0.5402  1.1774
13011TIP3    H260525   5.535   1.547   1.429  0.0536 -1.1716 -2.2824
13012TIP3   OH260526   2.067   5.178   4.516  0.1025 -0.0193 -0.4372
13012TIP3    H160527   2.021   5.262   4.506 -1.5368 -0.7841  0.2311
13012TIP3    H260528   2.000   5.118   4.550  2.0972 -0.6811  2.7975
13013TIP3   OH260529   1.461   5.112   6.066  0.1146  0.0721 -0.1516
13013TIP3    H160530   1.494   5.102   5.977 -0.8378  0.1773 -0.5254
13013TIP3    H260531   1.464   5.024   6.103 -2.2086 -0.5732 -1.2870
13014TIP3   OH260532   3.871   6.705  14.060  0.0336 -0.1102  0.2431
13014TIP3    H160533   3.961   6.708  14.026  0.3969 -0.7424  1.1228
13014TIP3    H260534   3.866   6.777  14.123 -0.5299  0.8238 -0.8152
13015TIP3   OH260535   6.638   6.329  11.916  0.4080 -0.1185  0.0394
13015TIP3    H160536   6.606   6.411  11.955  0.0580  0.0833 -0.6480
13015TIP3    H260537   6.629   6.342  11.822  0.0073 -1.0875 -0.0706
13016TIP3   OH260538   3.914   1.419   1.535 -0.4936  0.1347 -0.1163
13016TIP3    H160539   3.921   1.456   1.623  0.4069  0.7990 -0.4623
13016TIP3    H260540   3.904   1.495   1.477 -0.4557 -0.2613 -0.6533
13017TIP3   OH260541   1.257   2.264   3.253  0.8028 -0.3586  0.3669
13017TIP3    H160542   1.295   2.321   3.320 -2.1555 -1.2610  3.0448
13017TIP3    H260543   1.162   2.277   3.260  0.2474 -1.6413 -2.7030
13018TIP3   OH260544   6.694   4.728   6.469 -0.2250 -0.1143  0.8662
13018TIP3    H160545   6.745   4.648   6.475  0.2433  0.1647  0.7054
13018TIP3    H260546   6.727   4.783   6.540  0.2401  0.3661  0.2862
13019TIP3   OH260547   2.217   5.708   5.247 -0.2802  0.0654 -0.1963
13019TIP3    H160548   2.242   5.617   5.236 -0.9233 -0.2022  0.4541
13019TIP3    H260549   2.121   5.706   5.253 -0.2612  0.6960  0.5594
13020TIP3   OH260550   3.175   1.186   4.786 -0.1965 -0.2352  0.2579
13020TIP3    H160551   3.149   1.107   4.833 -0.2011 -0.2674  0.2022
13020TIP3    H260552   3.270   1.190   4.795 -0.3778  0.8829  2.0263
13021TIP3   OH260553   6.169   1.354   0.004  0.6049  0.1951 -0.0057
13021TIP3    H160554   6.203   1.410  -0.066  0.0567 -0.4950 -0.8603
13021TIP3    H260555   6.116   1.289  -0.042 -0.1243 -0.0204  1.1035
13022TIP3   OH260556   2.119   1.832  13.577  0.3901  0.0606 -0.0131
13022TIP3    H160557   2.037   1.875  13.554  1.6088  2.4682 -0.1284
13022TIP3    H260558   2.112   1.816  13.671 -0.6417 -0.8277 -0.2177
13023TIP3   OH260559   4.356   1.566  14.410  0.3052  0.1372  0.1006
13023TIP3    H160560   4.382   1.572  14.319  0.1941 -0.1305  0.0516
13023TIP3    H260561   4.339   1.657  14.436 -1.5116  0.0516 -0.6816
13024TIP3   OH260562   6.588   0.466   3.776  0.1340 -0.2197 -0.1856
13024TIP3    H160563   6.604   0.427   3.690  0.7348 -0.6070  0.1001
13024TIP3    H260564   6.565   0.557   3.756  2.7486  0.4240 -0.6661
13025TIP3   OH260565   3.460   3.849   6.139  0.1419  0.0762  0.4303
13025TIP3    H160566   3.511   3.780   6.095  1.5367  1.2779  0.0986
13025TIP3    H260567   3.523   3.918   6.158 -1.1692  1.1779  0.9859
13026TIP3   OH260568   2.442   3.666   2.996 -0.1215  0.3921 -0.0839
13026TIP3    H160569   2.397   3.638   2.917  1.3758  1.6155 -1.4512
13026TIP3    H260570   2.499   3.592   3.019 -0.0511  0.2883 -0.5750
13027TIP3   OH260571   5.444   0.918  13.022  0.0569 -0.5183  0.6245
13027TIP3    H160572   5.446   0.868  13.104  0.3620  1.5985  1.9871
13027TIP3    H260573   5.532   0.955  13.015 -0.7017  1.3986  0.7365
13028TIP3   OH260574   6.272   0.295  16.859  0.2676 -0.0048 -0.4854
13028TIP3    H160575   6.181   0.323  16.853  0.2627  0.2009  0.3832
13028TIP3    H260576   6.299   0.282  16.768 -0.8819 -0.9042 -0.7254
13029TIP3   OH260577   4.075   0.689  15.553 -0.0028  0.5189  0.0091
13029TIP3    H160578   4.113   0.625  15.494 -1.7001  0.1052 -0.6813
13029TIP3    H260579   3.990   0.711  15.514 -0.6109  1.1922  1.6159
13030TIP3   OH260580   3.879   3.586  16.589 -0.0148  0.4820  0.4680
13030TIP3    H160581   3.938   3.588  16.664  2.5515  1.2467 -1.4348
13030TIP3    H260582   3.862   3.678  16.569  0.7222  0.3580 -0.8530
13031TIP3   OH260583   2.864   6.722  13.839 -0.3548 -0.0441 -0.1261
13031TIP3    H160584   2.781   6.740  13.883  0.1993 -0.3658  1.0912
13031TIP3    H260585   2.856   6.765  13.754 -2.3446 -1.2910 -0.6369
13032TIP3   OH260586   1.872   3.583   1.517  0.0751 -0.0291  0.0384
13032TIP3    H160587   1.828   3.666   1.499 -0.4202 -0.2394  0.2522
13032TIP3    H260588   1.961   3.607   1.542  0.9704  0.2701 -3.0413
13033TIP3   OH260589   4.954   4.721  11.392  0.1294 -0.1641  0.7169
13033TIP3    H160590   5.034   4.675  11.418  0.2762 -0.8229 -0.7680
13033TIP3    H260591   4.930   4.680  11.309 -0.2123  1.8908 -0.2436
13034TIP3   OH260592   5.726   4.413   1.732  0.6278  0.4274 -0.1319
13034TIP3    H160593   5.751   4.326   1.700  0.2207  0.1715  0.2412
13034TIP3    H260594   5.672   4.450   1.663 -0.8162 -0.3926  0.5125
13035TIP3   OH260595   1.088   2.081  15.376 -0.2840  0.0785  0.2157
13035TIP3    H160596   1.099   2.174  15.395 -0.8243  0.1233  0.3442
13035TIP3    H260597   1.002   2.060  15.412 -1.2963  0.1130 -2.0306
13036TIP3   OH260598   3.269   6.537  17.199  0.1920 -0.0674 -0.0845
13036TIP3    H160599   3.198   6.478  17.175 -0.5784  0.8800 -0.1634
13036TIP3    H260600   3.287   6.516  17.291 -0.6027  0.0955  0.1180
13037TIP3   OH260601   3.075   6.379   3.993  0.0288 -0.3998 -0.5502
13037TIP3    H160602   3.076   6.318   3.919  0.1982 -1.6013  0.4062
13037TIP3    H260603   3.123   6.456   3.961  1.3056 -1.4419 -1.2623
13038TIP3   OH260604   4.309   4.366  15.789  0.2387  0.1610 -0.5133
13038TIP3    H160605   4.288   4.280  15.826 -3.1688  0.1884 -2.0000
13038TIP3    H260606   4.303   4.353  15.694  3.6173  1.2408 -0.9980
13039TIP3   OH260607   1.320   1.861  14.761 -0.2859  0.5237  0.4763
13039TIP3    H160608   1.407   1.898  14.757  0.0593 -0.3658 -0.8726
13039TIP3    H260609   1.285   1.870  14.673 -2.1138  2.0794  1.2826
13040TIP3   OH260610   3.881   5.476   1.264 -0.2350 -0.4296  0.1037
13040TIP3    H160611   3.946   5.544   1.280 -1.0544  0.1457  1.0889
13040TIP3    H260612   3.838   5.502   1.182 -1.4537  0.9966  1.1605
13041TIP3   OH260613   5.198   0.669  15.844 -0.0697 -0.1790  0.0294
13041TIP3    H160614   5.283   0.627  15.858  0.4385  0.7078 -0.2924
13041TIP3    H260615   5.135   0.610  15.885  0.8292 -0.2290  1.4107
13042TIP3   OH260616   5.158   6.406   5.109 -0.2004  0.1011 -0.2059
13042TIP3    H160617   5.147   6.433   5.200  1.5050 -2.6475  0.9216
13042TIP3    H260618   5.078   6.436   5.066 -1.5651  0.5490  2.4187
13043TIP3   OH260619   2.142   2.944   5.395 -0.2688 -0.0435 -0.4128
13043TIP3    H160620   2.222   2.983   5.362  0.3973 -1.8016 -0.9925
13043TIP3    H260621   2.162   2.851   5.405 -2.2833 -0.5788 -0.7770
13044TIP3   OH260622   4.284   0.892  13.227 -0.4334  0.3823  0.2597
13044TIP3    H160623   4.334   0.811  13.218 -1.2482 -0.4163  2.2886
13044TIP3    H260624   4.335   0.945  13.289  0.7011  2.0128 -1.9052
13045TIP3   OH260625   6.180   3.200   4.946 -0.2359  0.2463  0.0867
13045TIP3    H160626   6.260   3.183   4.996 -0.1876 -0.1132 -0.1056
13045TIP3    H260627   6.183   3.136   4.875 -0.9903 -0.1708  0.4173
13046TIP3   OH260628   3.233   3.015  12.210  0.4816 -0.9041  0.0748
13046TIP3    H160629   3.149   3.061  12.213  0.0303 -1.7626  1.6508
13046TIP3    H260630   3.230   2.965  12.128  0.2293  0.4272 -0.7597
13047TIP3   OH260631   5.084   3.259  10.876 -0.1495 -0.3330 -0.2237
13047TIP3    H160632   5.087   3.353  10.861  0.6101 -0.2583  0.3681
13047TIP3    H260633   5.140   3.244  10.952 -1.7981 -1.0303  0.9209
13048TIP3   OH260634   5.282   2.199  11.523  0.1182 -0.4829 -0.2938
13048TIP3    H160635   5.315   2.191  11.434  0.1727  0.3181 -0.3537
13048TIP3    H260636   5.190   2.174  11.517  0.6182 -2.5523 -0.1608
13049TIP3   OH260637   4.263   4.233  16.256  0.1377  0.1670 -0.7621
13049TIP3    H160638   4.246   4.195  16.170 -0.3165  0.0724 -0.6362
13049TIP3    H260639   4.187   4.288  16.272 -1.1501 -1.8886  0.7284
13050TIP3   OH260640   2.265   3.000   4.590  0.1742  0.3014 -0.4958
13050TIP3    H160641   2.251   3.006   4.496  2.0121 -0.2277 -0.8490
13050TIP3    H260642   2.338   2.938   4.599  1.4007  1.8894  1.1426
13051TIP3   OH260643   0.808   3.398  16.898 -0.3791  0.1918  0.2723
13051TIP3    H160644   0.786   3.488  16.872  0.1911  0.4085  0.5019
13051TIP3    H260645   0.808   3.349  16.817 -2.2883  0.0365  0.3351
13052TIP3   OH260646   4.387   1.230  12.745 -0.8056 -0.3126  0.5120
13052TIP3    H160647   4.334   1.275  12.679  1.6587  0.9845 -0.6973
13052TIP3    H260648   4.428   1.157  12.697 -0.4870 -0.5277  1.0995
13053TIP3   OH260649   2.394   6.265  16.754  0.0017 -0.1755 -0.0844
13053TIP3    H160650   2.379   6.212  16.676 -2.1959 -1.1081  0.9069
13053TIP3    H260651   2.419   6.202  16.822  1.1217  0.5356  0.1910
13054TIP3   OH260652   0.630   6.151   4.304  0.3535  0.3675  0.3747
13054TIP3    H160653   0.605   6.230   4.353 -1.5565  0.6559 -0.9810
13054TIP3    H260654   0.554   6.094   4.311  1.1770 -0.7821  0.1270
13055TIP3   OH260655   4.441   5.805  17.221  0.2122  0.0438 -0.1606
13055TIP3    H160656   4.469   5.860  17.294  0.6409 -0.6000  0.1791
13055TIP3    H260657   4.423   5.720  17.261 -1.4543  0.2078 -0.5172
13056TIP3   OH260658   1.172   6.486   2.342  0.1399  0.2303 -0.1985
13056TIP3    H160659   1.160   6.558   2.279  0.3643  0.1171 -0.3711
13056TIP3    H260660   1.156   6.407   2.290  0.6183  0.1223 -0.1847
13057TIP3   OH260661   6.052   0.846  16.246 -0.3109 -0.0135 -0.4230
13057TIP3    H160662   6.085   0.921  16.296 -0.9326  1.0178 -1.5003
13057TIP3    H260663   6.094   0.855  16.160 -2.3386  0.6207 -1.4159
13058TIP3   OH260664   5.628   6.296  15.678  0.4843  0.6072 -0.7227
13058TIP3    H160665   5.614   6.328  15.767 -0.6582 -1.2608 -0.1670
13058TIP3    H260666   5.701   6.235  15.685 -0.5117 -0.6132 -0.7678
13059TIP3   OH260667   3.739   3.620  12.365 -0.3777  0.7342  0.1466
13059TIP3    H160668   3.778   3.601  12.279  0.4639  0.6760  0.5335
13059TIP3    H260669   3.804   3.589  12.428 -0.3794  2.0013  0.7998
13060TIP3   OH260670   6.447   1.898   0.824  0.2325 -0.7061 -0.3986
13060TIP3    H160671   6.398   1.900   0.906  0.8553 -0.2049 -0.0366
13060TIP3    H260672   6.379   1.906   0.756 -0.1513  0.8902  0.1205
13061TIP3   OH260673   5.410   4.654  12.349  0.3588  0.0742 -0.6424
13061TIP3    H160674   5.396   4.616  12.262 -1.4974 -0.4330 -0.1497
13061TIP3    H260675   5.450   4.583  12.399  0.6031  0.0794 -0.8258
13062TIP3   OH260676   3.459   0.746   2.725  0.0481 -0.4310 -0.4376
13062TIP3    H160677   3.446   0.693   2.647 -1.1255  2.3587 -2.2998
13062TIP3    H260678   3.513   0.819   2.696  2.2039 -0.8333  2.1709
13063TIP3   OH260679   4.888   3.420   1.476  0.4682  0.4300  0.0507
13063TIP3    H160680   4.866   3.434   1.384  0.2815  0.0092  0.0286
13063TIP3    H260681   4.814   3.370   1.511  1.1610 -0.5980  0.0884
13064TIP3   OH260682   4.812   0.059   4.847  0.3002 -0.3947  0.1605
13064TIP3    H160683   4.761   0.041   4.768  0.3030  1.5017 -0.3134
13064TIP3    H260684   4.751   0.104   4.905  0.8057 -0.1465  0.5065
13065TIP3   OH260685   4.588   6.035   1.477 -0.2469 -0.4149 -0.5211
13065TIP3    H160686   4.564   5.963   1.419  0.9342 -2.3333  1.2145
13065TIP3    H260687   4.505   6.064   1.515 -0.5410 -2.9111  0.9391
13066TIP3   OH260688   2.126   4.974  16.855  0.5726 -0.1981 -0.2217
13066TIP3    H160689   2.136   5.016  16.940 -0.4384  1.5489 -0.9015
13066TIP3    H260690   2.195   5.011  16.801 -1.1031  1.7301 -1.1950
13067TIP3   OH260691   0.717   2.727   5.455 -0.2435 -0.6104  0.8001
13067TIP3    H160692   0.796   2.674   5.444  0.1579 -0.0782  1.0471
13067TIP3    H260693   0.741   2.813   5.421 -1.3260 -0.9308 -0.9087
13068TIP3   OH260694   5.608   1.062   5.208 -0.0581  0.5351  0.6524
13068TIP3    H160695   5.570   0.990   5.259 -2.1075  1.3633  0.3832
13068TIP3    H260696   5.699   1.036   5.194 -1.3414 -3.4974 -2.0286
13069TIP3   OH260697   5.327   5.119  17.040  0.0669  0.3663 -0.1455
13069TIP3    H160698   5.400   5.075  17.083 -0.9613 -1.0619  0.2537
13069TIP3    H260699   5.250   5.069  17.069 -1.1158  2.0923 -0.1802
13070TIP3   OH260700   6.478   4.211  12.419 -0.6076  0.1798  0.3649
13070TIP3    H160701   6.471   4.124  12.457  1.2136  1.0282  3.0048
13070TIP3    H260702   6.558   4.208  12.367 -1.8587 -0.3385 -1.6022
13071TIP3   OH260703   6.424   2.475   2.108 -0.2412 -1.0287  0.0380
13071TIP3    H160704   6.480   2.467   2.030 -1.3623 -2.7751 -0.6625
13071TIP3    H260705   6.441   2.563   2.141  2.3198 -1.2134 -0.5801
13072TIP3   OH260706   6.182   3.501  12.062  0.2151 -0.0622 -0.2569
13072TIP3    H160707   6.153   3.449  12.137 -0.4134 -0.3910 -0.7231
13072TIP3    H260708   6.155   3.591  12.084 -2.6322 -0.5332 -1.3171
13073TIP3   OH260709   1.816   5.567   2.649  0.5314  0.1763  0.1197
13073TIP3    H160710   1.858   5.485   2.677 -2.3798 -1.0981  1.1112
13073TIP3    H260711   1.788   5.608   2.731 -2.1513 -0.2260 -0.5239
13074TIP3   OH260712   4.969   5.224  11.103  0.2942 -0.6445 -0.1108
13074TIP3    H160713   4.910   5.265  11.039 -1.1467  0.6990  1.9283
13074TIP3    H260714   4.919   5.149  11.135  0.8603 -1.1007 -0.2885
13075TIP3   OH260715   4.569   1.728  14.609 -0.0876  0.1756 -0.2388
13075TIP3    H160716   4.488   1.744  14.658  0.4219 -0.5728  0.9047
13075TIP3    H260717   4.600   1.643  14.641  0.8003  0.1357 -1.1471
13076TIP3   OH260718   0.050   2.958  13.052  0.0013 -0.4973 -0.1229
13076TIP3    H160719   0.132   2.908  13.047  0.5953  0.4730 -0.2747
13076TIP3    H260720   0.036   2.972  13.145  0.1696 -0.4138 -0.1088
13077TIP3   OH260721   2.710   4.737   1.079  0.2942  0.2143 -0.3060
13077TIP3    H160722   2.732   4.674   1.149 -3.1027 -0.4547  0.3257
13077TIP3    H260723   2.643   4.793   1.118 -1.5672 -0.0332 -2.9317
13078TIP3   OH260724   5.250   3.447   6.585 -0.8134  0.1627 -0.4425
13078TIP3    H160725   5.210   3.414   6.506 -2.5601  0.9517  0.0569
13078TIP3    H260726   5.309   3.517   6.555  1.0731 -1.6786 -1.2707
13079TIP3   OH260727   1.246   1.140   3.523 -0.2872 -0.4828  0.2836
13079TIP3    H160728   1.246   1.161   3.617  1.1327  0.4254  0.1122
13079TIP3    H260729   1.154   1.143   3.498 -0.5597  0.8051  1.3246
13080TIP3   OH260730   1.076   1.044  17.213 -0.1243  0.1944  0.3471
13080TIP3    H160731   1.118   1.130  17.216 -1.9891  1.1854 -0.4070
13080TIP3    H260732   1.133   0.991  17.158  1.4552  0.6924  1.4454
13081TIP3   OH260733   3.338   4.654   4.672 -0.3047  0.0591  0.0233
13081TIP3    H160734   3.433   4.653   4.685  0.2257 -0.2278 -2.9452
13081TIP3    H260735   3.321   4.576   4.618 -2.5457 -0.8972  1.9271
13082TIP3   OH260736   2.894   2.348   2.928  0.3750  0.3107 -0.4242
13082TIP3    H160737   2.865   2.428   2.970 -0.4062 -0.2339  0.0944
13082TIP3    H260738   2.830   2.282   2.954  0.4731 -0.2859 -1.5963
13083TIP3   OH260739   5.789   5.426   1.268 -0.2009 -0.0432 -0.5470
13083TIP3    H160740   5.728   5.488   1.229  1.2211  2.4465  0.9692
13083TIP3    H260741   5.736   5.378   1.332 -1.3414 -0.5770 -1.8239
13084TIP3   OH260742   5.252   4.410  12.268  0.7314 -0.1782  0.3835
13084TIP3    H160743   5.228   4.363  12.347 -0.2752  1.5797  1.1941
13084TIP3    H260744   5.322   4.358  12.229 -1.1262 -2.9571  0.5272
13085TIP3   OH260745   3.956   6.554   4.788  0.3062  0.1398 -0.1987
13085TIP3    H160746   4.052   6.551   4.787  0.3173  0.2342  0.5757
13085TIP3    H260747   3.934   6.620   4.722  0.7339 -0.5277 -1.0456
13086TIP3   OH260748   4.187   6.576   5.630  0.2993  0.2295 -0.5246
13086TIP3    H160749   4.155   6.485   5.624 -0.9626  0.7152 -1.8040
13086TIP3    H260750   4.116   6.624   5.672  1.5303  0.4137  1.4474
13087TIP3   OH260751   5.189   5.400  16.711 -0.3922  0.3659  0.2906
13087TIP3    H160752   5.217   5.413  16.621  2.9653  2.0730  1.4178
13087TIP3    H260753   5.128   5.472  16.728 -2.3652 -0.9078 -0.9740
13088TIP3   OH260754   4.890   3.456   4.831  0.0254 -0.4287 -0.2632
13088TIP3    H160755   4.808   3.408   4.819 -0.9055  0.2191  2.6015
13088TIP3    H260756   4.864   3.548   4.834  1.0226 -0.1267 -0.3302
13089TIP3   OH260757   5.686   5.696  13.750 -0.2332 -0.4388  0.1700
13089TIP3    H160758   5.773   5.691  13.790 -0.3648  3.0172  1.1393
13089TIP3    H260759   5.698   5.754  13.675 -1.6852 -0.0100  0.2462
13090TIP3   OH260760   4.438   3.408   5.949  0.0296 -0.2115 -0.7841
13090TIP3    H160761   4.416   3.319   5.975  0.3761 -0.4314 -1.2278
13090TIP3    H260762   4.467   3.451   6.029  0.6939 -0.7553 -0.7238
13091TIP3   OH260763   2.983   4.222   4.855 -0.2485  0.0037  0.7964
13091TIP3    H160764   2.906   4.253   4.902 -0.3754  1.6342 -0.4047
13091TIP3    H260765   3.013   4.298   4.805  0.6699 -1.2891 -0.7045
13092TIP3   OH260766   5.848   6.011   1.231 -0.4216  0.4111 -0.2463
13092TIP3    H160767   5.785   5.998   1.160 -2.1918  1.1885  1.0946
13092TIP3    H260768   5.800   5.988   1.311  1.4530 -0.3004  0.7471
13093TIP3   OH260769   1.143   3.690  14.582  0.2147 -0.1908 -0.5165
13093TIP3    H160770   1.195   3.733  14.650 -1.0162 -1.2109  1.1339
13093TIP3    H260771   1.203   3.628  14.541  1.4658  1.6268 -1.6266
13094TIP3   OH260772   4.918   3.676   2.600  0.4375  0.2228 -0.1585
13094TIP3    H160773   5.002   3.664   2.644 -0.0186  0.2243  0.7173
13094TIP3    H260774   4.903   3.592   2.555 -0.9571 -1.3193  2.9164
13095TIP3   OH260775   5.414   3.853   2.094 -0.3498  0.1486  0.4543
13095TIP3    H160776   5.447   3.771   2.056 -0.4659 -0.2734  1.2430
13095TIP3    H260777   5.463   3.922   2.048  0.8059 -0.4167  0.7985
13096TIP3   OH260778   2.843   1.573   4.898  0.3191 -0.0084 -0.2666
13096TIP3    H160779   2.856   1.623   4.818  0.3298  0.4634  0.0229
13096TIP3    H260780   2.931   1.564   4.935  0.2695  0.1128 -0.1154
13097TIP3   OH260781   2.395   3.290   5.286 -0.1590  0.0961  0.2819
13097TIP3    H160782   2.457   3.361   5.270 -0.4212  0.1554 -0.4771
13097TIP3    H260783   2.309   3.332   5.284 -0.2431 -0.0082  1.1940
13098TIP3   OH260784   5.888   3.313   0.274  0.3739 -0.7477 -0.4820
13098TIP3    H160785   5.830   3.258   0.221  0.1494 -2.1707  1.1585
13098TIP3    H260786   5.945   3.251   0.319  1.1290  0.4618  0.2799
13099TIP3   OH260787   6.599   5.531   3.073 -0.6408 -0.1478  0.4532
13099TIP3    H160788   6.617   5.443   3.107  0.7790  0.1688  0.5996
13099TIP3    H260789   6.661   5.541   3.001 -1.4629  0.3857 -0.1923
13100TIP3   OH260790   1.010   1.551   1.158  0.3330 -0.1620 -0.2138
13100TIP3    H160791   1.000   1.510   1.244 -0.1239  1.6944  0.6617
13100TIP3    H260792   1.072   1.622   1.172 -1.6229  1.7565 -0.8029
13101TIP3   OH260793   1.230   3.709   0.595 -0.2356  0.1993  0.9324
13101TIP3    H160794   1.291   3.635   0.591  0.6796  0.9425  0.6650
13101TIP3    H260795   1.214   3.733   0.504  0.3578  1.0154  1.0275
13102TIP3   OH260796   2.643   5.736  11.351 -0.5117  0.6657  0.8708
13102TIP3    H160797   2.683   5.657  11.315 -0.2550  1.3099 -0.3023
13102TIP3    H260798   2.713   5.778  11.401 -0.4161  0.5656  0.8205
13103TIP3   OH260799   0.546   4.881  15.035  0.3588 -0.4918 -0.2754
13103TIP3    H160800   0.599   4.955  15.065 -1.9481  0.2680  2.3393
13103TIP3    H260801   0.608   4.808  15.029  2.0154  0.7606  0.7394
13104TIP3   OH260802   0.257   1.593  12.828 -0.4068 -0.0094  0.2245
13104TIP3    H160803   0.247   1.629  12.739 -0.5133 -1.1651 -0.2434
13104TIP3    H260804   0.176   1.546  12.844  0.5170 -1.7705 -0.0067
13105TIP3   OH260805   4.795   6.117   5.518  0.0356 -0.0469  0.1899
13105TIP3    H160806   4.827   6.149   5.434 -0.7766 -0.5209 -0.3163
13105TIP3    H260807   4.870   6.124   5.577  0.3114  1.3404 -0.2822
13106TIP3   OH260808   0.614   2.316  11.915 -0.0340 -0.0410 -0.4585
13106TIP3    H160809   0.629   2.301  11.822 -2.6223  0.1280 -0.9729
13106TIP3    H260810   0.553   2.389  11.919 -0.7112 -0.6343  1.3266
13107TIP3   OH260811   1.123   5.864   5.618  0.1331 -0.1153 -0.5102
13107TIP3    H160812   1.048   5.805   5.611  1.1398 -1.5798  0.6332
13107TIP3    H260813   1.135   5.879   5.712  0.0721  1.7424 -0.7450
13108TIP3   OH260814   1.858   4.445   4.500  0.4333  0.1816 -0.3061
13108TIP3    H160815   1.787   4.463   4.562 -1.3588 -0.4815 -2.0421
13108TIP3    H260816   1.858   4.350   4.492  1.1452  0.2158 -0.7559
13109TIP3   OH260817   3.830   1.441  11.550 -0.2504 -0.2999 -0.4042
13109TIP3    H160818   3.803   1.414  11.462  0.3657 -0.1769 -0.6369
13109TIP3    H260819   3.797   1.372  11.608  0.8055 -1.2684 -0.9263
13110TIP3   OH260820   4.959   4.214   6.214  0.1793  0.1484  0.5050
13110TIP3    H160821   4.865   4.205   6.229 -0.1852 -0.5113 -1.7300
13110TIP3    H260822   4.987   4.282   6.274 -1.5919 -0.1141  1.7007
13111TIP3   OH260823   5.507   4.359   0.931  0.7330 -0.1755 -0.1938
13111TIP3    H160824   5.586   4.308   0.949 -0.3007 -2.4210 -1.6762
13111TIP3    H260825   5.444   4.296   0.897 -2.6089  1.0181  3.1160
13112TIP3   OH260826   4.340   1.550  11.773  0.0000  0.5010  0.0226
13112TIP3    H160827   4.360   1.502  11.693  1.0272 -0.1128  0.6295
13112TIP3    H260828   4.244   1.553  11.776 -0.0572 -0.2908 -0.7481
13113TIP3   OH260829   5.733   4.304   6.113  0.1788  0.5003 -0.0888
13113TIP3    H160830   5.686   4.221   6.121 -0.0799  0.6820  0.2757
13113TIP3    H260831   5.680   4.367   6.161  0.6113  0.7827  0.0223
13114TIP3   OH260832   2.939   0.586  11.743 -0.5053 -0.3103 -0.2216
13114TIP3    H160833   2.936   0.642  11.821 -1.4567 -1.0901  0.3293
13114TIP3    H260834   2.969   0.644  11.673  0.3739  0.4092  0.7165
13115TIP3   OH260835   3.845   4.449   1.584  0.1553  0.0648  0.2389
13115TIP3    H160836   3.862   4.423   1.675 -0.7825 -0.4287  0.2854
13115TIP3    H260837   3.930   4.443   1.541  0.4259 -0.6427  0.8565
13116TIP3   OH260838   4.782   2.464   4.773  0.4902  0.2842 -0.4963
13116TIP3    H160839   4.859   2.426   4.814  1.1471  2.2395  0.1956
13116TIP3    H260840   4.715   2.396   4.780  1.7145 -0.8838  0.2700
13117TIP3   OH260841   5.578   2.918   0.529  0.0675 -0.0962 -0.0177
13117TIP3    H160842   5.568   2.929   0.435 -0.4333 -0.6635 -0.0359
13117TIP3    H260843   5.672   2.904   0.542 -0.1355 -2.9076 -0.7857
13118TIP3   OH260844   0.154   2.880  14.391  0.0024  0.0233 -0.4510
13118TIP3    H160845   0.072   2.831  14.389 -0.4186  0.7109 -0.3481
13118TIP3    H260846   0.146   2.937  14.468  2.1149 -2.4766  1.8724
13119TIP3   OH260847   2.413   2.016  17.125  0.7007 -0.4565  0.1957
13119TIP3    H160848   2.477   2.018  17.054  0.8624 -1.6666  0.2778
13119TIP3    H260849   2.433   2.093  17.178 -0.5275  1.4864 -1.9814
13120TIP3   OH260850   4.960   3.959   4.906 -0.0492  0.6430  0.1265
13120TIP3    H160851   4.979   3.886   4.965  1.0407 -1.1509 -2.2629
13120TIP3    H260852   4.884   3.928   4.855 -0.8105  2.0273  0.3876
13121TIP3   OH260853   2.038   0.110   0.149 -0.0013 -0.3480  0.1383
13121TIP3    H160854   1.945   0.092   0.165  0.1297 -0.3846  0.8958
13121TIP3    H260855   2.071   0.139   0.234  0.7610 -0.6818 -0.0404
13122TIP3   OH260856   0.370   5.079   1.125  0.4807  0.1632  0.4795
13122TIP3    H160857   0.444   5.132   1.095 -0.0915  0.1398 -1.1115
13122TIP3    H260858   0.402   4.989   1.123  0.4880  0.1732  0.0064
13123TIP3   OH260859   5.755   3.522  15.665 -0.2863  0.0881 -0.0157
13123TIP3    H160860   5.729   3.608  15.632  2.7164  0.9482 -0.4150
13123TIP3    H260861   5.744   3.529  15.760 -0.2034  0.8671 -0.0575
13124TIP3   OH260862   0.771   0.686  11.956 -0.0988 -0.0082 -0.5079
13124TIP3    H160863   0.734   0.773  11.938 -0.2567  0.2234  0.8493
13124TIP3    H260864   0.813   0.695  12.041  0.0663 -1.2169 -0.4509
13125TIP3   OH260865   4.868   2.736  15.288 -0.4059 -0.3434  0.6441
13125TIP3    H160866   4.808   2.760  15.358 -2.0488  0.3167 -0.9408
13125TIP3    H260867   4.921   2.815  15.274  0.2457 -0.6263  1.4127
13126TIP3   OH260868   6.444   1.653   0.277 -0.4749  0.1681  0.4428
13126TIP3    H160869   6.431   1.650   0.183  0.1205 -0.6447  0.3766
13126TIP3    H260870   6.365   1.694   0.311 -0.9342 -0.0410 -0.3596
13127TIP3   OH260871   6.599   4.463   5.997  0.1942 -0.1693  0.1470
13127TIP3    H160872   6.526   4.498   5.947 -0.2209  1.3254  1.7068
13127TIP3    H260873   6.563   4.446   6.084  1.4044 -0.6433  0.5785
13128TIP3   OH260874   4.163   1.464  15.552  0.0760  0.7599 -0.2680
13128TIP3    H160875   4.201   1.403  15.489 -1.0897 -1.2914  0.9328
13128TIP3    H260876   4.235   1.522  15.576  1.3631 -0.4674 -1.0660
13129TIP3   OH260877   1.523   0.765  15.224  0.0077 -0.3215 -0.0719
13129TIP3    H160878   1.571   0.683  15.221  1.3676  0.4290 -2.9257
13129TIP3    H260879   1.569   0.818  15.289  2.6452  0.0300 -2.0688
13130TIP3   OH260880   3.405   0.177  11.743  0.1387 -0.4346  0.4983
13130TIP3    H160881   3.492   0.146  11.718 -0.6811 -2.3693 -0.1537
13130TIP3    H260882   3.350   0.153  11.669 -0.9307  0.9046  0.8377
13131TIP3   OH260883   5.344   2.602  16.553 -0.2483 -0.1848  0.2854
13131TIP3    H160884   5.290   2.668  16.509  0.3158  0.5556  0.6729
13131TIP3    H260885   5.359   2.535  16.486  1.4444  1.3949 -1.0532
13132TIP3   OH260886   1.587   0.396   1.272  0.0895 -0.1314  0.0252
13132TIP3    H160887   1.617   0.309   1.299 -0.5006 -0.6376 -0.9029
13132TIP3    H260888   1.522   0.379   1.203 -1.8969  0.9193  1.5115
13133TIP3   OH260889   0.113   3.623  11.917  0.3860 -0.4642 -0.3752
13133TIP3    H160890   0.089   3.532  11.898 -0.5969 -0.2310 -0.3443
13133TIP3    H260891   0.078   3.639  12.005 -1.4661  0.5878 -1.2340
13134TIP3   OH260892   4.036   0.948  15.225  0.5407  0.2116 -0.5428
13134TIP3    H160893   4.113   0.950  15.282 -0.3765 -1.4699  0.8251
13134TIP3    H260894   4.049   1.023  15.166  4.0847 -1.0027 -1.5850
13135TIP3   OH260895   1.531   2.283   1.223  0.0566 -0.1974  0.3084
13135TIP3    H160896   1.568   2.342   1.289 -2.1080  1.4678  0.1473
13135TIP3    H260897   1.461   2.236   1.268 -0.7485  0.1873 -0.5028
13136TIP3   OH260898   1.101   5.407   1.582 -0.4455  0.3046 -0.5671
13136TIP3    H160899   1.061   5.384   1.498 -0.9281  0.5778 -0.4131
13136TIP3    H260900   1.027   5.432   1.638 -0.0335  1.1191 -0.3758
13137TIP3   OH260901   1.524   3.371   5.210  0.0457  0.1389  0.6281
13137TIP3    H160902   1.459   3.408   5.150  1.6721  1.0113 -0.6757
13137TIP3    H260903   1.524   3.432   5.284  0.4512  1.0176 -0.0715
13138TIP3   OH260904   3.843   1.510   0.962 -0.1786  0.0470 -0.2297
13138TIP3    H160905   3.790   1.468   1.031  0.4870  1.7436  1.4122
13138TIP3    H260906   3.816   1.602   0.965  0.2089  0.2416 -1.9560
13139TIP3   OH260907   5.386   4.799   3.768  0.2572 -0.7435 -0.8401
13139TIP3    H160908   5.307   4.768   3.812  0.3972 -0.5217 -0.4286
13139TIP3    H260909   5.367   4.891   3.747  1.4948  0.2516  1.9280
13140TIP3   OH260910   5.703   2.738  17.309 -0.4055 -0.1546  0.3308
13140TIP3    H160911   5.628   2.685  17.335  0.0517 -1.2579 -0.5312
13140TIP3    H260912   5.777   2.679  17.314  0.1776  0.5057 -0.2719
13141TIP3   OH260913   4.998   3.018   4.547  0.2913 -0.4072  0.1821
13141TIP3    H160914   4.973   2.996   4.637  1.6922  1.4436  1.0885
13141TIP3    H260915   5.092   3.033   4.552  0.4135 -0.4244 -1.6455
13142TIP3   OH260916   0.665   1.853  14.377  0.5438 -0.4109  0.0883
13142TIP3    H160917   0.697   1.777  14.425  2.2203  0.7850  0.9606
13142TIP3    H260918   0.576   1.829  14.349  0.2844 -1.9223  2.0265
13143TIP3   OH260919   5.055   5.076   6.518 -0.2177  0.3206 -0.2045
13143TIP3    H160920   5.085   5.057   6.429  3.0220 -0.6586  0.9630
13143TIP3    H260921   5.035   5.170   6.517  0.5042  0.4870 -1.7892
13144TIP3   OH260922   6.628   3.939  14.359  0.5617  0.2180  0.0070
13144TIP3    H160923   6.637   3.894  14.275  1.4341  1.3283 -0.5286
13144TIP3    H260924   6.680   4.018  14.349 -1.9267  2.0135  0.4741
13145TIP3   OH260925   6.733   5.935   2.698 -0.3553 -0.3253  0.3028
13145TIP3    H160926   6.645   5.970   2.704 -0.6305 -0.6596 -1.3854
13145TIP3    H260927   6.772   5.980   2.623  0.7431 -0.5412  0.7225
13146TIP3   OH260928   5.549   0.980  13.730  0.0631 -0.6217 -0.5625
13146TIP3    H160929   5.518   0.967  13.640  1.0170 -0.8803 -0.8640
13146TIP3    H260930   5.548   0.892  13.768 -3.1726 -0.1826  0.6751
13147TIP3   OH260931   1.900   3.165  17.057 -0.3099 -0.0104 -0.1065
13147TIP3    H160932   1.897   3.096  17.123  0.2550  0.8648  0.8462
13147TIP3    H260933   1.986   3.157  17.017  0.3322  1.0360  1.0080
13148TIP3   OH260934   6.484   5.005  11.749 -0.2534  0.0792  0.6147
13148TIP3    H160935   6.500   4.989  11.656 -0.0577  0.7298  0.5335
13148TIP3    H260936   6.515   4.925  11.792 -0.2922 -0.2031  0.1298
13149TIP3   OH260937   3.457   1.242  11.114 -0.4136 -0.2297  0.1416
13149TIP3    H160938   3.531   1.302  11.113 -1.2067  0.7908  0.9692
13149TIP3    H260939   3.491   1.161  11.075  0.6829  0.7160 -0.9249
13150TIP3   OH260940   4.170   0.695  16.779 -0.5599 -0.3021 -0.2564
13150TIP3    H160941   4.225   0.702  16.857 -2.3626  0.6089  0.9930
13150TIP3    H260942   4.190   0.774  16.727 -0.1994 -0.3227 -0.1476
13151TIP3   OH260943   5.983   5.804   1.994 -0.4208  0.0689 -0.1374
13151TIP3    H160944   6.064   5.851   2.013 -0.0647 -0.5060 -0.2282
13151TIP3    H260945   5.954   5.771   2.078  1.4770 -3.0012 -0.5546
13152TIP3   OH260946   0.576   4.185  10.470  0.3894  0.1261  0.5289
13152TIP3    H160947   0.523   4.256  10.508  0.2783  0.0530  0.5116
13152TIP3    H260948   0.638   4.162  10.539  0.6301  0.4512  0.4226
13153TIP3   OH260949   6.284   1.335  11.371 -0.1644  0.2111  0.3177
13153TIP3    H160950   6.221   1.337  11.299 -1.5051  2.9141  1.4021
13153TIP3    H260951   6.351   1.399  11.346  1.4316 -1.5728 -0.1548
13154TIP3   OH260952   6.703   1.855   3.480  0.5842 -0.1521  0.2902
13154TIP3    H160953   6.680   1.838   3.389  2.3955  0.1987 -0.2564
13154TIP3    H260954   6.742   1.773   3.511 -1.0204 -0.6565  1.1383
13155TIP3   OH260955   3.770   0.769   2.050 -0.0813  0.7387  0.2892
13155TIP3    H160956   3.745   0.679   2.072  0.2248  0.5228 -0.2197
13155TIP3    H260957   3.860   0.778   2.082  0.7132  0.1220 -1.5772
13156TIP3   OH260958   6.279   6.154   5.432  0.3448  0.3359  0.3315
13156TIP3    H160959   6.358   6.118   5.473 -0.2584  0.9122  2.0876
13156TIP3    H260960   6.277   6.246   5.460 -1.0005  0.3032  0.4058
13157TIP3   OH260961   3.690   6.603   2.079 -0.0681 -0.8318 -0.5840
13157TIP3    H160962   3.624   6.570   2.018  1.2578  0.9512 -3.1533
13157TIP3    H260963   3.701   6.695   2.056  0.8809 -0.1923  2.0761
13158TIP3   OH260964   4.091   3.620  17.246 -0.8490 -0.8671 -0.3141
13158TIP3    H160965   4.046   3.542  17.279 -1.8601  0.0574  0.5589
13158TIP3    H260966   4.059   3.629  17.156 -2.4658 -0.2186  0.2952
13159TIP3   OH260967   1.916   3.588   5.429  0.3902  0.1936  0.3750
13159TIP3    H160968   2.011   3.594   5.423  0.5424 -0.9478  1.2514
13159TIP3    H260969   1.888   3.564   5.340  0.6614  2.7860 -0.4817
13160TIP3   OH260970   0.851   4.292  14.224 -0.0747  0.2260 -0.2751
13160TIP3    H160971   0.905   4.223  14.184  1.9357  1.8133 -0.4827
13160TIP3    H260972   0.828   4.349  14.151  0.8391  1.3689  0.2979
13161TIP3   OH260973   1.648   1.227  15.472  0.0147 -0.2713 -0.1419
13161TIP3    H160974   1.588   1.186  15.410  1.0365 -0.6332 -0.9293
13161TIP3    H260975   1.630   1.185  15.556  0.8447 -2.1733 -0.8612
13162TIP3   OH260976   3.421   4.482  16.578  0.0647 -0.1290  0.3507
13162TIP3    H160977   3.443   4.389  16.588  0.2819 -0.1567 -0.3213
13162TIP3    H260978   3.439   4.520  16.664  2.8906 -0.1377 -0.1265
13163TIP3   OH260979   0.952   3.577   6.000 -0.1478  0.2450 -0.2729
13163TIP3    H160980   0.875   3.546   6.048  0.3060 -0.1397  0.2123
13163TIP3    H260981   0.926   3.572   5.908 -0.6555 -0.0148 -0.1196
13164TIP3   OH260982   2.092   1.733   4.121  0.6830 -0.8915  0.5679
13164TIP3    H160983   2.187   1.723   4.116  0.5216 -2.4646  0.1071
13164TIP3    H260984   2.058   1.672   4.055 -0.6572 -0.6333  0.9884
13165TIP3   OH260985   2.667   2.239  14.514  0.4969 -0.3750  0.1065
13165TIP3    H160986   2.659   2.149  14.546 -0.1452 -0.5514 -0.5434
13165TIP3    H260987   2.715   2.232  14.432 -1.8356 -0.4412 -1.3273
13166TIP3   OH260988   3.800   0.421  17.024 -0.3506  0.0087  0.4827
13166TIP3    H160989   3.718   0.452  16.985 -0.5905  0.6164  1.4278
13166TIP3    H260990   3.862   0.492  17.009 -0.3027  0.0216  0.7300
13167TIP3   OH260991   3.917   1.005  10.713 -0.0621 -0.3629  0.7997
13167TIP3    H160992   3.856   1.050  10.770  1.7846  0.1440  2.4842
13167TIP3    H260993   3.926   1.062  10.637 -1.4743 -0.3419  0.6339
13168TIP3   OH260994   6.205   2.742  13.408  0.9972  0.7418  0.0916
13168TIP3    H160995   6.180   2.722  13.317  1.2672 -0.2254  0.2183
13168TIP3    H260996   6.126   2.726  13.459  0.9919  0.7631  0.0893
13169TIP3   OH260997   6.741   1.901  12.464  0.3625  0.0584 -0.2951
13169TIP3    H160998   6.692   1.925  12.542  2.1320  2.0752  0.2601
13169TIP3    H260999   6.674   1.891  12.396 -1.0820 -0.5455  1.1481
13170TIP3   OH261000   3.818   0.863   6.338  0.2706 -0.4831 -0.0099
13170TIP3    H161001   3.759   0.939   6.335 -0.0428 -0.7459 -2.6098
13170TIP3    H261002   3.804   0.826   6.425 -1.8824  0.6361  0.2042
13171TIP3   OH261003   3.082   5.652   5.387  0.0576 -0.0155 -0.2882
13171TIP3    H161004   2.987   5.663   5.391  0.0578  1.0683 -2.3845
13171TIP3    H261005   3.117   5.741   5.393  0.9383 -0.3827  0.1880
13172TIP3   OH261006   0.622   3.725   1.982 -0.1679 -0.4336  0.0996
13172TIP3    H161007   0.674   3.655   1.943 -1.0306 -2.3885  2.2452
13172TIP3    H261008   0.677   3.760   2.052 -0.2581  0.1965 -0.1315
13173TIP3   OH261009   0.112   3.308  17.315  0.0770 -0.6138 -0.5820
13173TIP3    H161010   0.041   3.348  17.363  0.5637  0.0675 -0.4232
13173TIP3    H261011   0.190   3.320  17.370  0.4025 -0.9410 -0.9560
13174TIP3   OH261012   6.294   6.056   3.490  0.6693 -1.3562 -0.1557
13174TIP3    H161013   6.299   6.081   3.582  0.3899  2.1246 -0.9329
13174TIP3    H261014   6.385   6.038   3.465  0.7277 -2.4618  0.7900
13175TIP3   OH261015   2.890   1.627  15.954 -0.3543  0.1490 -0.3110
13175TIP3    H161016   2.839   1.567  16.008 -0.5352  1.1518  0.6520
13175TIP3    H261017   2.981   1.610  15.978 -0.4970  2.0655  2.0045
13176TIP3   OH261018   3.300   2.829   4.472  0.2184  0.1809 -0.1542
13176TIP3    H161019   3.334   2.763   4.533  0.1934  0.2346 -0.0829
13176TIP3    H261020   3.205   2.826   4.484  0.2056  0.1143 -0.2692
13177TIP3   OH261021   1.265   5.389  11.336  0.7366 -0.0520 -0.5202
13177TIP3    H161022   1.251   5.463  11.396  2.0991  1.0258 -1.4536
13177TIP3    H261023   1.262   5.429  11.249  0.3681 -1.3145 -1.1035
13178TIP3   OH261024   0.697   1.176   3.329 -0.5581  0.3835  0.0994
13178TIP3    H161025   0.777   1.125   3.338 -0.6303  0.5233  1.8995
13178TIP3    H261026   0.726   1.265   3.313 -0.4164  0.1065 -1.3650
13179TIP3   OH261027   1.873   0.578   4.613 -0.5909 -0.0296 -0.5715
13179TIP3    H161028   1.845   0.501   4.662  0.1914  0.1945  0.2585
13179TIP3    H261029   1.853   0.652   4.671  1.3305  0.1636 -0.0941
13180TIP3   OH261030   5.719   0.683   2.634  0.4192  0.0863 -0.5268
13180TIP3    H161031   5.773   0.685   2.713  1.4787  4.9279 -1.0202
13180TIP3    H261032   5.632   0.710   2.663  0.5327  0.7943 -0.8165
13181TIP3   OH261033   5.932   0.234  14.214 -0.2100  0.2144  0.0199
13181TIP3    H161034   5.917   0.165  14.278 -0.8952  0.6402  0.3166
13181TIP3    H261035   5.914   0.316  14.260  0.6131  0.6084 -0.3225
13182TIP3   OH261036   3.275   5.495  12.113 -0.7404  0.4006  0.2968
13182TIP3    H161037   3.212   5.524  12.046  0.2884  1.1849 -0.3565
13182TIP3    H261038   3.350   5.552  12.101  0.4353 -1.0437  0.5336
13183TIP3   OH261039   3.992   6.084  14.206  0.2104  0.2844 -0.3224
13183TIP3    H161040   4.024   6.002  14.169 -0.5164  0.2357 -0.8657
13183TIP3    H261041   4.050   6.101  14.280  0.9086 -0.2672 -0.7289
13184TIP3   OH261042   3.179   0.992  11.126 -0.6279  0.8831  0.3087
13184TIP3    H161043   3.183   1.086  11.147 -0.4485  0.9327  0.0543
13184TIP3    H261044   3.093   0.965  11.158 -1.1966  1.4096 -0.7293
13185TIP3   OH261045   1.689   5.507   0.395  0.2173 -0.0921  0.4573
13185TIP3    H161046   1.639   5.505   0.313 -0.7712  3.1689  0.8188
13185TIP3    H261047   1.655   5.584   0.441  2.4215 -0.4334  2.8589
13186TIP3   OH261048   4.088   2.421   1.629  0.8775  0.0532 -0.3929
13186TIP3    H161049   4.139   2.403   1.550  0.9638  0.6355 -0.4810
13186TIP3    H261050   4.052   2.509   1.614 -1.1445 -0.7875 -0.8708
13187TIP3   OH261051   6.416   4.352  13.984  0.1688  0.1526 -0.0329
13187TIP3    H161052   6.341   4.323  13.934 -0.0183  0.4426  0.0742
13187TIP3    H261053   6.453   4.272  14.021 -0.3993  0.0654  0.3517
13188TIP3   OH261054   2.169   0.759   1.290  0.1465  0.3970 -0.3620
13188TIP3    H161055   2.211   0.673   1.287  0.7426  0.6632  0.1507
13188TIP3    H261056   2.235   0.819   1.256 -0.2303  0.6709 -0.6175
13189TIP3   OH261057   0.612   4.378   6.556 -0.0999 -0.3397  0.6415
13189TIP3    H161058   0.698   4.341   6.538  0.0826 -0.7496  2.1766
13189TIP3    H261059   0.628   4.446   6.621 -0.7134  0.9521 -0.5103
13190TIP3   OH261060   5.989   5.769   6.514 -0.2566 -0.0363 -0.2235
13190TIP3    H161061   6.070   5.783   6.562 -0.0593 -1.6856 -0.0181
13190TIP3    H261062   6.016   5.720   6.436 -1.0765 -0.9044  0.0164
13191TIP3   OH261063   2.110   3.296  16.134  0.5332  0.2201  0.7777
13191TIP3    H161064   2.106   3.291  16.038  3.5815 -0.5580  0.5806
13191TIP3    H261065   2.048   3.229  16.164 -0.4802  0.4816 -0.6263
13192TIP3   OH261066   1.742   5.226   2.169 -0.0116  0.7809  0.1127
13192TIP3    H161067   1.827   5.246   2.130 -1.0958  1.1185 -2.2932
13192TIP3    H261068   1.720   5.140   2.134 -0.1947  0.1961  1.6157
13193TIP3   OH261069   1.399   6.255  15.526  0.7016 -0.0778 -0.7120
13193TIP3    H161070   1.356   6.169  15.517 -0.7776  0.6965 -1.4439
13193TIP3    H261071   1.329   6.318  15.509  1.5899  1.3011  0.5797
13194TIP3   OH261072   0.487   2.124  17.247  0.2864  0.3038 -0.7252
13194TIP3    H161073   0.560   2.062  17.253  1.0376  1.3308  2.1411
13194TIP3    H261074   0.410   2.069  17.237  1.2081 -0.9201 -1.3682
13195TIP3   OH261075   3.801   1.827  13.094 -0.3624 -0.2474  0.4575
13195TIP3    H161076   3.762   1.836  13.007 -0.3135 -1.5437  0.2847
13195TIP3    H261077   3.887   1.867  13.085 -0.5429  0.0582  0.0441
13196TIP3   OH261078   3.435   2.083   0.833 -0.4558 -0.1686 -0.7341
13196TIP3    H161079   3.348   2.046   0.817 -0.4717  0.5588 -2.6125
13196TIP3    H261080   3.419   2.173   0.860 -0.3172 -0.5445  0.6605
13197TIP3   OH261081   4.757   1.487   2.710 -0.7208 -0.0181  0.3842
13197TIP3    H161082   4.833   1.428   2.710 -2.0951 -1.8819 -0.5900
13197TIP3    H261083   4.692   1.442   2.656 -2.3362  1.7927  0.7317
13198TIP3   OH261084   2.739   1.616   5.264  0.3197 -0.6488  0.2562
13198TIP3    H161085   2.814   1.558   5.252 -0.2183 -1.3511  0.2624
13198TIP3    H261086   2.747   1.647   5.355  1.2602  0.2388 -0.1074
13199TIP3   OH261087   3.545   2.359   4.440 -0.2071 -0.4690 -0.5041
13199TIP3    H161088   3.451   2.347   4.456 -0.2500  0.9295  0.4747
13199TIP3    H261089   3.570   2.431   4.498  1.7726 -1.6872  0.2644
13200TIP3   OH261090   0.334   1.782  12.160  0.5888  0.5222 -0.0738
13200TIP3    H161091   0.290   1.719  12.103 -1.2092 -0.2591  2.0376
13200TIP3    H261092   0.318   1.867  12.120 -0.9540  0.0355 -0.5559
13201TIP3   OH261093   1.246   0.579   4.017 -0.4336  0.9991 -0.0702
13201TIP3    H161094   1.241   0.619   4.104 -0.1935  0.6168  0.1259
13201TIP3    H261095   1.239   0.652   3.956  2.0928  1.6181  0.2750
13202TIP3   OH261096   2.348   4.568  12.885 -0.4026 -0.0238 -0.9946
13202TIP3    H161097   2.422   4.538  12.937  0.1447  1.7346 -0.6967
13202TIP3    H261098   2.279   4.504  12.903  0.3448 -0.4590  0.4534
13203TIP3   OH261099   1.760   2.615  17.240  0.2609 -0.5805 -0.3627
13203TIP3    H161100   1.837   2.637  17.187  0.3199  2.0663  0.6932
13203TIP3    H261101   1.691   2.596  17.176  0.5653  1.6309 -1.4434
13204TIP3   OH261102   6.272   4.234  13.372  0.2400  0.0352 -0.2417
13204TIP3    H161103   6.227   4.255  13.454 -0.6865  0.3347 -0.7993
13204TIP3    H261104   6.207   4.184  13.322  1.5886 -2.1968  0.1047
13205TIP3   OH261105   2.534   3.048   5.644 -0.1037 -0.0253  0.0430
13205TIP3    H161106   2.478   2.988   5.693 -0.1001  1.1836  1.6182
13205TIP3    H261107   2.590   3.089   5.711 -0.3865  2.0050 -0.8890
13206TIP3   OH261108   1.312   5.640   2.879  0.3007  0.2266 -0.3676
13206TIP3    H161109   1.237   5.600   2.835 -0.3576  1.9263 -0.8515
13206TIP3    H261110   1.291   5.733   2.883  2.1916  0.6780 -0.0910
13207TIP3   OH261111   0.173   4.525  15.178 -0.0605 -0.2232 -0.3482
13207TIP3    H161112   0.212   4.442  15.149  1.5098  0.6608 -0.8479
13207TIP3    H261113   0.158   4.512  15.272  2.0569 -0.4076  0.0131
13208TIP3   OH261114   2.408   1.296  10.732 -0.2126  0.0427  0.3025
13208TIP3    H161115   2.489   1.278  10.779  0.0522 -1.8265 -0.7718
13208TIP3    H261116   2.410   1.236  10.657 -2.0892  0.7054 -0.3339
13209TIP3   OH261117   0.066   5.332   2.647 -0.4848 -0.4992 -0.3301
13209TIP3    H161118   0.070   5.396   2.577  1.4250 -0.6164 -0.3872
13209TIP3    H261119   0.154   5.333   2.685 -1.2561 -0.9941  1.5642
13210TIP3   OH261120   5.034   6.261   3.777 -0.7953  0.1227 -0.0850
13210TIP3    H161121   5.003   6.344   3.812 -1.9673  0.2416 -1.3523
13210TIP3    H261122   5.066   6.282   3.689 -2.3894 -0.9560 -0.9741
13211TIP3   OH261123   5.194   5.134   6.281 -0.0715 -0.4528  1.0468
13211TIP3    H161124   5.286   5.155   6.297 -0.1351  0.8645 -0.0905
13211TIP3    H261125   5.146   5.205   6.325 -0.4285  0.1293 -0.2299
13212TIP3   OH261126   3.683   3.302   4.152 -0.8654 -0.0485  0.7135
13212TIP3    H161127   3.606   3.250   4.174 -1.9048  1.6769  1.3837
13212TIP3    H261128   3.734   3.247   4.092 -2.7469 -1.1371  0.0573
13213TIP3   OH261129   4.425   1.621   1.514 -0.1457  0.6031 -0.2300
13213TIP3    H161130   4.351   1.623   1.453  0.0974 -0.2715 -0.5675
13213TIP3    H261131   4.391   1.576   1.591  0.7425 -2.3307 -1.4168
13214TIP3   OH261132   3.793   1.042   0.592  0.5556 -0.1751  0.1918
13214TIP3    H161133   3.707   1.002   0.604  0.7863 -0.4977  0.8261
13214TIP3    H261134   3.812   1.083   0.677  0.3769  1.1916 -0.3950
13215TIP3   OH261135   3.101   5.842  14.413  0.4993  0.5129 -0.0350
13215TIP3    H161136   3.035   5.820  14.347 -0.0021 -0.0930  0.6581
13215TIP3    H261137   3.156   5.907  14.370  1.4443 -1.3444 -1.8251
13216TIP3   OH261138   4.608   4.771   0.469  0.3000  0.3397 -0.1043
13216TIP3    H161139   4.641   4.725   0.547 -1.2583  1.3476  1.2117
13216TIP3    H261140   4.521   4.734   0.455 -0.0676  1.3074 -0.4051
13217TIP3   OH261141   0.828   4.414  10.331 -0.2231  0.1269 -0.1563
13217TIP3    H161142   0.920   4.420  10.356 -0.3783 -1.5569  0.9636
13217TIP3    H261143   0.783   4.383  10.410 -1.1671 -2.7153 -1.6703
13218TIP3   OH261144   2.035   2.339   6.228  0.5201  0.6818 -0.5208
13218TIP3    H161145   2.033   2.249   6.261 -0.7473 -0.6840 -3.9474
13218TIP3    H261146   1.957   2.380   6.265  0.1408 -0.1650 -0.3580
13219TIP3   OH261147   5.401   1.155   0.691  0.5503 -0.2680 -0.1902
13219TIP3    H161148   5.458   1.110   0.754 -2.3115 -3.4889  0.3722
13219TIP3    H261149   5.378   1.088   0.627 -2.1204  1.0199 -0.6913
13220TIP3   OH261150   1.184   2.068   6.428  0.1713  0.1047  0.7970
13220TIP3    H161151   1.183   2.019   6.346 -2.3007  0.1572  0.7234
13220TIP3    H261152   1.126   2.018   6.486 -1.5357  2.2558  1.0786
13221TIP3   OH261153   2.005   6.401   5.112  0.0161  0.0891 -0.1458
13221TIP3    H161154   2.089   6.416   5.069  0.1844 -0.4126 -0.0051
13221TIP3    H261155   1.994   6.306   5.109 -1.3980  0.2419 -1.7658
13222TIP3   OH261156   0.826   0.403   5.234 -0.5741  0.1125 -0.1796
13222TIP3    H161157   0.800   0.335   5.296  0.0800  0.0424  0.0233
13222TIP3    H261158   0.919   0.417   5.251  0.4978 -2.1104 -3.1789
13223TIP3   OH261159   2.193   3.028  15.493 -0.0147 -0.4965  0.4016
13223TIP3    H161160   2.288   3.023  15.493  0.0395  0.3198 -0.2910
13223TIP3    H261161   2.168   3.009  15.402 -0.4604 -0.0724  0.4278
13224TIP3   OH261162   0.443   1.135   6.107 -0.6909  0.1698  0.2207
13224TIP3    H161163   0.423   1.073   6.177  0.9467 -1.7384 -0.9103
13224TIP3    H261164   0.454   1.219   6.152 -1.7621 -0.5593  1.9442
13225TIP3   OH261165   3.997   1.450  12.878 -0.1495 -0.4667 -0.0258
13225TIP3    H161166   3.932   1.482  12.815  0.3653  1.3815  0.3324
13225TIP3    H261167   3.948   1.439  12.960 -0.3079 -0.5132 -0.1251
13226TIP3   OH261168   2.710   3.411  14.032 -0.7232  0.2411  0.0553
13226TIP3    H161169   2.660   3.359  13.970 -1.9144  0.3057  0.9331
13226TIP3    H261170   2.689   3.502  14.009 -0.3112  0.2925 -0.1276
13227TIP3   OH261171   0.772   4.843   1.029 -0.0199  0.1948 -0.0884
13227TIP3    H161172   0.702   4.906   1.046  0.2479  0.4748  0.0008
13227TIP3    H261173   0.822   4.882   0.957  0.0392 -0.0074 -0.1579
13228TIP3   OH261174   1.148   5.125   2.515  0.2279  0.2310 -0.4306
13228TIP3    H161175   1.113   5.146   2.602  1.3013 -0.4865  0.2060
13228TIP3    H261176   1.217   5.189   2.501  1.1609 -0.6529 -0.0123
13229TIP3   OH261177   4.414   5.473   5.283  0.0506 -0.6154  0.2722
13229TIP3    H161178   4.401   5.411   5.355 -0.7740  0.8582  1.4512
13229TIP3    H261179   4.455   5.549   5.324 -1.4232  0.7037 -0.5740
13230TIP3   OH261180   5.507   6.606  12.948  0.7310  0.0740  0.0838
13230TIP3    H161181   5.570   6.640  12.884 -0.0184  2.1346  0.3803
13230TIP3    H261182   5.528   6.652  13.029 -0.1555 -0.3933  0.5883
13231TIP3   OH261183   4.462   0.626   2.696 -0.2961 -0.7728 -0.4320
13231TIP3    H161184   4.386   0.621   2.639  1.6459 -0.1930 -3.2551
13231TIP3    H261185   4.426   0.652   2.781 -3.0961  1.0125 -1.9866
13232TIP3   OH261186   3.670   3.272   6.343 -0.4805 -0.5673 -0.1340
13232TIP3    H161187   3.646   3.365   6.344  2.9143  0.4228  0.4937
13232TIP3    H261188   3.622   3.235   6.418 -0.1574  1.2068  1.0309
13233TIP3   OH261189   6.164   1.022   2.031 -0.3330  0.0725  0.2414
13233TIP3    H161190   6.120   1.099   2.066 -0.4912  0.1907 -0.2148
13233TIP3    H261191   6.255   1.032   2.056 -0.5396 -0.1147  1.0943
13234TIP3   OH261192   1.004   2.548   3.404  0.3827 -0.3551  0.1561
13234TIP3    H161193   0.988   2.547   3.309 -0.3858  0.5241  0.2667
13234TIP3    H261194   0.963   2.467   3.435  2.6705 -1.8774 -0.5359
13235TIP3   OH261195   1.637   1.298   2.127 -0.5258 -0.6888  0.3653
13235TIP3    H161196   1.584   1.372   2.155 -0.2932 -0.6859  0.8129
13235TIP3    H261197   1.576   1.240   2.082 -0.8278 -0.5008  0.5311
13236TIP3   OH261198   2.446   4.426   3.162 -0.2883 -0.1179 -0.1841
13236TIP3    H161199   2.444   4.512   3.204  0.8494  0.1142 -0.5622
13236TIP3    H261200   2.453   4.364   3.235  1.5405  0.2756  0.0334
13237TIP3   OH261201   2.799   4.840   6.424  0.5435  0.0591 -0.3624
13237TIP3    H161202   2.881   4.837   6.474 -0.2172  0.5094  0.9896
13237TIP3    H261203   2.734   4.801   6.483 -0.6551  1.8488 -0.4199
13238TIP3   OH261204   4.943   0.862  11.865 -0.3563  0.0628 -0.1103
13238TIP3    H161205   4.957   0.930  11.931 -0.5174  2.2386 -2.1867
13238TIP3    H261206   4.848   0.861  11.851 -0.2214  0.5227 -1.1577
13239TIP3   OH261207   6.651   0.339   3.538  0.5353 -0.1234  0.0060
13239TIP3    H161208   6.714   0.269   3.555  1.4499  0.7658  0.4064
13239TIP3    H261209   6.649   0.346   3.442  0.8531 -0.3335 -0.0171
13240TIP3   OH261210   2.375   2.450  12.946 -0.3015 -0.7321 -0.5491
13240TIP3    H161211   2.404   2.489  12.863 -0.0083 -0.9718 -0.5627
13240TIP3    H261212   2.365   2.357  12.926 -1.9116 -0.5376 -0.7642
13241TIP3   OH261213   2.122   4.163   4.729  0.1115 -0.1697 -0.1842
13241TIP3    H161214   2.077   4.079   4.743  3.2231 -1.8752  0.5345
13241TIP3    H261215   2.145   4.163   4.636 -0.5341  0.2708 -0.3501
13242TIP3   OH261216   3.314   5.219   5.694 -0.6623  0.4430  0.0079
13242TIP3    H161217   3.296   5.297   5.642  0.1422  1.6682  1.4721
13242TIP3    H261218   3.230   5.196   5.734 -0.9190  0.4921 -0.4977
13243TIP3   OH261219   4.256   2.900   6.101  0.3691 -0.5946  0.0742
13243TIP3    H161220   4.220   2.821   6.143  1.6514 -0.6464  1.1312
13243TIP3    H261221   4.348   2.878   6.084  0.4769  0.3144 -0.5703
13244TIP3   OH261222   2.612   0.039   4.994  0.1093  0.6694  0.2826
13244TIP3    H161223   2.698   0.042   4.953 -0.1990 -0.7443 -0.5084
13244TIP3    H261224   2.551   0.051   4.921 -0.4196 -1.0189  0.4196
13245TIP3   OH261225   2.811   2.653   5.255  0.0114  0.3285 -0.1833
13245TIP3    H161226   2.877   2.697   5.308  0.8766  1.0468 -1.7767
13245TIP3    H261227   2.848   2.567   5.235 -0.8432 -0.4314  1.3248
13246TIP3   OH261228   0.397   3.872   1.527  0.7256  0.7835 -0.0284
13246TIP3    H161229   0.477   3.922   1.510  1.4604  0.2256  1.5897
13246TIP3    H261230   0.401   3.800   1.464  0.3744  1.9389 -1.4132
13247TIP3   OH261231   6.121   5.034  15.662 -0.3026  0.5655  0.4120
13247TIP3    H161232   6.119   5.123  15.696  0.0019 -0.4060  3.2178
13247TIP3    H261233   6.056   4.987  15.714 -0.8261 -0.7760 -1.3626
13248TIP3   OH261234   4.582   5.933  14.861 -0.2791  0.2697 -0.0956
13248TIP3    H161235   4.518   6.004  14.856 -0.7296  0.0208  1.5593
13248TIP3    H261236   4.531   5.853  14.852  0.0282  0.0936 -0.3486
13249TIP3   OH261237   5.701   5.827  12.401  0.1049  0.1684 -0.7351
13249TIP3    H161238   5.696   5.877  12.483 -1.8948  0.9929 -1.2956
13249TIP3    H261239   5.782   5.777  12.409 -0.5459 -0.6234  2.2173
13250TIP3   OH261240   1.352   0.049   1.267  0.5897 -0.3701 -0.3272
13250TIP3    H161241   1.363  -0.037   1.307  2.8834  0.7772  1.7604
13250TIP3    H261242   1.439   0.071   1.233 -0.1649  0.7907 -1.6197
13251TIP3   OH261243   2.838   3.361   6.101 -0.0472 -0.0608 -0.7092
13251TIP3    H161244   2.834   3.286   6.041  1.4869 -0.8785  0.1653
13251TIP3    H261245   2.851   3.322   6.187  0.9968  1.2268 -0.2562
13252TIP3   OH261246   5.366   4.574   0.298 -0.8401  0.0207 -0.0776
13252TIP3    H161247   5.367   4.579   0.202 -0.6549  0.7375 -0.0439
13252TIP3    H261248   5.456   4.556   0.323 -0.8055  0.2872 -0.0140
13253TIP3   OH261249   0.425   2.903  12.929 -0.0545 -0.3984  1.0827
13253TIP3    H161250   0.346   2.883  12.979 -1.6086 -0.9476 -1.4016
13253TIP3    H261251   0.408   2.988  12.890  0.1061 -0.9580 -0.2740
13254TIP3   OH261252   2.467   4.208  14.908 -0.6299  0.7952 -0.2058
13254TIP3    H161253   2.431   4.257  14.834  2.5987 -1.7964 -3.9482
13254TIP3    H261254   2.557   4.239  14.915 -0.2550 -0.5218  1.2510
13255TIP3   OH261255   0.763   1.877   1.351  0.4661 -0.1050  0.4224
13255TIP3    H161256   0.774   1.859   1.257 -0.0981  0.6921  0.1955
13255TIP3    H261257   0.671   1.854   1.369  0.3394  0.5296  0.5964
13256TIP3   OH261258   6.209   1.876  14.387 -0.1822 -0.0096 -0.0938
13256TIP3    H161259   6.113   1.877  14.387 -0.2091  1.6879  1.3086
13256TIP3    H261260   6.234   1.968  14.389  1.5197 -0.4014 -1.2309
13257TIP3   OH261261   4.024   5.350  13.560 -0.0442 -0.2681  0.1151
13257TIP3    H161262   4.022   5.266  13.515  0.5769  0.3560 -1.1404
13257TIP3    H261263   4.117   5.372  13.564 -0.2405  0.6625 -0.1849
13258TIP3   OH261264   4.763   4.000  11.953 -0.3451 -0.0698 -0.4220
13258TIP3    H161265   4.710   3.924  11.928  0.4317 -1.4619  1.8668
13258TIP3    H261266   4.830   4.006  11.885 -0.3832 -1.4930 -0.6138
13259TIP3   OH261267   1.884   3.268   4.189  0.2258 -0.1941 -0.3663
13259TIP3    H161268   1.869   3.270   4.094  2.6107  2.7503 -0.8200
13259TIP3    H261269   1.973   3.234   4.198  0.0155 -0.4741  0.8662
13260TIP3   OH261270   0.838   3.253  12.684  0.3149 -0.6558 -0.2638
13260TIP3    H161271   0.766   3.308  12.652 -0.0613 -0.0224  1.5307
13260TIP3    H261272   0.885   3.226  12.605 -1.1693 -0.0788 -1.3891
13261TIP3   OH261273   1.374   3.346  10.825  0.1721 -0.1947 -0.0310
13261TIP3    H161274   1.408   3.268  10.782 -1.2062 -1.9207  1.7741
13261TIP3    H261275   1.284   3.323  10.848  0.0109  1.5860  1.3784
13262TIP3   OH261276   4.995   2.812  13.324  0.2750 -0.3077 -0.6303
13262TIP3    H161277   4.902   2.835  13.321  0.0459 -1.1958 -0.5883
13262TIP3    H261278   5.029   2.837  13.238 -0.1342 -0.5236 -0.8551
13263TIP3   OH261279   1.780   3.777   0.254  0.3391  0.2761 -0.3635
13263TIP3    H161280   1.849   3.711   0.254 -0.2318 -0.3327  0.1474
13263TIP3    H261281   1.744   3.774   0.343  1.1648  2.1898  0.0962
13264TIP3   OH261282   1.744   5.551   1.982  0.6239 -0.5199  0.2335
13264TIP3    H161283   1.787   5.504   2.053 -1.7803 -1.4973  1.1374
13264TIP3    H261284   1.699   5.624   2.024  0.0875 -0.4541 -0.4266
13265TIP3   OH261285   2.450   3.925   2.935  0.1054 -0.3520 -0.3669
13265TIP3    H161286   2.418   3.902   2.848 -0.2078  0.1290 -0.3835
13265TIP3    H261287   2.434   3.846   2.987  0.6580 -0.7822 -0.8288
13266TIP3   OH261288   5.833   3.871   2.697 -0.2719  0.2802  0.0731
13266TIP3    H161289   5.833   3.840   2.787 -1.0999 -0.3394 -0.1318
13266TIP3    H261290   5.912   3.833   2.658  1.1567  2.1248  1.0392
13267TIP3   OH261291   3.494   3.106  10.988  0.3596 -0.3905  0.1292
13267TIP3    H161292   3.402   3.123  11.011  0.2322 -2.4740  1.4981
13267TIP3    H261293   3.499   3.122  10.894 -1.3181  0.0966  0.0889
13268TIP3   OH261294   1.943   0.931   4.998  0.1056 -0.0048  0.5692
13268TIP3    H161295   1.941   1.017   5.040  1.7143 -0.1419  1.0096
13268TIP3    H261296   2.016   0.885   5.040 -0.4478 -1.4311  0.0393
13269TIP3   OH261297   5.936   5.011  14.024  0.2242  0.3317  0.4751
13269TIP3    H161298   5.890   4.964  13.955  0.3184 -0.1997  0.7629
13269TIP3    H261299   6.029   5.002  14.001  0.2616  0.0599  0.7227
13270TIP3   OH261300   5.514   3.250  16.254  0.2925 -0.4270  0.3302
13270TIP3    H161301   5.463   3.175  16.221  1.3279 -1.1417  0.3256
13270TIP3    H261302   5.543   3.295  16.175  0.8710 -0.8445  0.3007
13271TIP3   OH261303   0.233   2.434  14.859  0.1612  0.1789  0.2937
13271TIP3    H161304   0.299   2.501  14.842  0.1392  0.7934  2.3575
13271TIP3    H261305   0.195   2.459  14.943 -1.5497 -1.0959 -0.0506
13272TIP3   OH261306   2.329   1.853  16.034 -0.1593 -0.5363  0.3255
13272TIP3    H161307   2.361   1.766  16.014  2.7097  0.5097 -0.1392
13272TIP3    H261308   2.278   1.843  16.115 -1.7647 -2.9032 -0.8759
13273TIP3   OH261309   5.940   3.246  16.218 -0.5444  0.1765  0.3351
13273TIP3    H161310   5.946   3.342  16.227  1.2952  0.1705 -0.3757
13273TIP3    H261311   5.878   3.233  16.146  0.0209  0.9036 -0.3098
13274TIP3   OH261312   0.409   5.290   0.784  0.5867  0.2851  0.2093
13274TIP3    H161313   0.416   5.195   0.780  0.2523  0.2873 -0.6681
13274TIP3    H261314   0.478   5.322   0.726 -0.4155  0.5186 -0.8989
13275TIP3   OH261315   1.328   4.867  13.631 -0.1568  0.1896  0.1647
13275TIP3    H161316   1.319   4.960  13.610  0.6933  0.3301  0.3885
13275TIP3    H261317   1.273   4.823  13.567 -0.0337  0.8043 -0.3741
13276TIP3   OH261318   0.222   4.181   3.740 -0.2625  0.2255 -0.0087
13276TIP3    H161319   0.175   4.102   3.714 -0.2745  0.3377 -0.3412
13276TIP3    H261320   0.297   4.184   3.681 -1.0223  1.2170 -0.9642
13277TIP3   OH261321   3.875   0.638  16.771 -0.0054  0.5796 -0.4005
13277TIP3    H161322   3.969   0.626  16.764  0.0209 -0.5964  1.2478
13277TIP3    H261323   3.838   0.558  16.733 -0.3112  0.7672 -0.5006
13278TIP3   OH261324   6.076   6.254  16.183  0.6894 -0.2518 -0.0433
13278TIP3    H161325   6.031   6.307  16.118 -2.5442 -1.0103  1.4051
13278TIP3    H261326   6.124   6.317  16.237 -0.6091  0.8951 -0.1900
13279TIP3   OH261327   4.466   4.220   3.782  0.5719 -0.0580  0.2352
13279TIP3    H161328   4.438   4.129   3.780 -0.7192  0.2589  1.8251
13279TIP3    H261329   4.386   4.271   3.770  0.8703  0.8708  1.8871
13280TIP3   OH261330   2.309   3.205  11.238 -0.2800  0.7186 -1.0397
13280TIP3    H161331   2.287   3.174  11.150 -2.1458  0.6397 -0.5922
13280TIP3    H261332   2.256   3.150  11.296  1.5687  0.1795  0.2217
13281TIP3   OH261333   0.421   0.979   5.138 -0.6522  0.4248  0.1542
13281TIP3    H161334   0.475   0.986   5.216 -0.7299  1.1667  0.1517
13281TIP3    H261335   0.332   0.997   5.168 -0.5096  2.0672 -0.3149
13282TIP3   OH261336   4.775   4.435  12.287  0.1913 -0.0916  0.1218
13282TIP3    H161337   4.854   4.488  12.296 -0.2009  0.6314 -0.4965
13282TIP3    H261338   4.807   4.346  12.274  0.8808  0.0782  0.6123
13283TIP3   OH261339   2.764   5.336   0.626  0.3921  0.8895  0.3160
13283TIP3    H161340   2.765   5.252   0.673  4.7263  0.4760 -0.0247
13283TIP3    H261341   2.759   5.402   0.694 -0.3106  0.3420  0.8037
13284TIP3   OH261342   5.234   1.365   6.368  0.2736  0.0404 -0.1212
13284TIP3    H161343   5.170   1.426   6.403  1.1793 -0.5092  2.7069
13284TIP3    H261344   5.183   1.305   6.314 -1.3317  0.5540  0.7713
13285TIP3   OH261345   6.501   4.934  13.940 -0.8088  0.2414 -0.1026
13285TIP3    H161346   6.548   4.865  13.893 -3.1009 -1.1275 -0.4961
13285TIP3    H261347   6.501   5.008  13.881 -1.1340 -0.5042 -1.0558
13286TIP3   OH261348   4.575   2.205   2.103  0.1523 -0.1465  0.5103
13286TIP3    H161349   4.604   2.241   2.187  1.2738 -0.6508  0.3565
13286TIP3    H261350   4.656   2.191   2.054 -0.4084 -1.0177 -0.1834
13287TIP3   OH261351   4.090   5.855  14.067  0.0692 -0.0223 -0.3454
13287TIP3    H161352   4.144   5.927  14.034  1.3160 -0.9656 -0.4152
13287TIP3    H261353   4.042   5.824  13.990 -0.5556  0.7886 -0.2946
13288TIP3   OH261354   2.561   4.486  11.787  0.0608  0.0220  0.1647
13288TIP3    H161355   2.645   4.530  11.798  0.5113 -0.7675 -0.0577
13288TIP3    H261356   2.542   4.494  11.693  1.4991 -2.5843 -0.4591
13289TIP3   OH261357   0.742   3.186   6.242  0.3094  0.0862  0.1008
13289TIP3    H161358   0.808   3.190   6.172  0.5541  1.8712  0.3807
13289TIP3    H261359   0.706   3.098   6.235  1.2872 -0.2494 -1.3903
13290TIP3   OH261360   5.715   0.997   1.229  0.2019  0.1741 -0.0493
13290TIP3    H161361   5.619   0.999   1.235  0.2104  0.3765  0.0536
13290TIP3    H261362   5.734   0.923   1.172  0.0357 -0.6156  0.8832
13291TIP3   OH261363   2.784   3.646  16.524  0.6323 -0.8066  0.5715
13291TIP3    H161364   2.821   3.695  16.597  0.8897 -0.5572  0.2772
13291TIP3    H261365   2.738   3.712  16.472 -0.1184 -1.0878  0.8583
13292TIP3   OH261366   5.387   3.732   2.713 -0.0499 -0.6105 -0.1847
13292TIP3    H161367   5.434   3.743   2.795  1.3454 -0.5116 -0.9569
13292TIP3    H261368   5.382   3.820   2.676  0.3317 -0.8064 -0.7159
13293TIP3   OH261369   1.233   3.414   1.388  0.0104  0.2405  0.0299
13293TIP3    H161370   1.199   3.492   1.344 -1.3665 -0.7167 -0.6947
13293TIP3    H261371   1.169   3.346   1.367  0.5098 -0.7891  1.6876
13294TIP3   OH261372   0.555   0.662  12.195  0.3132  0.0646 -0.0409
13294TIP3    H161373   0.633   0.710  12.223  1.0214 -0.3087 -1.3380
13294TIP3    H261374   0.542   0.689  12.104 -0.8426 -0.1892  0.0427
13295TIP3   OH261375   2.579   3.000   3.806 -0.3387  0.4495  0.4609
13295TIP3    H161376   2.663   3.044   3.805 -0.2815  0.3893 -1.3243
13295TIP3    H261377   2.556   2.990   3.713 -1.1095 -1.8171  0.8297
13296TIP3   OH261378   6.258   1.117  15.069  0.0105 -0.0591 -0.1004
13296TIP3    H161379   6.174   1.162  15.059  0.4675  0.9036  0.1773
13296TIP3    H261380   6.240   1.026  15.044 -1.2199  0.0181  0.4070
13297TIP3   OH261381   6.235   4.231   2.690 -0.1499 -0.6092 -0.5091
13297TIP3    H161382   6.202   4.181   2.765  0.7412 -0.3343  0.0740
13297TIP3    H261383   6.265   4.164   2.628 -0.3678 -0.8239 -0.3822
13298TIP3   OH261384   5.562   4.237   0.314  0.3749  0.1113 -0.8298
13298TIP3    H161385   5.654   4.211   0.313  0.6244  0.8906  0.4483
13298TIP3    H261386   5.534   4.225   0.223  1.3469 -1.4429 -0.9644
13299TIP3   OH261387   3.571   3.058  11.946 -0.9228  0.1798 -0.8213
13299TIP3    H161388   3.643   3.021  11.997 -0.9895  0.7810 -0.2783
13299TIP3    H261389   3.534   2.983  11.899  0.5934  0.0055 -1.7806
13300TIP3   OH261390   2.066   1.279  13.047  0.4573  0.0285  0.4656
13300TIP3    H161391   2.068   1.200  12.993  0.9558 -0.2960  0.9432
13300TIP3    H261392   1.975   1.308  13.045  0.6983  0.7680 -1.5952
13301TIP3   OH261393   5.170   3.502  10.790 -0.3308  0.7423 -0.1157
13301TIP3    H161394   5.125   3.476  10.710 -1.7953  1.0077  0.6028
13301TIP3    H261395   5.259   3.523  10.761  0.0208 -1.9394 -1.2033
13302TIP3   OH261396   3.694   4.860   3.271 -0.0033  1.0336  0.0581
13302TIP3    H161397   3.698   4.933   3.209 -1.6140  0.1867 -1.0998
13302TIP3    H261398   3.652   4.789   3.222  0.5270 -0.3260  1.4981
13303TIP3   OH261399   5.470   3.808  13.978 -0.6837  0.5446 -0.3601
13303TIP3    H161400   5.552   3.785  13.935  0.1659 -0.2398  1.5722
13303TIP3    H261401   5.471   3.904  13.982 -0.5471  0.6167 -1.5266
13304TIP3   OH261402   1.333   4.926  12.320  0.1177  0.2742 -0.4021
13304TIP3    H161403   1.315   5.006  12.271  1.5958  0.3269 -0.8810
13304TIP3    H261404   1.355   4.861  12.254 -1.8999 -0.8063 -0.0885
13305TIP3   OH261405   0.069   5.620  12.657  0.0850  0.0393  0.0989
13305TIP3    H161406   0.088   5.713  12.647  0.6237 -0.0750  0.0037
13305TIP3    H261407   0.155   5.577  12.653  0.3121 -0.1650  3.8083
13306TIP3   OH261408   5.638   6.511  16.190 -0.1934 -0.2754 -0.0540
13306TIP3    H161409   5.579   6.586  16.181  0.3794  0.2053  0.1869
13306TIP3    H261410   5.721   6.548  16.219 -0.5644 -1.2480  2.5044
13307TIP3   OH261411   3.179   3.347  13.838  0.2929 -0.0671 -0.3736
13307TIP3    H161412   3.227   3.425  13.869 -1.9649  1.1016  0.3980
13307TIP3    H261413   3.170   3.292  13.916 -1.9269  1.0148  0.1995
13308TIP3   OH261414   0.606   2.044   1.878  0.0785  1.0407 -0.3588
13308TIP3    H161415   0.641   1.965   1.919  2.1435  2.0048 -0.1279
13308TIP3    H261416   0.512   2.030   1.874  0.1178 -0.3387  2.0257
13309TIP3   OH261417   6.041   5.300  14.223  0.8529 -0.3136  0.2350
13309TIP3    H161418   6.044   5.209  14.252 -0.7147 -0.5044 -0.1213
13309TIP3    H261419   6.132   5.329  14.226  1.0991 -1.0350  3.0073
13310TIP3   OH261420   1.134   5.721   4.633 -0.0265  0.1973  0.2317
13310TIP3    H161421   1.061   5.739   4.693  0.1730  1.1851  0.1942
13310TIP3    H261422   1.139   5.799   4.578  0.4809 -0.2557 -0.3700
13311TIP3   OH261423   0.481   3.354   4.062 -0.0710  0.2085 -0.4140
13311TIP3    H161424   0.472   3.263   4.034 -0.0086 -0.3600  1.2629
13311TIP3    H261425   0.549   3.390   4.006  0.7840 -1.1480 -0.2905
13312TIP3   OH261426   3.132   3.278   6.710 -0.1085 -0.7888 -0.4974
13312TIP3    H161427   3.137   3.360   6.759  1.7231 -0.7145 -0.7442
13312TIP3    H261428   3.179   3.215   6.763  1.2894 -0.8828 -1.7830
13313TIP3   OH261429   6.168   4.825  11.285  0.3519  0.1864 -0.8038
13313TIP3    H161430   6.172   4.748  11.229 -0.1948  1.0726 -2.1130
13313TIP3    H261431   6.250   4.871  11.269 -0.1870  0.9002 -1.5873
13314TIP3   OH261432   1.068   0.837   3.254 -0.2111  0.3253  0.2959
13314TIP3    H161433   1.003   0.781   3.297  0.9323 -1.0108  0.3751
13314TIP3    H261434   1.022   0.872   3.178 -0.6350 -1.7943 -0.5077
13315TIP3   OH261435   2.614   3.448   3.108  0.1910 -0.0348 -0.3264
13315TIP3    H161436   2.576   3.371   3.150 -1.7816  0.3934 -1.2185
13315TIP3    H261437   2.677   3.481   3.172 -0.6312 -1.0393  1.0598
13316TIP3   OH261438   5.897   2.965  11.253 -0.0927 -0.4389 -0.0944
13316TIP3    H161439   5.979   2.947  11.208  1.0490  3.1964  0.2075
13316TIP3    H261440   5.923   3.007  11.335 -2.1737  2.1231 -0.6218
13317TIP3   OH261441   5.362   2.885  11.008  0.1492 -0.1920  0.8076
13317TIP3    H161442   5.344   2.921  11.095  0.6749 -0.3028  0.9681
13317TIP3    H261443   5.397   2.959  10.959 -0.7935  0.0453  0.4688
13318TIP3   OH261444   1.765   2.788   2.064 -0.6759 -0.1886  0.2125
13318TIP3    H161445   1.762   2.878   2.033 -3.1554  0.3019  1.5465
13318TIP3    H261446   1.759   2.735   1.984 -0.1733  0.8279 -0.5242
13319TIP3   OH261447   5.188   0.603   5.974 -0.2926  0.4349 -0.0588
13319TIP3    H161448   5.202   0.550   6.053  0.5007 -0.2602 -0.6455
13319TIP3    H261449   5.130   0.673   6.002 -0.9986 -0.4815  0.8601
13320TIP3   OH261450   3.020   5.378   0.222 -0.0293 -0.2466  0.3769
13320TIP3    H161451   2.997   5.285   0.212 -0.0434 -0.0528 -1.7823
13320TIP3    H261452   2.937   5.424   0.213  0.2891  0.0901 -1.1315
13321TIP3   OH261453   2.591   0.374   0.455  0.1189 -0.2211  0.0362
13321TIP3    H161454   2.594   0.461   0.415  1.1843 -0.6739 -0.9237
13321TIP3    H261455   2.512   0.334   0.418  0.0398  0.0731 -0.1170
13322TIP3   OH261456   4.639   1.504  16.879 -0.1875 -0.8337 -0.3523
13322TIP3    H161457   4.624   1.491  16.973  1.8635 -3.5240 -0.2790
13322TIP3    H261458   4.551   1.501  16.840 -0.9544 -1.2254  1.3191
13323TIP3   OH261459   5.620   5.584  16.026  0.3358 -0.2725 -0.0999
13323TIP3    H161460   5.575   5.523  15.966  0.0678 -1.3973  1.1872
13323TIP3    H261461   5.685   5.627  15.972 -0.8842 -0.1530 -1.5454
13324TIP3   OH261462   1.958   5.086   0.875  0.9745 -0.2030 -0.1099
13324TIP3    H161463   1.990   5.175   0.891  0.1679  0.2037 -0.6736
13324TIP3    H261464   2.011   5.055   0.802 -0.0723  0.5759 -1.2318
13325TIP3   OH261465   1.700   5.169  14.688 -0.2436  0.4885  0.0217
13325TIP3    H161466   1.790   5.200  14.673 -0.1368 -0.1867 -0.8122
13325TIP3    H261467   1.687   5.101  14.622 -0.5346 -1.1184  1.6525
13326TIP3   OH261468   3.954   5.003  12.391 -0.5638  0.5406  0.0004
13326TIP3    H161469   3.969   4.941  12.463 -0.1752 -0.4562 -0.9072
13326TIP3    H261470   4.017   4.976  12.324 -0.9480  1.4299 -0.7298
13327TIP3   OH261471   0.894   2.254   0.380 -0.2052 -0.4667  0.2659
13327TIP3    H161472   0.946   2.333   0.366 -0.2911 -0.4584 -0.0207
13327TIP3    H261473   0.861   2.232   0.293 -0.7866 -0.3983  0.4624
13328TIP3   OH261474   3.090   0.600   2.650 -0.3835  0.0189 -0.0203
13328TIP3    H161475   3.047   0.534   2.704  0.3130 -1.6591 -1.3953
13328TIP3    H261476   3.023   0.667   2.635 -0.4119  0.8741  3.3047
13329TIP3   OH261477   2.169   4.366  16.886  0.0649  0.1951  0.6800
13329TIP3    H161478   2.134   4.450  16.859  0.7370  0.8774  1.8542
13329TIP3    H261479   2.238   4.387  16.948 -0.4925 -1.2530  1.8634
13330TIP3   OH261480   1.067   3.546   5.125 -0.1877  0.6867  0.0650
13330TIP3    H161481   1.064   3.579   5.035  0.2444  0.1718 -0.1455
13330TIP3    H261482   1.021   3.462   5.121 -0.7015  0.9422  0.4571
13331TIP3   OH261483   4.516   2.018   4.189  0.0525  0.1617 -0.1159
13331TIP3    H161484   4.432   2.032   4.146 -0.4465  0.2254  0.8547
13331TIP3    H261485   4.576   1.996   4.118 -1.0134 -0.9450 -0.7107
13332TIP3   OH261486   3.638   3.352   1.121  0.7740  0.2592 -0.2933
13332TIP3    H161487   3.584   3.409   1.176 -2.2713 -2.0603 -0.6147
13332TIP3    H261488   3.625   3.385   1.032 -1.0863 -0.9106 -0.4944
13333TIP3   OH261489   5.323   4.061   1.567  0.4787  0.1402  0.3682
13333TIP3    H161490   5.245   4.101   1.603  1.6747  2.3192  0.7075
13333TIP3    H261491   5.299   4.036   1.478 -1.8197 -3.2200  1.7458
13334TIP3   OH261492   3.910   4.415   4.411 -0.0374  0.5504  0.1836
13334TIP3    H161493   3.946   4.434   4.325 -0.6222 -1.2808 -0.5351
13334TIP3    H261494   3.897   4.500   4.452  1.8852  1.3871 -0.8396
13335TIP3   OH261495   5.687   4.494   4.683 -0.2483 -0.0864 -0.4476
13335TIP3    H161496   5.681   4.435   4.608 -4.3309  0.7856 -1.0464
13335TIP3    H261497   5.753   4.559   4.657  0.1793 -1.1704 -2.2149
13336TIP3   OH261498   4.797   3.032   2.832  0.2039 -0.0017 -0.2407
13336TIP3    H161499   4.816   2.999   2.744 -0.1086  0.4165 -0.4722
13336TIP3    H261500   4.719   2.983   2.859  0.4835 -0.3482 -0.0757
13337TIP3   OH261501   5.041   1.540  14.771  0.1133  0.6453 -0.3736
13337TIP3    H161502   4.965   1.599  14.775  0.4144  1.0270 -0.2662
13337TIP3    H261503   5.048   1.516  14.679 -0.2901  0.4067 -0.3456
13338TIP3   OH261504   2.589   4.642   4.481 -0.7588  0.0376  0.5351
13338TIP3    H161505   2.527   4.674   4.547 -0.5153 -1.9017  1.7798
13338TIP3    H261506   2.540   4.577   4.431 -0.2232 -0.2565  0.3877
13339TIP3   OH261507   5.011   6.157   6.607  0.4630 -0.1022 -0.3812
13339TIP3    H161508   4.925   6.114   6.612 -0.6452  2.0550  0.4829
13339TIP3    H261509   5.071   6.087   6.582 -1.1915 -2.1723  1.0509
13340TIP3   OH261510   5.076   4.086   4.123 -0.2728  0.2560 -0.0431
13340TIP3    H161511   5.090   4.118   4.034 -0.1282 -1.8825 -0.8450
13340TIP3    H261512   5.132   4.141   4.178  2.2025 -0.4503 -1.6854
13341TIP3   OH261513   4.015   6.458  15.308  0.0197 -0.6312 -0.1455
13341TIP3    H161514   4.086   6.398  15.285 -1.2910 -2.6181  0.6103
13341TIP3    H261515   4.012   6.455  15.404 -0.7116 -0.1513 -0.1459
13342TIP3   OH261516   2.966   0.166   4.329 -0.6361  0.2420  0.3825
13342TIP3    H161517   2.897   0.174   4.262 -0.1443  2.1219  0.0382
13342TIP3    H261518   2.919   0.138   4.408 -1.5352 -0.1138 -0.2576
13343TIP3   OH261519   1.560   1.134  12.941 -0.4339 -0.2865  0.0489
13343TIP3    H161520   1.529   1.077  12.871 -1.3188  2.2029 -1.7446
13343TIP3    H261521   1.516   1.217  12.925 -0.8821  0.3799  3.7585
13344TIP3   OH261522   3.381   6.262  13.626  0.0905 -0.2139  0.2705
13344TIP3    H161523   3.475   6.255  13.612  0.1590  0.7287  0.1784
13344TIP3    H261524   3.348   6.309  13.549 -0.4380 -0.4150  0.3643
13345TIP3   OH261525   3.075   1.827   2.508  0.0546 -0.7305  0.5632
13345TIP3    H161526   3.138   1.849   2.577 -0.2998 -0.4001  0.7866
13345TIP3    H261527   3.128   1.788   2.439  0.8292  1.3668 -0.1080
13346TIP3   OH261528   0.462   4.464  15.331  0.5374  0.0645 -0.6030
13346TIP3    H161529   0.525   4.451  15.260  1.1523  0.0210 -0.0594
13346TIP3    H261530   0.461   4.559  15.345  0.4017  0.0749 -0.6869
13347TIP3   OH261531   4.951   1.407   1.778  0.3255  0.0397 -0.5185
13347TIP3    H161532   4.964   1.470   1.849 -0.9713 -0.8266  0.5482
13347TIP3    H261533   5.025   1.347   1.786 -0.7984 -1.1970  1.4245
13348TIP3   OH261534   4.456   2.223  14.455 -0.0555  0.2935 -0.0999
13348TIP3    H161535   4.523   2.273  14.502 -0.8389  0.4679  0.8546
13348TIP3    H261536   4.471   2.132  14.483  2.0247 -0.2557 -2.6099
13349TIP3   OH261537   6.404   0.128   4.726  0.0449 -0.6255 -0.1417
13349TIP3    H161538   6.473   0.194   4.740 -1.0741  0.9565 -1.6058
13349TIP3    H261539   6.435   0.077   4.652  0.5867 -1.3153  0.5442
13350TIP3   OH261540   0.422   1.395   4.400 -0.2492 -0.4089 -0.4569
13350TIP3    H161541   0.456   1.313   4.364 -0.6698 -0.2841 -1.1658
13350TIP3    H261542   0.397   1.446   4.323 -0.8706  0.0041  0.0056
13351TIP3   OH261543   1.355   0.725   3.077 -0.6971 -0.2110  0.0863
13351TIP3    H161544   1.281   0.668   3.056  0.6787 -1.6752 -1.1308
13351TIP3    H261545   1.319   0.813   3.078 -2.8614 -1.0201  1.7038
13352TIP3   OH261546   0.369   0.686  16.016  0.4650 -0.1229 -0.1139
13352TIP3    H161547   0.326   0.618  16.067  5.2631 -1.5152  2.7323
13352TIP3    H261548   0.372   0.761  16.076  2.2538 -0.2362 -0.0280
13353TIP3   OH261549   6.025   5.521   3.959  0.3045  0.5560 -0.0412
13353TIP3    H161550   6.078   5.600   3.944  0.3891  0.9234  1.9074
13353TIP3    H261551   6.082   5.449   3.936  0.3315  1.0211 -1.5695
13354TIP3   OH261552   6.576   0.164   6.049 -0.2617 -0.3852  0.1471
13354TIP3    H161553   6.632   0.113   6.108 -1.9345 -0.2252  1.9805
13354TIP3    H261554   6.508   0.102   6.022  0.2461 -0.3290 -1.3133
13355TIP3   OH261555   2.599   2.962  12.497 -0.3326 -0.0184 -0.9035
13355TIP3    H161556   2.569   2.889  12.443  2.2809 -1.7718 -0.1610
13355TIP3    H261557   2.669   3.003  12.446  3.0053 -2.4101  1.2869
13356TIP3   OH261558   3.490   2.188  12.195 -0.1289 -0.2003  0.3576
13356TIP3    H161559   3.412   2.192  12.140 -0.1962 -2.6443  0.1524
13356TIP3    H261560   3.489   2.099  12.232  2.3940 -0.2260  0.5700
13357TIP3   OH261561   0.767   5.137   1.336 -0.1630 -0.3316 -0.0217
13357TIP3    H161562   0.729   5.131   1.248  0.3397  0.6366 -0.3110
13357TIP3    H261563   0.861   5.126   1.322  0.0806  1.2901  0.1997
13358TIP3   OH261564   6.675   5.288  13.957  0.1178 -0.4954  0.2102
13358TIP3    H161565   6.702   5.286  14.049  0.8861  0.8914  0.0515
13358TIP3    H261566   6.746   5.244  13.911 -0.0256 -0.7435  0.2234
13359TIP3   OH261567   2.710   2.048  12.555  0.0893  0.7567  0.3146
13359TIP3    H161568   2.630   2.002  12.528 -0.0168  0.5759  0.9291
13359TIP3    H261569   2.781   1.992  12.524 -0.0350 -0.4716  2.0894
13360TIP3   OH261570   3.208   4.636  11.592  0.2676 -0.1512 -0.8322
13360TIP3    H161571   3.120   4.634  11.554 -1.0398  3.2578  1.5714
13360TIP3    H261572   3.263   4.675  11.523 -0.4712 -0.5864 -1.6902
13361TIP3   OH261573   5.069   0.031  17.077 -0.1873 -0.1517  0.1813
13361TIP3    H161574   5.121   0.087  17.134 -3.0794  1.5449  1.3883
13361TIP3    H261575   5.066   0.077  16.994  2.6525 -1.8105 -0.9783
13362TIP3   OH261576   3.002   6.648  13.297 -0.4237 -0.6249 -1.4225
13362TIP3    H161577   3.082   6.700  13.308  1.0924 -2.6424 -2.1336
13362TIP3    H261578   3.017   6.571  13.354 -3.4769  0.5460  1.2605
13363TIP3   OH261579   5.982   3.518   3.868 -0.2116  0.0225  0.2873
13363TIP3    H161580   5.887   3.503   3.871 -0.0481 -1.2333 -0.3413
13363TIP3    H261581   6.000   3.538   3.776  0.5370 -2.8252 -0.2671
13364TIP3   OH261582   4.852   0.577  15.703  0.6531  0.0020  0.0312
13364TIP3    H161583   4.792   0.584  15.628 -0.2199  1.0295  0.7832
13364TIP3    H261584   4.814   0.509  15.758  0.8423 -0.1850 -0.0699
13365TIP3   OH261585   2.218   2.082  11.584 -0.3926 -0.3932  1.0828
13365TIP3    H161586   2.185   2.026  11.513 -0.9952  0.3806  0.7472
13365TIP3    H261587   2.149   2.147  11.597  0.8837  1.1220  0.5276
13366TIP3   OH261588   3.261   5.179  14.868  0.2548 -0.0132  0.0261
13366TIP3    H161589   3.223   5.265  14.887 -0.9089 -0.6900  0.9247
13366TIP3    H261590   3.186   5.123  14.849  0.9684 -0.9067 -0.2588
13367TIP3   OH261591   2.255   6.277  16.133  0.3471  0.3711  0.2735
13367TIP3    H161592   2.197   6.337  16.087  1.1770  1.2934  0.3980
13367TIP3    H261593   2.334   6.274  16.079  0.4192 -0.4171  0.4033
13368TIP3   OH261594   3.387   2.049   4.891 -0.0783  0.3006 -0.0332
13368TIP3    H161595   3.462   2.092   4.933 -2.1224  2.3966  1.7313
13368TIP3    H261596   3.376   1.967   4.939 -0.6647  1.3643  1.7321
13369TIP3   OH261597   1.564   0.471  15.145  0.3856 -0.4523  0.0925
13369TIP3    H161598   1.538   0.436  15.230 -0.1646 -1.4111 -0.4509
13369TIP3    H261599   1.645   0.424  15.123  1.1472  0.5913  0.5657
13370TIP3   OH261600   2.297   0.064   5.585 -0.1331 -0.4000 -0.3845
13370TIP3    H161601   2.356   0.117   5.532 -1.2284 -0.2998 -1.5420
13370TIP3    H261602   2.254   0.007   5.523 -1.8513  0.0934  0.2976
13371TIP3   OH261603   3.717   6.464  15.904 -0.3832 -0.4257  0.3228
13371TIP3    H161604   3.772   6.415  15.966 -0.4021 -0.2474  0.4838
13371TIP3    H261605   3.628   6.448  15.935 -0.3078  3.1286  3.0824
13372TIP3   OH261606   6.663   5.874  16.699  0.2929 -0.2646 -0.0234
13372TIP3    H161607   6.690   5.818  16.772  0.3850  0.4052  0.4718
13372TIP3    H261608   6.729   5.860  16.632  1.0051  0.1671  0.5722
13373TIP3   OH261609   0.878   0.746  12.191  0.2800 -0.1700  0.3740
13373TIP3    H161610   0.965   0.779  12.213  0.2788  2.2670 -2.5627
13373TIP3    H261611   0.880   0.653  12.214  2.6041  0.4247  3.0698
13374TIP3   OH261612   6.544   0.226   0.499 -0.2976 -0.2072  0.3049
13374TIP3    H161613   6.480   0.155   0.508 -0.5594 -0.1440 -0.8724
13374TIP3    H261614   6.494   0.306   0.517 -0.8038 -0.0847 -1.4201
13375TIP3   OH261615   0.335   0.606  16.955 -0.4971  0.1626 -0.0976
13375TIP3    H161616   0.332   0.677  16.891 -1.6506 -0.7186 -1.0863
13375TIP3    H261617   0.245   0.599  16.987 -0.3233 -0.6032  0.2517
13376TIP3   OH261618   1.129   3.463   1.684  0.0279 -0.3485  0.3518
13376TIP3    H161619   1.205   3.455   1.626  0.5723 -0.5167  1.0821
13376TIP3    H261620   1.162   3.508   1.762 -0.6376 -0.3617  0.6486
13377TIP3   OH261621   1.226   0.507  12.169  0.1877  0.4191 -0.1500
13377TIP3    H161622   1.140   0.550  12.164 -0.6859 -1.1982  0.1381
13377TIP3    H261623   1.243   0.477  12.079  1.1263  1.9320 -0.5003
13378TIP3   OH261624   2.653   1.177   4.221 -0.6182 -0.1292  0.1907
13378TIP3    H161625   2.707   1.177   4.300 -0.9651  1.2221  0.4497
13378TIP3    H261626   2.563   1.176   4.254 -0.7699 -0.8205 -0.2187
13379TIP3   OH261627   4.996   5.234   2.304  0.0570 -0.7441  0.5187
13379TIP3    H161628   4.983   5.264   2.214  0.3376 -1.5654  0.1999
13379TIP3    H261629   4.979   5.312   2.357 -0.5143 -0.3567 -0.2138
13380TIP3   OH261630   3.731   5.500   6.045 -0.2907 -0.0073  0.1411
13380TIP3    H161631   3.676   5.544   6.109 -0.7585  0.1436 -0.3580
13380TIP3    H261632   3.818   5.499   6.085 -0.0690  2.1429 -0.1825
13381TIP3   OH261633   1.646   6.565  16.539 -0.0901  0.3029  0.4911
13381TIP3    H161634   1.720   6.505  16.550  0.4238  0.7812 -0.2819
13381TIP3    H261635   1.571   6.508  16.523 -0.1765 -0.2578  2.5760
13382TIP3   OH261636   1.642   2.401   0.524  0.0018  0.1148 -0.0688
13382TIP3    H161637   1.618   2.418   0.615 -0.6689  1.4481 -0.4519
13382TIP3    H261638   1.610   2.478   0.477  0.8601 -0.2750 -1.3480
13383TIP3   OH261639   3.273   5.663   1.384  0.0898 -0.0220 -0.5351
13383TIP3    H161640   3.281   5.580   1.337  0.4681 -0.2282 -0.1052
13383TIP3    H261641   3.180   5.685   1.377 -0.2300 -1.0432  0.3041
13384TIP3   OH261642   6.208   6.196   0.451  0.2858  0.1341 -0.3026
13384TIP3    H161643   6.182   6.251   0.526 -1.4995 -0.5782 -0.3472
13384TIP3    H261644   6.216   6.258   0.378 -1.2064  0.4525 -0.2394
13385TIP3   OH261645   4.422   5.904  16.156 -0.1876 -0.0991  0.0419
13385TIP3    H161646   4.407   5.999  16.151  0.3527 -0.0695 -1.6714
13385TIP3    H261647   4.510   5.896  16.193 -0.0160  0.0965 -0.3156
13386TIP3   OH261648   3.501   1.440  16.852 -0.2814  0.4813  0.0775
13386TIP3    H161649   3.553   1.518  16.830 -1.6362  2.2334  2.6147
13386TIP3    H261650   3.559   1.388  16.907 -0.8042  2.0899  2.3141
13387TIP3   OH261651   4.294   6.281  13.477 -0.0599 -0.6482  0.2549
13387TIP3    H161652   4.338   6.266  13.561  0.0890 -1.7130  0.0112
13387TIP3    H261653   4.302   6.197  13.432  1.9118  0.5331 -1.7888
13388TIP3   OH261654   4.302   4.732   1.592 -0.6532 -0.4700  0.2413
13388TIP3    H161655   4.282   4.686   1.674 -1.5358 -1.8991 -0.7182
13388TIP3    H261656   4.216   4.749   1.553 -0.2113 -1.4641 -1.2350
13389TIP3   OH261657   5.868   2.028   1.060  0.0770  0.1388 -0.1137
13389TIP3    H161658   5.923   2.040   0.983 -0.1354  1.2769 -0.0967
13389TIP3    H261659   5.815   1.950   1.039 -0.8079  1.0931 -1.6171
13390TIP3   OH261660   5.212   3.237   5.667  0.2757  0.1288  0.4656
13390TIP3    H161661   5.230   3.280   5.750 -3.9926  1.1375  1.1229
13390TIP3    H261662   5.257   3.290   5.602  1.2205  1.1401  1.8936
13391TIP3   OH261663   4.846   0.559  17.404 -0.0006 -0.1004  0.0329
13391TIP3    H161664   4.887   0.473  17.416  0.7704  0.2329 -0.1822
13391TIP3    H261665   4.868   0.583  17.314  0.4603  0.6758  0.3476
13392TIP3   OH261666   2.835   0.047   6.142 -0.0023  0.0259  0.3682
13392TIP3    H161667   2.823   0.141   6.126  0.7742 -0.2259 -2.1852
13392TIP3    H261668   2.850   0.040   6.236  2.2526  2.7335  0.3443
13393TIP3   OH261669   4.841   6.094  16.029 -0.0035 -0.3565  0.0376
13393TIP3    H161670   4.915   6.087  16.090  0.2456 -0.3031 -0.2541
13393TIP3    H261671   4.871   6.155  15.962  1.2692 -3.2743 -2.2893
13394TIP3   OH261672   4.421   2.907  17.426 -0.3073  0.1657 -0.1249
13394TIP3    H161673   4.432   2.823  17.381 -2.3111 -0.3608  0.2573
13394TIP3    H261674   4.444   2.972  17.360 -0.2769 -0.6499 -0.9495
13395TIP3   OH261675   0.495   3.637  15.721 -0.1476  0.1907 -0.6154
13395TIP3    H161676   0.531   3.562  15.674  1.6418 -1.1443  2.5160
13395TIP3    H261677   0.568   3.699  15.726 -1.4545  2.0436 -2.7128
13396TIP3   OH261678   4.766   3.036   1.796 -0.3312 -0.3901  0.3865
13396TIP3    H161679   4.677   3.047   1.763  0.2949 -0.9845 -1.6364
13396TIP3    H261680   4.781   3.114   1.850 -1.0779  1.2419 -1.6159
13397TIP3   OH261681   0.058   0.338  13.645  0.1984 -0.2720 -0.6000
13397TIP3    H161682   0.050   0.261  13.589  3.1751 -1.3202  0.2056
13397TIP3    H261683  -0.028   0.349  13.685 -1.2911 -1.0098 -3.3541
13398TIP3   OH261684   3.430   6.142   6.103  0.2101  0.6027 -0.5908
13398TIP3    H161685   3.431   6.184   6.189  2.3787  3.0379 -1.6700
13398TIP3    H261686   3.340   6.154   6.072  0.0871  2.0758  0.2536
13399TIP3   OH261687   0.470   3.695  16.615 -0.4337 -0.0583  0.2329
13399TIP3    H161688   0.409   3.756  16.572  1.3528  1.6834 -0.0021
13399TIP3    H261689   0.491   3.632  16.547 -0.1088  0.7812 -0.4734
13400TIP3   OH261690   0.667   5.211  14.504  0.1541  0.2681 -0.3956
13400TIP3    H161691   0.584   5.236  14.465 -0.0864  0.3645  0.1665
13400TIP3    H261692   0.648   5.130  14.550  0.0707  0.9136  0.7387
13401TIP3   OH261693   0.401   2.479   5.523 -0.1658  0.2633 -0.1881
13401TIP3    H161694   0.381   2.479   5.616 -1.5600  0.0725 -0.4676
13401TIP3    H261695   0.421   2.388   5.502 -0.6381  0.1645 -0.2234
13402TIP3   OH261696   4.347   0.709  11.359 -0.0282 -0.4112 -0.0630
13402TIP3    H161697   4.272   0.739  11.410 -1.7514 -1.9731 -1.5022
13402TIP3    H261698   4.357   0.774  11.290 -0.4191 -0.4885 -0.1912
13403TIP3   OH261699   1.881   2.453  17.028  0.7350 -0.4209 -0.1045
13403TIP3    H161700   1.927   2.371  17.012  2.4898  0.2422  1.2273
13403TIP3    H261701   1.876   2.495  16.942  1.8728 -0.9221 -0.4303
13404TIP3   OH261702   2.411   2.371  15.602 -0.0891 -0.1897 -0.0285
13404TIP3    H161703   2.331   2.383  15.653  0.8882  0.6117  1.3903
13404TIP3    H261704   2.429   2.277  15.609  0.2350 -0.0441  1.4825
13405TIP3   OH261705   5.307   5.353  14.187  0.7920  0.2212  0.4160
13405TIP3    H161706   5.287   5.339  14.280  1.8279 -0.6409  0.5369
13405TIP3    H261707   5.225   5.384  14.149  0.1072 -0.2537  1.4538
13406TIP3   OH261708   2.127   1.704   0.470 -0.1121 -0.3534  0.4820
13406TIP3    H161709   2.057   1.640   0.455 -1.3168  1.0567 -0.3531
13406TIP3    H261710   2.205   1.663   0.434 -0.2515 -2.3841  2.3085
13407TIP3   OH261711   2.194   3.278   6.093 -0.4662 -0.8464  0.1534
13407TIP3    H161712   2.203   3.330   6.173 -1.4666 -1.4052  0.6656
13407TIP3    H261713   2.108   3.236   6.102 -1.0965 -0.0528 -1.7436
13408TIP3   OH261714   3.102   3.110   8.423 -0.2032  0.1296  0.0836
13408TIP3    H161715   3.094   3.086   8.515 -0.0980 -2.6396 -0.5512
13408TIP3    H261716   3.016   3.145   8.399 -0.5148 -0.0104  0.9810
13409TIP3   OH261717   4.118   2.951   5.869  0.0924 -0.0291  0.2878
13409TIP3    H161718   4.164   3.026   5.833 -0.7281  0.5147  0.3491
13409TIP3    H261719   4.170   2.925   5.946  2.1610 -1.5439 -1.5019
13410TIP3   OH261720   4.505   1.779  12.307 -0.2330  0.3721 -0.2926
13410TIP3    H161721   4.497   1.685  12.323  1.7196  0.0386 -1.0688
13410TIP3    H261722   4.541   1.814  12.388 -1.1804  0.5141  0.0821
13411TIP3   OH261723   3.681   6.333  13.685  0.2328 -0.1454 -0.4123
13411TIP3    H161724   3.719   6.412  13.724 -1.4100 -0.0081  1.0319
13411TIP3    H261725   3.692   6.266  13.752 -0.2928 -0.5881 -0.7612
13412TIP3   OH261726   2.501   2.515  14.421 -0.9055  0.0743  0.1648
13412TIP3    H161727   2.440   2.537  14.491 -2.1638 -0.8868 -0.5825
13412TIP3    H261728   2.446   2.477  14.353  0.4466 -0.1166 -0.8570
13413TIP3   OH261729   0.316   6.303   4.825 -0.1495 -1.0390 -0.1137
13413TIP3    H161730   0.396   6.341   4.789 -0.5368  0.1211  0.2167
13413TIP3    H261731   0.345   6.223   4.869  1.0216 -0.0166  1.0477
13414TIP3   OH261732   5.556   5.165  11.660 -0.2978 -0.1173 -0.5177
13414TIP3    H161733   5.621   5.106  11.624 -0.3474 -0.6962  0.3075
13414TIP3    H261734   5.542   5.134  11.750 -0.0354  1.3792  0.0735
13415TIP3   OH261735   2.136   0.981  14.716  0.0821  0.1533 -0.8709
13415TIP3    H161736   2.102   0.923  14.784  1.8450  0.0149 -0.0504
13415TIP3    H261737   2.060   1.031  14.687 -0.8565 -0.2641  0.7291
13416TIP3   OH261738   0.312   5.934   6.023 -0.3015 -0.1373 -0.5804
13416TIP3    H161739   0.229   5.958   6.063  0.3785  2.5359 -0.5770
13416TIP3    H261740   0.296   5.940   5.929  0.2091  1.9190 -0.5824
13417TIP3   OH261741   0.114   5.543   1.272 -0.4071 -0.5540  0.3992
13417TIP3    H161742   0.207   5.544   1.295 -0.4471  1.7038  0.6710
13417TIP3    H261743   0.112   5.499   1.186  1.1315  0.6892 -0.3345
13418TIP3   OH261744   1.026   6.093   2.706 -0.4387 -0.2362 -0.0355
13418TIP3    H161745   1.092   6.161   2.696 -0.8620  0.1466 -0.2831
13418TIP3    H261746   0.978   6.094   2.623 -0.9999 -0.2452  0.2852
13419TIP3   OH261747   2.891   0.603   6.063 -0.5089 -0.2147  0.0695
13419TIP3    H161748   2.983   0.580   6.055  0.0139  1.7605 -0.2760
13419TIP3    H261749   2.891   0.690   6.105 -2.2956 -0.8554  1.5632
13420TIP3   OH261750   5.168   5.694   3.909 -0.3380  0.5763  0.0590
13420TIP3    H161751   5.122   5.622   3.867  0.6347 -0.3941  0.5892
13420TIP3    H261752   5.255   5.694   3.869  0.2203  0.3651  1.2083
13421TIP3   OH261753   2.163   0.920  13.689  0.2047  0.4725 -0.0143
13421TIP3    H161754   2.084   0.868  13.676  0.3745  0.7624 -2.8257
13421TIP3    H261755   2.234   0.857  13.689  0.1694  0.4323 -0.2035
13422TIP3   OH261756   6.626   2.170  14.411 -0.6500  0.5108 -0.2747
13422TIP3    H161757   6.698   2.146  14.468 -0.6169  0.5569 -0.2984
13422TIP3    H261758   6.598   2.087  14.372 -1.4317  0.2949  0.6975
13423TIP3   OH261759   5.121   5.973   1.179  0.1374 -0.1098  0.3730
13423TIP3    H161760   5.177   5.896   1.168 -1.0928 -0.8094 -1.4856
13423TIP3    H261761   5.148   6.032   1.109 -1.2324 -0.3763 -0.4330
13424TIP3   OH261762   1.439   2.814  15.319  0.1020 -0.4479  0.3105
13424TIP3    H161763   1.465   2.722  15.324 -1.4110 -0.9589 -0.4916
13424TIP3    H261764   1.466   2.842  15.232 -1.3353 -0.8045 -0.2886
13425TIP3   OH261765   2.925   4.114   6.475  0.0648  0.3646  0.4309
13425TIP3    H161766   2.837   4.127   6.438  0.4551  0.3071 -0.5309
13425TIP3    H261767   2.939   4.192   6.529 -0.3850  0.6056  0.2113
13426TIP3   OH261768   4.520   2.141  16.539 -0.0559 -0.3224 -0.3170
13426TIP3    H161769   4.571   2.107  16.465  0.2145 -0.6716  0.0240
13426TIP3    H261770   4.542   2.234  16.541 -0.4321 -0.2117 -0.9647
13427TIP3   OH261771   3.701   5.925   3.135  0.2512 -0.7640 -0.0461
13427TIP3    H161772   3.780   5.942   3.084 -0.0964  3.2412  0.4329
13427TIP3    H261773   3.635   5.902   3.070  0.5421  1.3580 -1.2002
13428TIP3   OH261774   5.763   3.682   5.584  0.7051 -0.0926  0.4371
13428TIP3    H161775   5.807   3.764   5.607 -1.4416  0.8542  1.4863
13428TIP3    H261776   5.776   3.626   5.661  0.6854 -0.0671  0.4593
13429TIP3   OH261777   4.829   1.607  12.594 -0.1790 -0.2621 -0.5889
13429TIP3    H161778   4.896   1.599  12.662  0.1961  0.7050 -0.8258
13429TIP3    H261779   4.754   1.559  12.629 -0.1415  0.5644  0.7092
13430TIP3   OH261780   1.883   1.652   5.321  0.0600  0.3444 -0.2913
13430TIP3    H161781   1.825   1.657   5.397  0.0315  0.8533 -0.3411
13430TIP3    H261782   1.954   1.593   5.348 -0.5806 -0.4400 -0.2996
13431TIP3   OH261783   4.478   1.816  12.812  0.0891  0.3833 -0.7180
13431TIP3    H161784   4.459   1.722  12.815 -1.3513  0.6838  1.0023
13431TIP3    H261785   4.396   1.856  12.784  0.0900  1.2408  0.4187
13432TIP3   OH261786   1.574   1.791  16.606 -0.1064 -0.4146 -0.2062
13432TIP3    H161787   1.565   1.730  16.533  1.5353  0.0269 -0.8259
13432TIP3    H261788   1.550   1.876  16.570 -0.0742 -0.3229 -0.0134
13433TIP3   OH261789   3.365   4.373   4.523  0.1068 -0.1734  0.5212
13433TIP3    H161790   3.340   4.414   4.440  0.0223 -0.7684  0.2477
13433TIP3    H261791   3.460   4.373   4.522  0.1319 -1.7799 -0.4020
13434TIP3   OH261792   0.157   3.158  11.434 -0.3577  0.0021 -0.2863
13434TIP3    H161793   0.094   3.117  11.494 -2.1023  0.1989 -1.8796
13434TIP3    H261794   0.161   3.097  11.360 -1.4210  1.6504 -1.7763
13435TIP3   OH261795   6.048   0.133  12.446  0.1568  0.4737  0.1687
13435TIP3    H161796   6.002   0.135  12.530 -0.5246  1.5885 -0.2118
13435TIP3    H261797   6.140   0.119  12.469  0.2185  2.3496  1.2234
13436TIP3   OH261798   1.340   6.443   5.555 -0.0425 -0.6683 -0.1515
13436TIP3    H161799   1.335   6.429   5.649  2.2234  2.3787  0.5514
13436TIP3    H261800   1.411   6.385   5.526  0.4268 -0.3490  0.3454
13437TIP3   OH261801   5.979   6.320  12.731  0.0535 -0.5641  0.0130
13437TIP3    H161802   6.021   6.286  12.652 -0.3009 -1.7822  0.3294
13437TIP3    H261803   5.941   6.243  12.773 -2.5476  0.4875 -0.2627
13438TIP3   OH261804   4.502   1.043   5.690  0.2130 -0.2100 -0.4159
13438TIP3    H161805   4.444   1.050   5.614  0.5279 -0.2265 -0.6567
13438TIP3    H261806   4.570   0.981   5.664  0.7062  0.2982 -0.3683
13439TIP3   OH261807   6.536   1.120  10.897  0.0269 -0.5115  0.3371
13439TIP3    H161808   6.503   1.074  10.820 -0.4989 -0.7492  0.6873
13439TIP3    H261809   6.566   1.050  10.955  1.6577 -0.2737 -0.1792
13440TIP3   OH261810   2.261   0.320   2.328  0.3306  0.2662 -0.3157
13440TIP3    H161811   2.172   0.302   2.356  0.4541  1.4589  0.9585
13440TIP3    H261812   2.251   0.367   2.245 -0.2302  0.5405 -0.0965
13441TIP3   OH261813   2.101   1.380   0.180 -0.0653  0.6661 -0.0602
13441TIP3    H161814   2.055   1.298   0.197  1.5483 -0.5485 -1.2524
13441TIP3    H261815   2.031   1.442   0.156 -1.2492 -0.5063  0.2468
13442TIP3   OH261816   1.123   4.943  14.497  0.0878  0.0402 -0.1708
13442TIP3    H161817   1.196   4.900  14.451  0.2642 -2.3665  2.1219
13442TIP3    H261818   1.045   4.910  14.453  0.2966 -0.2092 -0.3623
13443TIP3   OH261819   6.724   6.286   1.839 -0.2684 -0.6475 -0.3468
13443TIP3    H161820   6.651   6.238   1.878 -0.7252  0.2127 -0.1327
13443TIP3    H261821   6.688   6.324   1.760 -0.0906 -0.1035 -0.1677
13444TIP3   OH261822   5.823   2.550   4.602  0.1174 -0.1365  0.1252
13444TIP3    H161823   5.864   2.533   4.688 -1.2960  0.0433  0.8581
13444TIP3    H261824   5.729   2.548   4.619 -0.2311 -1.2859 -1.6640
13445TIP3   OH261825   6.089   0.297  11.019  0.6998  0.0547  0.3287
13445TIP3    H161826   6.069   0.316  10.928  0.2855  0.6505  0.5385
13445TIP3    H261827   6.181   0.319  11.029  0.6600  0.3088  0.1368
13446TIP3   OH261828   1.784   2.578  15.941  0.3597  0.7589  0.6210
13446TIP3    H161829   1.756   2.514  15.876 -1.1259  1.2284  0.7604
13446TIP3    H261830   1.865   2.541  15.978 -0.7326 -1.2971  1.0975
13447TIP3   OH261831   0.229   4.444   4.369  0.2141 -0.2098  0.3335
13447TIP3    H161832   0.235   4.402   4.455  1.0436  0.7208  0.7687
13447TIP3    H261833   0.267   4.381   4.308 -1.8112 -1.5365  0.3617
13448TIP3   OH261834   2.750   5.239  11.223  0.6691  0.4953 -0.3783
13448TIP3    H161835   2.693   5.260  11.296  0.0314  0.2305 -0.7889
13448TIP3    H261836   2.828   5.202  11.263  0.1107 -0.1337  0.1471
13449TIP3   OH261837   6.291   2.131   5.710 -0.1347 -0.0642  0.2636
13449TIP3    H161838   6.275   2.062   5.646  0.0165  1.9045 -2.0349
13449TIP3    H261839   6.351   2.092   5.773  0.4279 -1.8454 -1.2826
13450TIP3   OH261840   6.548   3.001   2.926 -0.6479  0.2940  0.1585
13450TIP3    H161841   6.463   2.983   2.965  0.4586 -0.2121  2.4928
13450TIP3    H261842   6.577   3.083   2.966  0.1742  0.2186 -0.2458
13451TIP3   OH261843   5.788   0.929   3.766  0.7737  0.6607 -0.1260
13451TIP3    H161844   5.825   0.905   3.681 -1.1046 -0.0804 -0.7942
13451TIP3    H261845   5.839   1.005   3.794 -0.0242  2.4498 -3.0651
13452TIP3   OH261846   0.986   0.317  13.455  0.5995  0.5157  0.4955
13452TIP3    H161847   0.984   0.408  13.424  1.3206  0.4310  0.1865
13452TIP3    H261848   1.059   0.277  13.408  0.4240 -0.1689  0.7931
13453TIP3   OH261849   5.236   1.671   4.552  0.3969 -0.5856  0.1534
13453TIP3    H161850   5.159   1.722   4.576  0.0556 -1.5003  1.0676
13453TIP3    H261851   5.298   1.736   4.519 -0.6652  0.1935 -0.3688
13454TIP3   OH261852   2.175   6.760   6.669  0.4600 -0.2226 -0.3617
13454TIP3    H161853   2.128   6.721   6.743 -1.7718  1.7685 -0.6302
13454TIP3    H261854   2.242   6.695   6.647  1.1490 -0.9656  3.2641
13455TIP3   OH261855   5.382   4.643   1.279  0.1287 -0.2324  0.4703
13455TIP3    H161856   5.408   4.735   1.278 -0.2508 -0.1217 -0.7894
13455TIP3    H261857   5.405   4.611   1.191 -0.7569 -1.0421  0.5242
13456TIP3   OH261858   6.316   2.054   3.224  0.5375  0.7151 -0.0169
13456TIP3    H161859   6.323   1.961   3.243 -0.0744  0.9580  1.6377
13456TIP3    H261860   6.257   2.059   3.149 -1.4155 -0.1764  1.3517
13457TIP3   OH261861   2.520   0.980  13.618  0.1270  0.1752  0.0449
13457TIP3    H161862   2.460   1.028  13.560  0.1383 -1.3019 -1.2519
13457TIP3    H261863   2.525   1.034  13.697 -0.6601  1.7725 -0.9393
13458TIP3   OH261864   2.896   6.442  12.430  0.0369 -0.0423  0.0830
13458TIP3    H161865   2.957   6.501  12.385  0.7212 -0.3702  0.5822
13458TIP3    H261866   2.826   6.427  12.365  1.1442 -0.7435 -0.9906
13459TIP3   OH261867   2.327   1.918   1.123  0.1789  0.5565  0.2967
13459TIP3    H161868   2.239   1.889   1.100  0.5704 -1.6021  1.2798
13459TIP3    H261869   2.322   2.013   1.121 -1.3688  0.5333 -2.6041
13460TIP3   OH261870   5.621   5.458  15.463 -0.0785  0.1952  0.0575
13460TIP3    H161871   5.569   5.384  15.496  0.5538 -0.5417 -0.5626
13460TIP3    H261872   5.560   5.531  15.462 -1.2434 -0.7374 -1.0030
13461TIP3   OH261873   0.109   2.157   3.427  0.3712 -0.5169 -0.2602
13461TIP3    H161874   0.186   2.135   3.481  0.0424 -1.2325 -0.0776
13461TIP3    H261875   0.141   2.154   3.337  1.2493  1.9027 -0.1171
13462TIP3   OH261876   2.698   3.968   5.801  0.5728 -0.2587 -0.1179
13462TIP3    H161877   2.653   3.996   5.881  1.0364  0.6092 -0.1484
13462TIP3    H261878   2.702   3.873   5.808 -1.9177 -0.4688 -0.4500
13463TIP3   OH261879   1.849   0.064   4.965 -0.1593 -0.2423  0.2611
13463TIP3    H161880   1.801   0.045   5.045 -1.4095 -0.1699 -0.4532
13463TIP3    H261881   1.849  -0.018   4.917  0.4733 -0.2505  0.2660
13464TIP3   OH261882   2.721   4.326  14.877 -0.7386 -0.1345 -0.1925
13464TIP3    H161883   2.809   4.339  14.913 -0.4775 -1.5863 -0.2457
13464TIP3    H261884   2.736   4.311  14.784 -0.7559 -2.8014  0.1619
13465TIP3   OH261885   5.928   1.460   4.362 -0.5098  0.3803 -0.0911
13465TIP3    H161886   5.953   1.424   4.276  0.0511  0.2696  0.1115
13465TIP3    H261887   6.008   1.452   4.415  0.7994  4.9291 -0.9450
13466TIP3   OH261888   3.760   1.732   3.924 -0.6980 -0.7747 -0.1102
13466TIP3    H161889   3.847   1.719   3.960 -0.2913 -0.7739 -1.0510
13466TIP3    H261890   3.719   1.797   3.980  0.6634  0.7692 -0.8433
13467TIP3   OH261891   4.360   3.974   4.300 -0.1698 -0.6920 -0.2079
13467TIP3    H161892   4.404   3.986   4.384 -0.7616  0.5616 -0.0511
13467TIP3    H261893   4.415   3.912   4.253  0.3631 -1.1463  0.9592
13468TIP3   OH261894   0.936   3.907  11.480 -0.0754 -0.2744 -0.8830
13468TIP3    H161895   0.983   3.869  11.405 -3.2794 -3.6955 -1.4452
13468TIP3    H261896   0.964   3.854  11.555  0.1533  0.5197 -0.3981
13469TIP3   OH261897   4.135   3.637  11.668 -0.7409 -0.2966 -0.4325
13469TIP3    H161898   4.070   3.567  11.658 -0.0248 -1.0803  0.3075
13469TIP3    H261899   4.150   3.642  11.762  0.6961 -0.5248 -0.6347
13470TIP3   OH261900   6.741   5.755  15.385 -0.5581 -0.1413 -0.3906
13470TIP3    H161901   6.698   5.836  15.412 -2.1635 -1.1056  0.0594
13470TIP3    H261902   6.815   5.746  15.446 -1.0273  0.4059  0.2790
13471TIP3   OH261903   0.013   2.478   4.671  0.0881  0.1746 -0.0685
13471TIP3    H161904  -0.014   2.544   4.736 -0.7964  0.0028 -0.2410
13471TIP3    H261905   0.098   2.508   4.641  0.8662 -0.1171  1.6881
13472TIP3   OH261906   5.884   3.176   2.612  0.1762 -0.6528 -0.7542
13472TIP3    H161907   5.967   3.185   2.660  0.7603 -1.1325 -1.6473
13472TIP3    H261908   5.851   3.090   2.638  0.3571 -0.7989 -1.0096
13473TIP3   OH261909   1.092   3.288   5.586  0.0083  0.3943  0.3085
13473TIP3    H161910   1.058   3.308   5.673  1.4611 -0.2506  1.0507
13473TIP3    H261911   1.081   3.193   5.577  0.9581  0.2832  0.2809
13474TIP3   OH261912   3.644   0.972   3.213 -0.1921  0.1893  0.2801
13474TIP3    H161913   3.568   0.914   3.214 -0.3330  0.3093 -1.0974
13474TIP3    H261914   3.719   0.915   3.228 -0.5305  0.0689  1.6680
13475TIP3   OH261915   3.531   5.248   6.236 -0.3269  0.6778 -0.1358
13475TIP3    H161916   3.458   5.202   6.278 -0.4457 -0.8268 -1.8786
13475TIP3    H261917   3.491   5.294   6.162  0.5621 -1.1661 -1.8720
13476TIP3   OH261918   2.847   1.022   1.841  0.0053  0.5010 -0.0404
13476TIP3    H161919   2.882   0.943   1.801 -0.3940  0.9460 -1.3112
13476TIP3    H261920   2.766   1.040   1.793 -1.5417  0.0129  2.1851
13477TIP3   OH261921   6.025   3.678   3.346  0.4880  0.1849 -0.2795
13477TIP3    H161922   6.021   3.766   3.309 -1.4060  0.4270  0.3881
13477TIP3    H261923   6.072   3.626   3.280  2.1522  1.7771 -0.4254
13478TIP3   OH261924   3.657   3.785  17.339  0.1015 -0.6365 -0.4103
13478TIP3    H161925   3.696   3.852  17.396 -0.0072 -0.1839 -0.8654
13478TIP3    H261926   3.600   3.834  17.279 -1.2451 -1.2769  0.2853
13479TIP3   OH261927   3.917   5.635  16.661  0.0708 -0.1414 -0.1661
13479TIP3    H161928   3.994   5.589  16.629  0.1960 -0.3665  0.4524
13479TIP3    H261929   3.950   5.720  16.690 -0.3151  0.7991 -2.2820
13480TIP3   OH261930   6.452   3.361   4.830  0.0180  0.1782 -0.0217
13480TIP3    H161931   6.469   3.304   4.906 -0.8867  2.0519  1.7016
13480TIP3    H261932   6.404   3.305   4.769 -0.5715 -1.0342  1.4519
13481TIP3   OH261933   3.286   4.201  10.520  0.3371  0.0076  0.0600
13481TIP3    H161934   3.268   4.126  10.576 -0.1960  0.2807  0.2673
13481TIP3    H261935   3.374   4.185  10.484 -0.4174 -1.5304 -1.2193
13482TIP3   OH261936   1.493   6.492  17.183 -0.9508 -0.8201  0.1134
13482TIP3    H161937   1.548   6.565  17.211  1.2304 -1.1959 -2.7844
13482TIP3    H261938   1.540   6.414  17.213 -0.5118 -1.1078 -1.2431
13483TIP3   OH261939   0.693   1.832   3.082 -0.2538 -0.5793  0.2803
13483TIP3    H161940   0.671   1.805   3.171 -1.4683  0.6529  0.3793
13483TIP3    H261941   0.789   1.842   3.083 -0.2272 -0.8405  1.3637
13484TIP3   OH261942   5.597   0.795   5.346  0.4079 -0.2986 -0.1231
13484TIP3    H161943   5.539   0.722   5.369 -0.3257  0.5426  0.7552
13484TIP3    H261944   5.685   0.759   5.356  0.2487 -0.0460  4.4031
13485TIP3   OH261945   5.659   5.059   2.329 -0.3449  0.0623 -0.0109
13485TIP3    H161946   5.594   5.053   2.259 -0.1068 -0.3322 -0.2003
13485TIP3    H261947   5.698   4.972   2.333 -1.1767 -0.2811  1.4097
13486TIP3   OH261948   3.978   2.287  13.904  0.3361 -0.2681 -0.9786
13486TIP3    H161949   4.025   2.292  13.820  0.9285 -1.2140 -0.7210
13486TIP3    H261950   4.039   2.324  13.967  0.8510 -1.6719 -0.6107
13487TIP3   OH261951   2.691   0.975  13.088  0.0141 -0.3477 -0.0396
13487TIP3    H161952   2.727   1.060  13.113 -2.1717  0.6333 -0.0045
13487TIP3    H261953   2.630   0.994  13.018 -2.1899 -1.5148  1.4441
13488TIP3   OH261954   0.774   3.544   1.854 -0.2427 -0.5255 -0.0967
13488TIP3    H161955   0.820   3.468   1.890 -1.5146 -1.5130 -0.4646
13488TIP3    H261956   0.782   3.535   1.759  3.0561  2.0488 -0.2080
13489TIP3   OH261957   1.863   2.261   1.215  0.4950 -0.1619 -0.2918
13489TIP3    H161958   1.856   2.282   1.121 -0.1825 -1.9803 -0.6943
13489TIP3    H261959   1.801   2.320   1.257  2.8235  2.7034 -0.5638
13490TIP3   OH261960   4.459   0.979   5.987 -0.0398  0.7053 -0.6088
13490TIP3    H161961   4.493   1.035   5.917 -1.4151  0.9815 -1.0864
13490TIP3    H261962   4.378   1.022   6.014 -0.0266  0.0660  0.4805
13491TIP3   OH261963   0.939   4.665  13.231  0.1170 -0.1994 -0.6030
13491TIP3    H161964   1.022   4.668  13.279  0.4332  1.2642 -1.1921
13491TIP3    H261965   0.879   4.718  13.284  0.2562  0.7776 -1.3873
13492TIP3   OH261966   3.042   5.868   3.489 -0.3007  0.5658  0.1058
13492TIP3    H161967   3.083   5.807   3.429 -0.3841  0.2460  0.3712
13492TIP3    H261968   2.956   5.829   3.508  0.4608 -0.3500  1.9415
13493TIP3   OH261969   4.829   0.822  17.072 -0.4492  0.1771 -0.0313
13493TIP3    H161970   4.864   0.911  17.059 -0.2327  0.0009 -0.6668
13493TIP3    H261971   4.905   0.770  17.098 -0.2316 -0.1924 -1.3537
13494TIP3   OH261972   4.354   6.160   1.596  0.5248 -0.2025  0.3095
13494TIP3    H161973   4.276   6.128   1.549  0.9160  0.0924 -0.5611
13494TIP3    H261974   4.319   6.204   1.673 -0.0567 -2.4958  1.4635
13495TIP3   OH261975   2.345   5.605  12.950  0.0693  0.1024 -0.1397
13495TIP3    H161976   2.348   5.693  12.989 -1.4829  0.4111 -0.6745
13495TIP3    H261977   2.400   5.552  13.008 -1.1588  0.8143  1.7684
13496TIP3   OH261978   3.079   6.303   3.663  0.6818  0.1593 -0.0986
13496TIP3    H161979   3.088   6.317   3.569 -0.4299  0.6854 -0.1429
13496TIP3    H261980   3.160   6.336   3.700  1.3481 -0.5086 -0.9037
13497TIP3   OH261981   3.149   0.905   3.421 -0.6527 -0.1010 -0.2485
13497TIP3    H161982   3.133   0.833   3.360 -2.2874  2.4305 -3.1161
13497TIP3    H261983   3.077   0.966   3.406  1.1236  2.6018  1.2704
13498TIP3   OH261984   1.211   5.369   2.368 -0.4109  0.0771 -0.6831
13498TIP3    H161985   1.299   5.354   2.403 -0.6395  1.2902  0.5491
13498TIP3    H261986   1.221   5.365   2.273  0.6872 -1.1754 -0.5365
13499TIP3   OH261987   2.451   1.313   4.442  0.4668  0.0096  0.2500
13499TIP3    H161988   2.427   1.382   4.379  0.7713 -0.7333 -0.7046
13499TIP3    H261989   2.375   1.306   4.500  0.4361  1.1471  0.3671
13500TIP3   OH261990   2.682   0.817  13.489  0.2384 -0.0401  0.1858
13500TIP3    H161991   2.626   0.866  13.549  0.2616  0.9235 -0.5558
13500TIP3    H261992   2.678   0.866  13.407  1.9446 -0.0878  0.0356
13501TIP3   OH261993   2.805   2.135  17.125  0.1863 -0.4556  0.5823
13501TIP3    H161994   2.808   2.110  17.218 -1.4915  0.1701  0.8268
13501TIP3    H261995   2.771   2.057  17.081  0.1153 -0.4365  0.6044
13502TIP3   OH261996   2.266   2.917   0.007  0.0961  0.3572  0.2482
13502TIP3    H161997   2.247   3.011   0.011  0.4826  0.4358  0.2532
13502TIP3    H261998   2.211   2.885  -0.064 -1.6328  0.1969  1.5842
13503TIP3   OH261999   0.161   0.281  14.485  0.5239 -0.3145  0.4332
13503TIP3    H162000   0.240   0.299  14.435  0.6462  0.4814  0.8805
13503TIP3    H262001   0.186   0.300  14.576 -0.4895  1.0932  0.4480
13504TIP3   OH262002   0.897   1.036   1.473  0.0773  0.0821  0.1105
13504TIP3    H162003   0.820   1.086   1.447 -0.7662 -0.3495  1.6321
13504TIP3    H262004   0.929   1.080   1.552  0.7545 -0.3779  0.1023
13505TIP3   OH262005   4.714   6.364   0.251  0.0466  0.2247  0.2830
13505TIP3    H162006   4.701   6.383   0.158  0.5809  0.6027  0.2839
13505TIP3    H262007   4.703   6.448   0.294 -1.2749 -0.1256  0.6906
13506TIP3   OH262008   0.824   1.107   0.321 -0.4912 -0.4426 -0.4569
13506TIP3    H162009   0.898   1.095   0.262  0.4472  1.5662  0.2294
13506TIP3    H262010   0.823   1.028   0.375  2.9705  0.5974  1.4230
13507TIP3   OH262011   0.211   3.107   0.565 -0.2963 -0.1487  0.3804
13507TIP3    H162012   0.159   3.186   0.580 -0.6465 -0.4959  1.0769
13507TIP3    H262013   0.301   3.133   0.586 -0.4763 -0.0490  1.0477
13508TIP3   OH262014   1.880   1.879  14.937  0.8364  0.6656  0.2551
13508TIP3    H162015   1.864   1.963  14.895  0.4170  0.3112 -0.3011
13508TIP3    H262016   1.966   1.852  14.906  0.0780 -0.1056 -1.2609
13509TIP3   OH262017   5.812   4.800  12.430 -0.0756 -0.3124 -0.1654
13509TIP3    H162018   5.839   4.781  12.341  1.4659 -1.4004  0.4965
13509TIP3    H262019   5.739   4.741  12.447 -2.4285  1.9598 -1.6365
13510TIP3   OH262020   5.067   4.359   4.460 -0.9293 -0.2689 -0.1624
13510TIP3    H162021   5.065   4.263   4.464 -2.1396 -0.3052 -0.9829
13510TIP3    H262022   5.086   4.386   4.550  1.1903 -1.2709 -0.2376
13511TIP3   OH262023   4.132   2.394  10.387  0.5401  0.5095  0.4249
13511TIP3    H162024   4.053   2.442  10.413  0.4011 -0.7194  2.5182
13511TIP3    H262025   4.204   2.445  10.422  0.6058  0.9840 -0.3945
13512TIP3   OH262026   1.229   2.255  16.457 -0.2962  0.0180  0.0186
13512TIP3    H162027   1.146   2.232  16.415 -0.8442  0.3216  0.9217
13512TIP3    H262028   1.262   2.329  16.406 -1.5269  1.1430  0.7912
13513TIP3   OH262029   6.114   3.935   1.098  0.5574 -0.2940 -0.2954
13513TIP3    H162030   6.139   3.850   1.134  1.5099 -0.3899 -1.1500
13513TIP3    H262031   6.108   3.921   1.004  1.3409  0.7253 -0.5181
13514TIP3   OH262032   4.494   5.676   4.630  0.1980 -0.2884  0.2699
13514TIP3    H162033   4.503   5.657   4.723  0.5542  0.2573  0.3542
13514TIP3    H262034   4.433   5.750   4.626 -2.1099 -2.1044 -0.1235
13515TIP3   OH262035   3.912   3.032  11.432  0.2569 -0.2083  0.1397
13515TIP3    H162036   3.864   2.956  11.399 -0.1041 -0.2694  0.7700
13515TIP3    H262037   4.004   3.010  11.421  0.1646 -1.0354  0.9469
13516TIP3   OH262038   3.436   4.772  13.408  0.6857 -0.0093  0.2601
13516TIP3    H162039   3.371   4.836  13.378 -0.4552 -1.3469 -0.2052
13516TIP3    H262040   3.500   4.769  13.337 -0.5551 -1.1422 -0.8774
13517TIP3   OH262041   4.697   0.461   2.876  0.3636  0.2240  0.3768
13517TIP3    H162042   4.613   0.500   2.853  1.3369  2.4899  0.3651
13517TIP3    H262043   4.690   0.370   2.849 -2.3816  0.1236  1.1866
13518TIP3   OH262044   2.818   1.856  17.402 -0.4017  0.2472 -0.5389
13518TIP3    H162045   2.907   1.888  17.418  0.0322 -1.7295  1.5168
13518TIP3    H262046   2.763   1.910  17.459 -0.2221  0.0512 -0.1764
13519TIP3   OH262047   3.036   0.114   3.425  0.5857 -0.3697 -0.0153
13519TIP3    H162048   2.942   0.135   3.427  0.6829  0.0438  0.2714
13519TIP3    H262049   3.039   0.019   3.412  0.1277 -0.3558 -0.2291
13520TIP3   OH262050   5.292   5.368   6.488 -0.0437 -0.2368 -0.1003
13520TIP3    H162051   5.358   5.330   6.430  0.5835 -0.5981  0.8212
13520TIP3    H262052   5.210   5.360   6.440  0.4879 -0.3117 -1.0273
13521TIP3   OH262053   4.203   0.119  11.820  0.5717  0.0991  0.7170
13521TIP3    H162054   4.209   0.210  11.792  0.9311  0.0304  0.5625
13521TIP3    H262055   4.145   0.078  11.756  1.1605  0.0084  0.2340
13522TIP3   OH262056   6.478   6.413   4.487  0.4334 -0.0038  0.3736
13522TIP3    H162057   6.477   6.468   4.408  0.8766 -0.1093  0.2912
13522TIP3    H262058   6.552   6.446   4.538  0.7863 -0.6098  0.2638
13523TIP3   OH262059   3.975   3.983  16.028 -0.2947 -0.2055  0.2762
13523TIP3    H162060   3.982   3.889  16.009  1.7295 -0.0586  0.0498
13523TIP3    H262061   4.060   4.006  16.066 -0.7243  1.5495  0.2510
13524TIP3   OH262062   2.217   0.824   5.054  0.5957  0.1326 -0.2233
13524TIP3    H162063   2.299   0.777   5.040  0.3913  0.0781 -1.2688
13524TIP3    H262064   2.243   0.908   5.090  1.0415 -0.2754  0.4298
13525TIP3   OH262065   5.705   5.804   6.558 -0.3799 -0.8091  0.3607
13525TIP3    H162066   5.800   5.811   6.554 -0.3924 -1.0536 -0.8358
13525TIP3    H262067   5.681   5.758   6.477 -1.7035  1.4572 -0.6248
13526TIP3   OH262068   2.208   3.973  11.063  0.0438 -0.0011 -0.0407
13526TIP3    H162069   2.123   3.932  11.044 -0.6559  0.9491  0.8853
13526TIP3    H262070   2.266   3.900  11.083  0.0489 -0.8492 -2.7286
13527TIP3   OH262071   5.015   0.520   2.182  0.0622 -0.2032  0.3430
13527TIP3    H162072   4.929   0.528   2.222  0.4924  1.1374  1.0716
13527TIP3    H262073   5.076   0.519   2.256  0.6681 -1.3067 -0.1523
13528TIP3   OH262074   1.449   6.070   2.921  0.3198  0.8209 -0.1315
13528TIP3    H162075   1.488   6.040   3.004 -1.2426  0.9259  0.6896
13528TIP3    H262076   1.453   6.165   2.925 -0.6808  0.8646  0.3397
13529TIP3   OH262077   2.163   4.926   6.281  0.0011 -0.3188  0.0890
13529TIP3    H162078   2.182   4.833   6.289 -1.6432 -0.6523  0.5405
13529TIP3    H262079   2.109   4.933   6.201 -0.9152  0.0432  0.7179
13530TIP3   OH262080   5.517   2.929   0.269  0.0173 -0.1212  0.6831
13530TIP3    H162081   5.581   2.859   0.251  1.7242  1.5899 -0.2515
13530TIP3    H262082   5.491   2.960   0.182  1.3160  2.1330  1.0315
13531TIP3   OH262083   6.180   5.601   5.633  0.3184  0.6073 -0.2563
13531TIP3    H162084   6.156   5.681   5.585  1.6816  1.3575  0.2444
13531TIP3    H262085   6.159   5.530   5.572 -3.2780  1.0801  0.2024
13532TIP3   OH262086   2.507   6.281   0.198 -0.8413 -0.1421  0.1072
13532TIP3    H162087   2.470   6.367   0.219 -1.1428  0.6503 -3.1413
13532TIP3    H262088   2.602   6.293   0.202 -0.8835 -0.0924  1.0993
13533TIP3   OH262089   1.412   2.839   0.301  0.1211 -0.8250  0.1886
13533TIP3    H162090   1.440   2.920   0.342 -2.0639  0.4282 -0.5836
13533TIP3    H262091   1.352   2.867   0.231 -0.0444 -3.0687 -0.6703
13534TIP3   OH262092   2.165   3.240   1.814 -0.0185 -0.4441 -0.0998
13534TIP3    H162093   2.087   3.199   1.778 -0.7616  0.7133  0.1332
13534TIP3    H262094   2.235   3.219   1.752 -0.7723 -0.4950 -0.9420
13535TIP3   OH262095   3.660   6.638   2.874 -0.5231  0.5945 -0.0238
13535TIP3    H162096   3.743   6.598   2.848 -1.1386  1.2538 -3.4736
13535TIP3    H262097   3.686   6.714   2.926  1.1280  1.1339 -1.5350
13536TIP3   OH262098   2.195   2.238   1.666 -0.3271 -0.5579  0.2264
13536TIP3    H162099   2.213   2.162   1.610  1.9793 -1.2583  1.7906
13536TIP3    H262100   2.209   2.206   1.755  0.0419  1.5477  0.9655
13537TIP3   OH262101   2.771   5.926   4.762  0.7473  0.6052  0.3220
13537TIP3    H162102   2.746   5.833   4.759  1.8048  0.3369 -0.9460
13537TIP3    H262103   2.759   5.950   4.854  0.7852 -0.8808  0.7550
13538TIP3   OH262104   6.163   4.725  12.056 -0.1856  0.8937 -0.0393
13538TIP3    H162105   6.194   4.813  12.078  1.0462  0.7362 -1.0712
13538TIP3    H262106   6.206   4.668  12.120  1.1298  0.7602 -1.0128
13539TIP3   OH262107   2.512   1.236  15.561 -0.1243 -0.3470 -0.1461
13539TIP3    H162108   2.540   1.323  15.533 -2.4241  0.2557 -0.8086
13539TIP3    H262109   2.592   1.193  15.591  1.3759  1.3102 -1.5737
13540TIP3   OH262110   4.329   6.042   3.483 -0.0521  0.4785 -0.6416
13540TIP3    H162111   4.283   6.121   3.511  1.2974  1.3635 -0.8200
13540TIP3    H262112   4.316   5.980   3.554 -0.7420  1.0284 -0.2761
13541TIP3   OH262113   3.396   1.294  12.654  0.2171 -0.2357  0.1303
13541TIP3    H162114   3.464   1.321  12.715  0.8918  0.8125 -1.0370
13541TIP3    H262115   3.438   1.228  12.598  0.4169  0.7027 -0.8468
13542TIP3   OH262116   1.174   6.658   2.041 -0.1431  0.1391 -0.4311
13542TIP3    H162117   1.161   6.594   1.970  0.3527  0.4001 -0.7615
13542TIP3    H262118   1.098   6.716   2.034 -0.9588 -0.8152  0.3126
13543TIP3   OH262119   2.918   4.930   3.474  0.3960  0.2933 -0.8925
13543TIP3    H162120   2.950   4.999   3.532 -0.5861 -0.2727  0.3873
13543TIP3    H262121   2.901   4.974   3.391 -0.5028  1.6891 -0.0167
13544TIP3   OH262122   5.236   4.010  14.260  0.1116  0.1525  0.1147
13544TIP3    H162123   5.160   3.957  14.282 -0.9006  1.2957 -0.5420
13544TIP3    H262124   5.212   4.099  14.286  0.6488  0.7689 -1.4170
13545TIP3   OH262125   1.522   2.656  13.279  0.3209 -0.1956  0.0142
13545TIP3    H162126   1.525   2.659  13.183 -1.8710  0.8188 -0.0891
13545TIP3    H262127   1.436   2.619  13.299  0.5330  0.1172  1.5920
13546TIP3   OH262128   4.954   0.175  15.233  0.3610  0.1615  0.7422
13546TIP3    H162129   5.003   0.122  15.296 -0.6124 -1.6629  0.0153
13546TIP3    H262130   4.878   0.206  15.283  1.4638  1.8925  1.4821
13547TIP3   OH262131   5.035   0.604  12.032  0.1620  0.4075 -0.3651
13547TIP3    H162132   4.959   0.639  11.986  0.8057  0.2807 -1.5730
13547TIP3    H262133   5.082   0.682  12.063 -0.3950  0.4869  0.3097
13548TIP3   OH262134   3.264   3.766  11.102 -0.0332 -0.3731 -0.8251
13548TIP3    H162135   3.304   3.769  11.015 -0.6031 -0.2179 -1.0889
13548TIP3    H262136   3.177   3.803  11.089 -0.2898 -0.7737 -0.2769
13549TIP3   OH262137   5.662   2.589   3.940 -0.2702  0.4454 -0.6532
13549TIP3    H162138   5.636   2.615   4.028  0.7898  2.1193 -0.7760
13549TIP3    H262139   5.640   2.496   3.934 -1.2578  0.5401  1.0177
13550TIP3   OH262140   4.749   2.263   4.104  0.3019 -0.2618  0.0871
13550TIP3    H162141   4.826   2.212   4.079  0.2512 -0.9745  1.2777
13550TIP3    H262142   4.743   2.252   4.199 -0.0483  1.5282  0.3068
13551TIP3   OH262143   4.005   4.140  12.417  0.0878 -0.1161  0.3167
13551TIP3    H162144   3.989   4.051  12.447 -1.1558  0.2532  0.8386
13551TIP3    H262145   3.952   4.148  12.337  0.2050  0.1448  0.2643
13552TIP3   OH262146   2.410   6.472   4.754 -0.3343 -0.0808 -0.5076
13552TIP3    H162147   2.409   6.545   4.692 -1.2574  2.4199  2.2254
13552TIP3    H262148   2.326   6.477   4.798  0.6369 -1.1107  1.6065
13553TIP3   OH262149   3.044   1.442   0.806  0.0201 -0.2610  0.2605
13553TIP3    H162150   2.983   1.454   0.733  0.9344 -0.9386 -0.6488
13553TIP3    H262151   3.084   1.528   0.818 -1.5524  0.3756  1.3174
13554TIP3   OH262152   3.815   2.864  17.325  0.2127 -0.3726 -0.0492
13554TIP3    H162153   3.888   2.925  17.336  1.0272 -1.5531  1.2945
13554TIP3    H262154   3.846   2.782  17.361 -1.5151 -1.1213 -0.1712
13555TIP3   OH262155   0.138   6.410   4.543 -0.0606  0.5801 -0.5644
13555TIP3    H162156   0.127   6.335   4.601 -0.8231  0.3041 -1.0451
13555TIP3    H262157   0.107   6.379   4.457 -1.1305  1.6570 -0.5970
13556TIP3   OH262158   6.472   6.525  13.865 -0.4580  0.0981 -0.2009
13556TIP3    H162159   6.560   6.493  13.845 -1.0667 -1.0817 -1.1677
13556TIP3    H262160   6.483   6.579  13.943  1.2399  0.6216 -0.7506
13557TIP3   OH262161   4.977   1.546  12.380 -0.0646 -0.1290 -0.5544
13557TIP3    H162162   4.931   1.589  12.453 -0.8585 -1.8951  0.0307
13557TIP3    H262163   5.012   1.619  12.328 -0.0203  1.1949  1.2251
13558TIP3   OH262164   0.645   1.054  15.309  0.9017 -0.4803  0.3559
13558TIP3    H162165   0.661   0.998  15.234  0.4587 -0.1960  0.0409
13558TIP3    H262166   0.567   1.105  15.285  1.5639  0.6128  0.4273
13559TIP3   OH262167   5.422   1.291  12.048 -1.0311 -0.0794 -0.4498
13559TIP3    H162168   5.386   1.348  12.116 -1.2143 -1.6102  0.7831
13559TIP3    H262169   5.425   1.346  11.970  0.3258  2.1324  1.0455
13560TIP3   OH262170   0.831   2.499  13.157  0.6256  0.0875 -0.5332
13560TIP3    H162171   0.860   2.409  13.170 -0.6344 -0.1695  0.7376
13560TIP3    H262172   0.743   2.491  13.121  0.1204  0.7749  0.4829
13561TIP3   OH262173   5.047   6.564   6.535  0.0683 -0.0758 -0.0339
13561TIP3    H162174   5.078   6.524   6.453 -1.8316  0.9227 -1.3320
13561TIP3    H262175   4.985   6.500   6.570  0.7143 -0.4028  0.5323
13562TIP3   OH262176   3.837   6.083   5.349 -0.0169 -0.4050  0.1775
13562TIP3    H162177   3.818   6.085   5.443 -1.1395 -1.2007 -0.0191
13562TIP3    H262178   3.768   6.136   5.310  0.8156  0.4623 -0.1698
13563TIP3   OH262179   3.815   5.737   0.168  0.3445 -0.1335 -0.0462
13563TIP3    H162180   3.819   5.641   0.173 -1.4189 -0.2227  0.4413
13563TIP3    H262181   3.730   5.755   0.129 -1.4864  1.2275  3.9991
13564TIP3   OH262182   6.221   6.478  16.238  0.6097 -0.2393 -0.2923
13564TIP3    H162183   6.263   6.457  16.321 -1.8509  0.3892  1.2181
13564TIP3    H262184   6.278   6.544  16.198  2.4656 -1.4138  0.2599
13565TIP3   OH262185   5.454   5.856   6.644 -0.1553  0.2368 -0.7820
13565TIP3    H162186   5.425   5.789   6.707  1.0931 -1.3155 -1.7713
13565TIP3    H262187   5.550   5.850   6.645 -0.0346  1.7334 -1.2251
13566TIP3   OH262188   2.144   6.698  12.165 -0.1269 -0.4806 -0.3115
13566TIP3    H162189   2.084   6.660  12.101 -1.0775 -0.4075  0.5017
13566TIP3    H262190   2.206   6.628  12.185 -0.6036 -0.9185 -0.3600
13567TIP3   OH262191   0.769   4.874  15.754 -0.2462  0.0329 -0.1261
13567TIP3    H162192   0.714   4.912  15.686  0.4461  2.5129  0.5734
13567TIP3    H262193   0.855   4.914  15.740  0.2026 -0.2961  1.4759
13568TIP3   OH262194   2.284   1.141  13.569  0.3810  0.0676 -0.1287
13568TIP3    H162195   2.211   1.129  13.507  1.1244 -1.6949 -0.7325
13568TIP3    H262196   2.274   1.069  13.631  0.7450  0.7129  0.6971
13569TIP3   OH262197   5.701   2.519   1.951  0.5340 -0.3707  0.4024
13569TIP3    H162198   5.710   2.429   1.919 -2.0218 -0.4947 -0.1203
13569TIP3    H262199   5.744   2.572   1.883 -2.1814 -0.8748 -1.8856
13570TIP3   OH262200   1.707   1.740   0.234 -0.0707 -0.0311 -0.2805
13570TIP3    H162201   1.744   1.793   0.164  1.6426 -0.1986  0.4455
13570TIP3    H262202   1.771   1.746   0.305 -0.8897 -1.3145  0.6058
13571TIP3   OH262203   3.554   2.254   5.952 -0.7573  0.1080 -0.2820
13571TIP3    H162204   3.535   2.219   5.865 -0.8390 -1.0947  0.2006
13571TIP3    H262205   3.586   2.343   5.936 -0.1302 -0.3300 -1.5908
13572TIP3   OH262206   6.252   4.829   5.683 -0.2370 -0.1751 -0.5396
13572TIP3    H162207   6.189   4.859   5.749  0.4745 -2.5742  1.3871
13572TIP3    H262208   6.337   4.841   5.724  0.2842 -1.0471 -1.3226
13573TIP3   OH262209   1.731   0.252  12.885 -0.2321  0.1248 -0.3291
13573TIP3    H162210   1.648   0.207  12.867 -0.6133  0.5762  0.2697
13573TIP3    H262211   1.739   0.251  12.980 -1.1710  2.9221 -0.1298
13574TIP3   OH262212   0.643   2.851  14.956  0.7102  0.3477 -0.0152
13574TIP3    H162213   0.739   2.849  14.954  0.6863 -1.2402 -0.9621
13574TIP3    H262214   0.616   2.777  14.902 -1.0132 -1.3453  2.8548
13575TIP3   OH262215   0.175   0.685   0.430  0.3792  0.2560 -0.0693
13575TIP3    H162216   0.120   0.607   0.436  0.2758  0.3008 -0.4662
13575TIP3    H262217   0.228   0.671   0.351 -1.8451  2.0209 -2.0121
13576TIP3   OH262218   4.442   4.444  12.019 -0.6679 -0.0038  0.2632
13576TIP3    H162219   4.368   4.391  11.989 -0.8242  0.9376 -1.1263
13576TIP3    H262220   4.518   4.388  12.006 -0.7873  0.2087 -1.5708
13577TIP3   OH262221   3.647   6.538   0.779  0.1246  0.4284  0.8415
13577TIP3    H162222   3.690   6.623   0.788  0.0122  0.5427  0.3265
13577TIP3    H262223   3.609   6.521   0.865 -0.1555  1.0632  0.8476
13578TIP3   OH262224   6.479   6.775  13.243 -0.1563  0.1405  0.6077
13578TIP3    H162225   6.535   6.736  13.176  0.5897  1.2108  0.5843
13578TIP3    H262226   6.413   6.824  13.194  0.1507  0.5945  0.6399
13579TIP3   OH262227   0.970   5.719   5.347 -0.2264  0.0247 -0.6641
13579TIP3    H162228   0.911   5.763   5.286 -2.8651 -2.0252  0.1803
13579TIP3    H262229   0.948   5.758   5.432  1.6491  1.1135 -0.6284
13580TIP3   OH262230   3.948   5.851   6.311  0.1217  0.3270  0.3407
13580TIP3    H162231   4.035   5.856   6.350  0.8511  2.6985 -1.3666
13580TIP3    H262232   3.889   5.887   6.377  0.5323 -0.6051  1.2264
13581TIP3   OH262233   3.904   6.270  14.828 -0.2838 -0.1715 -0.3627
13581TIP3    H162234   3.829   6.319  14.862 -0.4000 -1.0082  0.6454
13581TIP3    H262235   3.937   6.222  14.904  1.8721  0.9072 -0.5261
13582TIP3   OH262236   5.266   0.231  12.592 -0.1973 -0.4996  0.1932
13582TIP3    H162237   5.323   0.267  12.660 -0.3586 -0.3589  0.2552
13582TIP3    H262238   5.184   0.280  12.602 -1.1210 -2.2422  1.5962
13583TIP3   OH262239   5.334   4.574   4.983  0.0523 -0.9645  0.1408
13583TIP3    H162240   5.375   4.576   4.897 -0.4576 -0.9323 -0.1040
13583TIP3    H262241   5.261   4.512   4.974 -1.2061  0.4626 -0.0088
13584TIP3   OH262242   6.606   2.935  13.832 -0.2962  0.2070 -0.3739
13584TIP3    H162243   6.649   2.940  13.918 -1.4953 -2.6289  0.4929
13584TIP3    H262244   6.522   2.980  13.846 -0.1987  0.3674 -0.2876
13585TIP3   OH262245   3.525   3.480   4.652  0.2132 -0.4305  0.0971
13585TIP3    H162246   3.528   3.576   4.656  5.0146 -0.3567  0.0322
13585TIP3    H262247   3.503   3.453   4.741  1.8684  0.7935  0.9159
13586TIP3   OH262248   0.347   1.994  11.386  0.2998  0.6933 -0.4396
13586TIP3    H162249   0.411   2.021  11.320  4.2191 -2.2352  1.7450
13586TIP3    H262250   0.313   1.911  11.354 -1.9175  1.7955 -1.1393
13587TIP3   OH262251   4.458   5.543  15.610 -0.3301 -0.6271  0.3929
13587TIP3    H162252   4.449   5.637  15.594  0.8972 -0.5147  0.2777
13587TIP3    H262253   4.446   5.534  15.705  0.2583 -0.2528  0.5102
13588TIP3   OH262254   5.401   4.568   1.641 -0.3790 -0.1643  0.2991
13588TIP3    H162255   5.418   4.593   1.732 -0.3756 -0.9580  0.5212
13588TIP3    H262256   5.393   4.473   1.644 -0.7551 -0.1569 -0.4734
13589TIP3   OH262257   3.651   6.673  16.669  0.1103  0.0010 -0.0957
13589TIP3    H162258   3.612   6.640  16.589  2.9762  0.8981 -2.0264
13589TIP3    H262259   3.746   6.669  16.653  0.7546  2.2551  2.3565
13590TIP3   OH262260   4.946   4.983   3.979  0.5318 -0.3100  0.4740
13590TIP3    H162261   5.023   4.928   3.964 -1.0779 -2.6210  0.0757
13590TIP3    H262262   4.874   4.921   3.991 -1.5626  1.7417 -0.5822
13591TIP3   OH262263   5.528   2.796  16.023 -0.8440  0.9111 -0.0943
13591TIP3    H162264   5.529   2.707  15.987  1.1076  0.4189  1.0080
13591TIP3    H262265   5.597   2.842  15.975 -0.3373  1.1593  0.8548
13592TIP3   OH262266   2.482   0.826   6.097  0.1698  0.0419 -0.4545
13592TIP3    H162267   2.541   0.786   6.161 -0.7353 -3.4774 -1.5852
13592TIP3    H262268   2.400   0.839   6.145 -0.7612 -3.3194 -0.8722
13593TIP3   OH262269   5.405   3.222   2.842 -0.1704  0.2296 -0.6372
13593TIP3    H162270   5.401   3.155   2.774  0.4458 -0.9401  0.4371
13593TIP3    H262271   5.376   3.177   2.922  0.9449  1.0069  0.2503
13594TIP3   OH262272   0.065   1.571   0.792 -0.2815 -0.3818 -0.1803
13594TIP3    H162273   0.104   1.490   0.759 -0.1766  0.2198 -1.6086
13594TIP3    H262274  -0.027   1.565   0.765 -0.2218  0.0729 -0.4869
13595TIP3   OH262275   6.052   1.835   3.079 -0.3412 -0.4708 -0.2419
13595TIP3    H162276   6.089   1.903   3.023  0.5111 -1.0034 -0.3579
13595TIP3    H262277   6.035   1.762   3.019  0.3762 -0.9669  0.1377
13596TIP3   OH262278   4.690   4.599   1.066  0.0546  0.2040  0.7545
13596TIP3    H162279   4.632   4.564   0.998  0.4175  1.3247 -0.1656
13596TIP3    H262280   4.632   4.637   1.131 -0.2727  1.6527 -0.3408
13597TIP3   OH262281   4.965   1.410   0.784 -0.3665  0.2232  0.7771
13597TIP3    H162282   4.914   1.484   0.815 -0.7594  0.2947 -0.0225
13597TIP3    H262283   4.900   1.346   0.755 -0.0126  0.2617 -0.1263
13598TIP3   OH262284   1.757   0.571  16.549  0.3904 -0.1058 -0.3031
13598TIP3    H162285   1.735   0.482  16.523  0.9819  0.9178 -5.2327
13598TIP3    H262286   1.852   0.571  16.559  0.2750 -0.2460  0.8721
13599TIP3   OH262287   0.559   4.636   5.261  0.3012  0.4299 -0.4439
13599TIP3    H162288   0.570   4.706   5.198 -1.3086  0.8154 -0.3556
13599TIP3    H262289   0.582   4.676   5.345 -0.1017  0.7086 -0.4621
13600TIP3   OH262290   2.904   1.760   3.538  0.9947 -0.6901 -0.1036
13600TIP3    H162291   2.918   1.835   3.481 -0.1511  0.5050  1.1272
13600TIP3    H262292   2.819   1.725   3.511  1.3607 -1.3697 -0.4309
13601TIP3   OH262293   3.261   5.075   5.140 -0.0862 -0.0149  0.4048
13601TIP3    H162294   3.219   5.052   5.057  2.1050 -1.9988 -0.2604
13601TIP3    H262295   3.260   4.994   5.191 -0.2230  0.8356  1.8235
13602TIP3   OH262296   1.154   1.746  12.603 -0.3504 -0.1312  0.2531
13602TIP3    H162297   1.248   1.765  12.606 -0.1401 -0.7414 -1.2466
13602TIP3    H262298   1.147   1.654  12.628 -0.5521 -0.0696  0.4215
13603TIP3   OH262299   5.205   1.975  13.386 -0.1872  0.1184 -0.3427
13603TIP3    H162300   5.249   2.023  13.456 -0.3759 -0.2296  0.0263
13603TIP3    H262301   5.151   1.911  13.433 -1.3323  0.7485 -0.7665
13604TIP3   OH262302   1.149   5.967   5.147 -0.5505 -0.1199 -0.1407
13604TIP3    H162303   1.219   5.938   5.088 -0.3291 -1.8086  0.8840
13604TIP3    H262304   1.106   6.038   5.099  1.6802  0.8131 -0.9176
13605TIP3   OH262305   1.472   1.383   5.816 -0.0347  0.2916  0.0191
13605TIP3    H162306   1.565   1.389   5.836  0.6223  1.7758 -2.9101
13605TIP3    H262307   1.467   1.320   5.744 -1.2930  0.1960  0.1724
13606TIP3   OH262308   3.949   1.478  14.062  0.3506  0.3788  0.4329
13606TIP3    H162309   4.012   1.408  14.077 -1.6753 -1.1869  2.0940
13606TIP3    H262310   3.991   1.556  14.098  1.4700 -0.5530  1.2163
13607TIP3   OH262311   0.736   2.887  14.376  0.7756  0.4954  0.2657
13607TIP3    H162312   0.724   2.873  14.283  1.2658 -2.3875  0.5546
13607TIP3    H262313   0.814   2.942  14.383  0.7944  0.6418 -1.0193
13608TIP3   OH262314   6.662   4.150  13.440  0.5899 -0.9740 -0.3849
13608TIP3    H162315   6.641   4.187  13.355  1.1595  0.1142 -0.0618
13608TIP3    H262316   6.663   4.225  13.500  0.0756 -1.7285  0.6163
13609TIP3   OH262317   0.477   3.622  12.384  0.0263  0.3017 -0.4258
13609TIP3    H162318   0.410   3.589  12.325 -0.2417  0.1805 -0.0577
13609TIP3    H262319   0.459   3.715  12.392 -0.9674  0.0281  0.7754
13610TIP3   OH262320   0.032   1.865   5.246 -0.2002  0.4968 -0.4981
13610TIP3    H162321   0.096   1.805   5.287  0.9987  1.1202 -1.3859
13610TIP3    H262322  -0.041   1.867   5.307  0.8854  0.2223  0.8784
13611TIP3   OH262323   3.091   5.029   5.453 -0.5070  0.2196  0.0499
13611TIP3    H162324   3.085   5.081   5.373  0.2361  1.9745  1.1019
13611TIP3    H262325   3.184   5.012   5.464 -0.6139 -0.0947  0.5112
13612TIP3   OH262326   3.113   1.805  17.138  0.4077  0.4139  0.2472
13612TIP3    H162327   3.112   1.872  17.070 -0.4020  1.3971  1.1912
13612TIP3    H262328   3.156   1.730  17.097 -0.9996  0.6033 -1.6973
13613TIP3   OH262329   2.339   0.924  17.351 -0.1942  0.4373 -0.0282
13613TIP3    H162330   2.430   0.899  17.366 -0.8104 -0.3304  3.1322
13613TIP3    H262331   2.298   0.844  17.318  0.0434  0.4948 -0.4789
13614TIP3   OH262332   0.637   6.488  15.036 -0.0420 -0.1799  0.0022
13614TIP3    H162333   0.550   6.468  15.002  0.7239 -2.4652 -0.8564
13614TIP3    H262334   0.688   6.511  14.958  0.2260  0.7294  0.4419
13615TIP3   OH262335   1.625   0.653   1.203 -0.2619 -0.5271  0.3780
13615TIP3    H162336   1.670   0.681   1.282  0.4882  0.1366 -0.2779
13615TIP3    H262337   1.571   0.579   1.232 -3.0545  2.0332  2.3859
13616TIP3   OH262338   5.508   6.269  14.922 -0.6901 -0.2594 -0.0768
13616TIP3    H162339   5.437   6.318  14.879  0.2759  2.4670  1.1698
13616TIP3    H262340   5.517   6.311  15.008  2.6166 -0.2622 -0.3011
13617TIP3   OH262341   4.258   3.111   4.761  0.1890  0.3923  0.0535
13617TIP3    H162342   4.325   3.141   4.699 -0.0805  1.9229  0.4473
13617TIP3    H262343   4.186   3.173   4.750 -0.2566  0.1006  1.1830
13618TIP3   OH262344   5.641   0.099   2.218  0.0211  0.3908 -0.1342
13618TIP3    H162345   5.582   0.053   2.158  1.3452 -2.2603  0.4446
13618TIP3    H262346   5.621   0.061   2.304 -0.1065  2.3237  0.7476
13619TIP3   OH262347   4.288   2.228   1.729 -0.7292 -0.1030  0.7033
13619TIP3    H162348   4.205   2.182   1.741 -1.1485  0.1594 -0.9687
13619TIP3    H262349   4.340   2.170   1.674  0.0721 -0.1039  1.4426
13620TIP3   OH262350   2.286   2.384  14.300 -0.1288 -0.7122  0.1492
13620TIP3    H162351   2.192   2.405  14.300 -0.2424 -1.1282 -1.2872
13620TIP3    H262352   2.291   2.299  14.259  0.7877 -1.3340  1.4760
13621TIP3   OH262353   3.084   1.340  13.925  0.4935  0.1228 -0.9354
13621TIP3    H162354   3.071   1.422  13.877  0.0080  0.5919 -0.0360
13621TIP3    H262355   3.160   1.356  13.980 -0.4312  0.4965  0.2822
13622TIP3   OH262356   2.440   1.291   0.336 -0.5594 -1.0095 -0.0124
13622TIP3    H162357   2.380   1.233   0.288 -1.0498 -0.1591 -0.4502
13622TIP3    H262358   2.401   1.298   0.423 -1.8883  0.6251 -0.6910
13623TIP3   OH262359   5.844   4.738  11.165  0.2403  0.3968  0.2213
13623TIP3    H162360   5.890   4.779  11.092  0.9225 -0.0636  0.3831
13623TIP3    H262361   5.872   4.646  11.162 -2.1142 -0.3918 -0.8377
13624TIP3   OH262362   3.234   5.646   4.106  0.0896  0.8589 -0.4864
13624TIP3    H162363   3.261   5.567   4.153 -0.2476  0.4935 -0.8889
13624TIP3    H262364   3.275   5.718   4.153  0.1476  0.4651  0.0770
13625TIP3   OH262365   5.613   5.382  14.215 -0.0503 -0.2829 -0.0878
13625TIP3    H162366   5.585   5.374  14.307  1.6356  2.8446  0.8274
13625TIP3    H262367   5.532   5.398  14.167 -0.7581  0.0310  1.1531
13626TIP3   OH262368   6.531   3.140  14.290 -0.0263  0.1406  0.2651
13626TIP3    H162369   6.586   3.063  14.298  2.8914  1.3624 -4.2856
13626TIP3    H262370   6.569   3.203  14.351  0.9569 -0.3696  0.1892
13627TIP3   OH262371   4.341   1.133   1.446 -0.7481  0.6499 -0.0728
13627TIP3    H162372   4.271   1.136   1.511  0.1336 -0.3941  0.9810
13627TIP3    H262373   4.394   1.211   1.463 -1.2707  1.0967 -0.4497
13628TIP3   OH262374   3.908   3.461  11.667 -0.2135 -0.5412  0.0751
13628TIP3    H162375   3.933   3.393  11.603  0.0581 -0.0824 -0.3157
13628TIP3    H262376   3.814   3.471  11.657 -0.2790 -0.9757  0.2479
13629TIP3   OH262377   2.037   0.159  15.541 -0.8997 -0.5414 -0.1204
13629TIP3    H162378   2.000   0.132  15.457  0.9234 -0.0057 -1.1603
13629TIP3    H262379   2.130   0.136  15.534  0.2096  3.2986  0.0140
13630TIP3   OH262380   2.141   1.567   5.723 -0.4151 -0.1424 -0.6015
13630TIP3    H162381   2.213   1.505   5.734 -1.3992 -1.2643 -0.1903
13630TIP3    H262382   2.113   1.555   5.632 -0.4060 -0.0786 -0.6128
13631TIP3   OH262383   1.885   3.511   4.005  0.2836 -0.3324  0.1025
13631TIP3    H162384   1.848   3.428   3.974 -1.5188  1.6998 -3.8046
13631TIP3    H262385   1.930   3.548   3.929 -2.5020  4.0670  0.2314
13632TIP3   OH262386   4.434   5.003  17.043 -0.2396  0.2048 -0.0057
13632TIP3    H162387   4.399   4.970  17.126  1.1123 -0.0918  0.4668
13632TIP3    H262388   4.389   4.951  16.976 -0.3826 -0.4682  0.6020
13633TIP3   OH262389   5.975   4.273  14.494 -0.4986 -0.7949 -0.2343
13633TIP3    H162390   5.988   4.194  14.546 -1.5809 -1.0634 -0.3547
13633TIP3    H262391   5.914   4.247  14.425 -1.0861  0.2051 -0.1179
13634TIP3   OH262392   1.954   2.085  17.240  0.3721 -0.2843 -0.3293
13634TIP3    H162393   1.906   2.019  17.190 -3.0853  0.8036  1.2440
13634TIP3    H262394   1.934   2.167  17.196  0.2463  0.2744  0.7475
13635TIP3   OH262395   3.633   0.361  15.980 -0.1657 -0.0717  0.1751
13635TIP3    H162396   3.631   0.300  15.907  3.0520 -0.5413  0.3504
13635TIP3    H262397   3.677   0.439  15.947 -0.8067  0.6734  0.9959
13636TIP3   OH262398   6.433   3.223   5.332  0.0339 -0.4946 -0.3472
13636TIP3    H162399   6.528   3.211   5.334  0.2203  0.9374  0.8103
13636TIP3    H262400   6.408   3.242   5.422 -1.4169 -1.1002 -0.5764
13637TIP3   OH262401   0.791   4.135  17.199 -0.6341 -0.4135 -0.0850
13637TIP3    H162402   0.788   4.075  17.124  1.3395 -0.6498 -0.0241
13637TIP3    H262403   0.760   4.083  17.272 -0.6461 -0.8009 -0.3615
13638TIP3   OH262404   5.611   1.940   1.703 -0.5694  0.9963 -0.2744
13638TIP3    H162405   5.571   1.914   1.786 -1.2971  1.9672 -0.3099
13638TIP3    H262406   5.585   1.872   1.641  0.0815  0.2004  0.3061
13639TIP3   OH262407   2.567   4.090  17.128  0.7386  0.2002 -0.4786
13639TIP3    H162408   2.615   4.130  17.055  0.6512 -0.8153 -1.1127
13639TIP3    H262409   2.619   4.013  17.151  0.9098  0.6476  0.7383
13640TIP3   OH262410   4.763   3.636  14.852  0.1174  0.3872 -0.6354
13640TIP3    H162411   4.794   3.557  14.897  0.1328  1.5842  1.5884
13640TIP3    H262412   4.842   3.679  14.821  0.3659  0.9512  0.7063
13641TIP3   OH262413   3.795   4.042  13.139  0.2128 -0.6022 -0.0471
13641TIP3    H162414   3.815   4.071  13.050  1.5749 -0.2181  0.3666
13641TIP3    H262415   3.721   3.982  13.128 -0.2323  0.1387 -1.3248
13642TIP3   OH262416   2.113   5.895   1.811 -0.3134 -0.6630  0.3380
13642TIP3    H162417   2.137   5.985   1.834 -0.1737 -0.8873  1.0705
13642TIP3    H262418   2.196   5.855   1.784 -0.7192  0.0990 -2.3586
13643TIP3   OH262419   6.523   4.443   3.648  0.0514  0.7532 -0.2966
13643TIP3    H162420   6.556   4.365   3.692 -0.3583  0.5481 -0.3505
13643TIP3    H262421   6.601   4.483   3.609  0.2064  0.1265 -0.6532
13644TIP3   OH262422   2.430   3.647  13.998 -0.2198  0.0286 -0.3655
13644TIP3    H162423   2.522   3.653  14.026  0.2351 -0.2144 -1.7392
13644TIP3    H262424   2.380   3.657  14.079  0.9984  0.9588  0.3091
13645TIP3   OH262425   1.994   4.777  15.038  0.1828 -0.2310 -0.4546
13645TIP3    H162426   1.932   4.742  15.102  0.7698  1.6787  1.2811
13645TIP3    H262427   1.938   4.819  14.972 -0.7513  4.4002  2.7283
13646TIP3   OH262428   5.347   5.846  15.921  0.1374  0.4421  0.4521
13646TIP3    H162429   5.398   5.922  15.892 -1.4372  0.7525 -1.7078
13646TIP3    H262430   5.382   5.773  15.870 -1.7451  0.7288 -1.3335
13647TIP3   OH262431   0.431   2.738   1.883  0.0514 -0.1053 -0.3809
13647TIP3    H162432   0.452   2.674   1.950  0.1775 -0.7638 -1.0434
13647TIP3    H262433   0.376   2.802   1.928 -1.3863 -1.4979 -0.0618
13648TIP3   OH262434   1.550   4.722  13.643 -0.0841 -0.0146  0.3698
13648TIP3    H162435   1.496   4.801  13.642  2.3415  1.7344 -0.3090
13648TIP3    H262436   1.486   4.650  13.639 -2.3468  1.9096 -1.3900
13649TIP3   OH262437   5.317   2.849   5.488 -0.5265  0.0151  0.2023
13649TIP3    H162438   5.272   2.770   5.458 -0.6188 -0.1039  0.6431
13649TIP3    H262439   5.393   2.857   5.431 -0.1202 -0.8031  0.6173
13650TIP3   OH262440   4.759   0.102   3.655 -0.1499  0.3375  0.1660
13650TIP3    H162441   4.685   0.158   3.678 -0.7852 -0.1928 -0.5184
13650TIP3    H262442   4.725   0.013   3.666  1.0417  0.0564  1.8872
13651TIP3   OH262443   2.312   4.487   0.909 -0.3363 -0.3596 -0.4969
13651TIP3    H162444   2.266   4.463   0.829 -0.8211 -0.5434 -0.1625
13651TIP3    H262445   2.368   4.412   0.928  1.4436  0.5306 -1.8534
13652TIP3   OH262446   1.781   2.365  12.717 -0.0985 -0.0454  0.3034
13652TIP3    H162447   1.784   2.435  12.652 -1.9503  0.2364  0.4504
13652TIP3    H262448   1.838   2.395  12.788  0.5454  0.4641 -0.4166
13653TIP3   OH262449   3.612   2.776  15.093 -0.3481 -0.0529  0.1182
13653TIP3    H162450   3.599   2.805  15.183 -0.0111  0.9021 -0.1217
13653TIP3    H262451   3.704   2.750  15.089 -0.2951  0.1450 -0.0025
13654TIP3   OH262452   5.847   6.096   5.209 -0.9464 -0.5671  0.5147
13654TIP3    H162453   5.794   6.093   5.129 -0.8605 -3.4337  0.4452
13654TIP3    H262454   5.934   6.068   5.181 -0.3657  0.4095  1.2880
13655TIP3   OH262455   0.258   3.201  11.689  0.0497 -0.0774 -0.1029
13655TIP3    H162456   0.238   3.190  11.596  1.2541  0.3824 -0.4420
13655TIP3    H262457   0.353   3.192  11.693  0.0810  0.6279  0.9887
13656TIP3   OH262458   4.218   3.201  16.295 -0.4288 -0.6460  0.1687
13656TIP3    H162459   4.127   3.198  16.327 -0.4322 -2.6429  0.0547
13656TIP3    H262460   4.270   3.220  16.373 -0.9817  1.7299  0.0430
13657TIP3   OH262461   1.213   6.339   0.537 -0.4270  0.2024 -0.3202
13657TIP3    H162462   1.256   6.410   0.584 -0.2973  0.4354 -0.7933
13657TIP3    H262463   1.124   6.337   0.574  0.0372 -0.4295  0.8138
13658TIP3   OH262464   1.861   2.957   2.957  0.1728  0.8020 -0.8437
13658TIP3    H162465   1.897   3.044   2.977 -0.0714  0.9888 -1.2096
13658TIP3    H262466   1.834   2.922   3.042 -1.4184  1.8370 -0.9041
13659TIP3   OH262467   4.604   3.405   2.964 -0.0610 -0.3243  0.0162
13659TIP3    H162468   4.671   3.473   2.967 -1.6633  1.3022  0.4904
13659TIP3    H262469   4.527   3.444   3.006 -1.2163 -2.2378 -0.1821
13660TIP3   OH262470   5.878   3.840   3.915 -0.0647  0.6408 -0.4797
13660TIP3    H162471   5.820   3.912   3.941  0.5037  0.5367  1.2602
13660TIP3    H262472   5.843   3.809   3.832 -0.5511  2.6847 -1.1008
13661TIP3   OH262473   0.592   3.094   4.063 -0.1783  0.1358 -0.0730
13661TIP3    H162474   0.683   3.067   4.071 -1.0193 -3.4987 -0.6021
13661TIP3    H262475   0.549   3.057   4.140 -1.2140  1.8703  0.2263
13662TIP3   OH262476   0.724   2.861   4.214 -0.1158 -0.1468 -0.0104
13662TIP3    H162477   0.663   2.905   4.273  0.0339 -1.4148  1.1188
13662TIP3    H262478   0.788   2.929   4.192 -0.2989  0.4068  1.1041
13663TIP3   OH262479   4.973   1.661   5.295  0.3706  0.2857  0.2378
13663TIP3    H162480   5.069   1.662   5.292  0.3609  0.9567  0.1926
13663TIP3    H262481   4.946   1.671   5.203  0.2556 -0.2352  0.2109
13664TIP3   OH262482   3.493   4.526  15.271  0.0209 -0.2714  0.0396
13664TIP3    H162483   3.418   4.490  15.318  0.2535 -0.6995  0.0855
13664TIP3    H262484   3.472   4.513  15.178  0.6805 -1.7526  0.0631
13665TIP3   OH262485   3.875   2.060  13.995  0.3442  0.0898 -0.7856
13665TIP3    H162486   3.907   2.146  13.966  0.2265  0.4640  0.1464
13665TIP3    H262487   3.944   2.026  14.052 -0.2819  0.2868  0.1224
13666TIP3   OH262488   5.459   0.511  11.571  0.8055  0.2979  0.4765
13666TIP3    H162489   5.429   0.553  11.490  1.2634 -2.2629 -1.1238
13666TIP3    H262490   5.555   0.514  11.565  0.8719 -2.0201 -0.3266
13667TIP3   OH262491   0.609   2.362  13.499 -0.5582  0.3153 -0.4732
13667TIP3    H162492   0.642   2.307  13.570  0.2362  1.5099  0.1169
13667TIP3    H262493   0.639   2.318  13.419 -1.2019 -0.8766 -0.0773
13668TIP3   OH262494   2.684   5.842  16.132  0.0535 -0.1484  0.3754
13668TIP3    H162495   2.760   5.882  16.088 -1.0036  2.1313  0.4697
13668TIP3    H262496   2.641   5.792  16.063  1.1162 -0.7034  0.0855
13669TIP3   OH262497   3.258   2.168  12.066 -0.5471  0.6838  0.4609
13669TIP3    H162498   3.201   2.127  12.001 -0.5667  2.2456 -0.5698
13669TIP3    H262499   3.201   2.189  12.140 -1.3818  2.3292 -0.5992
13670TIP3   OH262500   1.896   2.207  14.080 -0.0990 -0.5002  0.0787
13670TIP3    H162501   1.934   2.187  13.994  0.0966  0.5799 -0.0948
13670TIP3    H262502   1.815   2.156  14.082  0.3077 -1.1891 -0.3992
13671TIP3   OH262503   0.347   2.332   2.669  0.0810 -0.3413  0.1166
13671TIP3    H162504   0.427   2.305   2.715 -0.1456  1.2085  1.5522
13671TIP3    H262505   0.277   2.321   2.734 -0.1712  2.4437  0.4310
13672TIP3   OH262506   0.979   3.364  15.091 -0.2271  0.1912 -0.0922
13672TIP3    H162507   0.907   3.372  15.154 -1.7666 -0.2419 -1.7095
13672TIP3    H262508   0.993   3.270  15.082 -0.4023  0.2254 -0.7793
13673TIP3   OH262509   2.130   2.397   0.966 -0.1932  0.1387  0.6071
13673TIP3    H162510   2.075   2.456   1.017  0.6314  0.9608  0.5615
13673TIP3    H262511   2.166   2.451   0.896 -0.8292 -0.8311 -0.5142
13674TIP3   OH262512   2.925   5.428  12.335 -0.7111 -0.4645  0.5247
13674TIP3    H162513   2.835   5.454  12.316 -1.2199 -2.5905 -0.1924
13674TIP3    H262514   2.927   5.334  12.322  1.9574 -0.3315 -0.7676
13675TIP3   OH262515   1.347   1.758   2.955 -0.1207  0.0263  0.4831
13675TIP3    H162516   1.352   1.842   3.001  0.9550  1.7342 -2.4738
13675TIP3    H262517   1.425   1.710   2.984 -0.0282  0.5920  1.2006
13676TIP3   OH262518   3.179   5.479  12.395  0.2764  0.7500 -0.4492
13676TIP3    H162519   3.086   5.464  12.412  0.5425  1.0561  1.4577
13676TIP3    H262520   3.190   5.456  12.303 -1.4266 -0.5637 -0.3818
13677TIP3   OH262521   3.017   5.741   1.364  0.0815 -0.5232  0.3026
13677TIP3    H162522   2.994   5.680   1.294 -0.3835 -0.9966  0.8644
13677TIP3    H262523   2.964   5.819   1.345  0.9058 -0.1548 -0.5904
13678TIP3   OH262524   3.330   2.617   1.162 -0.8418  0.3603 -0.1455
13678TIP3    H162525   3.388   2.542   1.153  2.0672  2.2036  1.4048
13678TIP3    H262526   3.306   2.641   1.073 -1.2216 -1.8949 -0.6881
13679TIP3   OH262527   6.160   4.118   6.384  0.4706  0.5300  0.2006
13679TIP3    H162528   6.200   4.166   6.311 -0.6575  1.1324 -0.0484
13679TIP3    H262529   6.215   4.040   6.394  1.4636  1.1311 -0.3684
13680TIP3   OH262530   4.613   6.292   3.687  0.2004 -0.3381  0.5521
13680TIP3    H162531   4.551   6.351   3.644 -0.5680 -0.7673  1.0354
13680TIP3    H262532   4.560   6.247   3.753  1.1053 -0.4890  1.1912
13681TIP3   OH262533   1.400   3.467  15.892  0.7035 -0.3397 -0.4575
13681TIP3    H162534   1.337   3.475  15.964  2.5937  0.6076  1.1654
13681TIP3    H262535   1.442   3.382  15.905 -1.5772 -2.0240 -2.8168
13682TIP3   OH262536   2.579   2.735  12.130 -0.1563  0.4288  0.4463
13682TIP3    H162537   2.584   2.734  12.034 -1.7805 -0.4472  0.3322
13682TIP3    H262538   2.670   2.738  12.159  0.4465 -1.1011 -1.1262
13683TIP3   OH262539   2.683   0.479  13.930 -0.0813 -0.1150  0.2173
13683TIP3    H162540   2.683   0.389  13.896  0.8315  0.0851 -0.3628
13683TIP3    H262541   2.744   0.476  14.004 -1.3418 -0.3344  1.2817
13684TIP3   OH262542   2.352   4.190  11.969  0.1482 -0.0275  0.1863
13684TIP3    H162543   2.310   4.246  11.903 -1.1620 -0.7628  0.3596
13684TIP3    H262544   2.302   4.206  12.049 -0.7265 -1.9284  0.0666
13685TIP3   OH262545   2.324   3.359   4.264 -0.2033 -0.0393  0.1573
13685TIP3    H162546   2.363   3.438   4.227 -1.5202 -0.5225 -2.5034
13685TIP3    H262547   2.253   3.390   4.319 -0.6081  0.6799 -0.7408
13686TIP3   OH262548   3.237   2.421  11.304 -0.1667 -0.2772  0.0384
13686TIP3    H162549   3.197   2.431  11.218 -1.4492  0.4775  0.6963
13686TIP3    H262550   3.222   2.505  11.348 -0.3346 -0.9485  1.3175
13687TIP3   OH262551   6.156   6.166   4.743  0.7338  0.1312  0.8705
13687TIP3    H162552   6.138   6.233   4.808 -1.6711  0.7771 -0.3490
13687TIP3    H262553   6.083   6.104   4.752  2.5118 -1.9898  1.4754
13688TIP3   OH262554   3.081   2.612  15.648  0.7149  0.0612  0.0181
13688TIP3    H162555   3.011   2.590  15.586  1.7290  0.9446 -1.5189
13688TIP3    H262556   3.044   2.678  15.705 -0.2171 -0.6953  0.3040
13689TIP3   OH262557   2.406   5.611   2.302 -0.2644 -0.4356  0.0238
13689TIP3    H162558   2.362   5.626   2.386 -0.3104 -2.1891  0.3610
13689TIP3    H262559   2.335   5.613   2.238 -0.3901 -0.1230  0.1726
13690TIP3   OH262560   1.432   0.605  13.373  0.0720  0.4882  0.1559
13690TIP3    H162561   1.400   0.515  13.378  0.7766  0.1849 -0.4954
13690TIP3    H262562   1.490   0.614  13.449 -0.8838  0.7799  0.8747
13691TIP3   OH262563   4.516   4.356  13.265 -0.2982  0.5451  0.5737
13691TIP3    H162564   4.568   4.404  13.200 -0.4417 -0.6335 -0.4591
13691TIP3    H262565   4.580   4.311  13.320 -0.1826 -0.2014 -0.1476
13692TIP3   OH262566   1.383   0.722  14.280  0.4168 -0.3806  0.1050
13692TIP3    H162567   1.319   0.747  14.214 -0.4806 -1.5297  0.5000
13692TIP3    H262568   1.427   0.645  14.244  0.6611 -0.3860  0.4048
13693TIP3   OH262569   6.197   4.990   0.764 -0.1136 -0.5217  0.0631
13693TIP3    H162570   6.282   4.948   0.775  1.2170  1.4070 -2.1172
13693TIP3    H262571   6.205   5.073   0.811 -0.4421  0.0927 -0.9422
13694TIP3   OH262572   4.976   1.191   5.855 -0.0921  0.7718 -0.6494
13694TIP3    H162573   4.896   1.144   5.829  0.2455 -0.7598  0.8878
13694TIP3    H262574   4.965   1.278   5.818 -1.8873  0.2217 -1.5753
13695TIP3   OH262575   2.602   4.569   2.985  0.4067  0.0038  0.6019
13695TIP3    H162576   2.613   4.638   3.050  2.7068 -1.3928  1.8101
13695TIP3    H262577   2.540   4.508   3.025  0.5806 -0.0583  0.7743
13696TIP3   OH262578   6.166   5.713  14.738 -0.0078  0.4510  0.3059
13696TIP3    H162579   6.198   5.799  14.711 -1.8735  0.8216 -0.9219
13696TIP3    H262580   6.154   5.721  14.832 -0.2944  1.5977  0.1875
13697TIP3   OH262581   6.311   3.327   1.315  0.4707 -0.2161  0.3434
13697TIP3    H162582   6.308   3.270   1.393 -2.6152  0.0169  0.5178
13697TIP3    H262583   6.377   3.287   1.259 -1.3616 -3.9957  0.5399
13698TIP3   OH262584   6.164   5.140  16.791  0.4543  0.2395 -0.0475
13698TIP3    H162585   6.174   5.213  16.730  0.6283 -0.7334 -1.1993
13698TIP3    H262586   6.102   5.080  16.748  2.7386 -1.8376 -0.6461
13699TIP3   OH262587   6.109   5.409   1.175  0.1423 -0.1121 -0.2041
13699TIP3    H162588   6.041   5.364   1.225 -0.6839  0.1299 -1.0790
13699TIP3    H262589   6.112   5.497   1.212 -0.7051  0.1723 -0.7744
13700TIP3   OH262590   0.656   2.236  13.252 -0.9417 -0.1324 -0.4263
13700TIP3    H162591   0.606   2.293  13.193 -0.7803  0.2488 -0.2018
13700TIP3    H262592   0.631   2.147  13.227  0.2891 -0.0415 -2.1262
13701TIP3   OH262593   0.329   2.022   1.880  0.1927  0.3433 -0.0615
13701TIP3    H162594   0.270   1.982   1.943  0.6027  0.9049  0.6850
13701TIP3    H262595   0.276   2.091   1.838 -0.0504  0.0327 -0.2657
13702TIP3   OH262596   4.438   1.638  11.192 -0.1333  0.4164 -0.3994
13702TIP3    H162597   4.478   1.712  11.238 -3.1721  0.4195  2.7033
13702TIP3    H262598   4.379   1.678  11.129 -0.0836  0.6025 -0.3278
13703TIP3   OH262599   1.901   2.677   0.272  0.5157  0.0358 -0.4890
13703TIP3    H162600   1.845   2.704   0.344  0.7356  1.6639 -0.8888
13703TIP3    H262601   1.939   2.594   0.301  0.9728  0.8745  1.5040
13704TIP3   OH262602   3.841   0.157   5.335  0.1876 -0.5918 -0.1346
13704TIP3    H162603   3.907   0.088   5.343  1.6149  0.6902 -0.3586
13704TIP3    H262604   3.886   0.236   5.364 -0.5883  0.6943 -2.2502
13705TIP3   OH262605   5.481   6.351  12.868 -0.9348 -0.2071 -0.8310
13705TIP3    H162606   5.465   6.376  12.777  0.0863  0.7139 -0.7825
13705TIP3    H262607   5.469   6.432  12.917  0.7508 -0.1591 -0.4372
13706TIP3   OH262608   4.191   2.787   4.667 -0.0426  0.0327 -0.0184
13706TIP3    H162609   4.221   2.733   4.594  2.4423  0.6069  0.4902
13706TIP3    H262610   4.216   2.876   4.643  0.9235  0.2208  1.5181
13707TIP3   OH262611   3.751   0.840   1.776 -0.0869 -0.3051  0.2308
13707TIP3    H162612   3.774   0.814   1.865  1.4378  0.2171  0.0223
13707TIP3    H262613   3.656   0.854   1.778 -0.2005 -1.2014  1.5244
13708TIP3   OH262614   4.619   1.663   5.215  0.2679 -0.3838  0.3998
13708TIP3    H162615   4.657   1.735   5.164  1.3237 -2.5960 -2.2252
13708TIP3    H262616   4.613   1.697   5.304  2.2142  2.3690 -0.3807
13709TIP3   OH262617   2.267   5.603   0.478  0.7692  0.2684  0.3161
13709TIP3    H162618   2.293   5.695   0.474  0.5443  0.3363  0.3878
13709TIP3    H262619   2.307   5.570   0.558  0.9134  0.2823  0.2509
13710TIP3   OH262620   0.628   0.564  13.299  0.0781  0.1892 -0.2508
13710TIP3    H162621   0.536   0.585  13.316  0.6279  1.5601  1.2224
13710TIP3    H262622   0.651   0.617  13.223  0.0833  1.0785  0.3660
13711TIP3   OH262623   3.665   2.884   3.835 -0.6760 -0.2805 -0.5457
13711TIP3    H162624   3.731   2.837   3.886 -0.7119 -0.9949 -1.1408
13711TIP3    H262625   3.613   2.815   3.793 -0.5785  0.2863 -1.6320
13712TIP3   OH262626   2.890   6.132  15.653  0.2664 -0.3184 -0.1698
13712TIP3    H162627   2.838   6.196  15.605 -0.2783  1.3003  2.3941
13712TIP3    H262628   2.924   6.074  15.586 -2.6010  0.1786 -2.2374
13713TIP3   OH262629   0.488   0.129   3.289  0.1839 -1.0366 -0.0049
13713TIP3    H162630   0.512   0.051   3.237  0.4769 -0.3392 -0.9515
13713TIP3    H262631   0.404   0.156   3.252  0.8963  0.0828 -0.8694
13714TIP3   OH262632   2.239   4.643   3.830 -0.0811  0.2293  0.2366
13714TIP3    H162633   2.156   4.618   3.871  0.5956 -0.7064  1.1018
13714TIP3    H262634   2.214   4.700   3.758 -1.5085 -0.4392  0.1649
13715TIP3   OH262635   5.917   5.801  16.404 -0.5710 -0.0874 -0.0170
13715TIP3    H162636   5.885   5.736  16.466 -0.7712  0.3160  0.3098
13715TIP3    H262637   5.968   5.862  16.457 -1.5497  0.8083 -0.0693
13716TIP3   OH262638   4.023   5.038  13.045 -0.5351  0.0782 -0.2705
13716TIP3    H162639   4.104   4.999  13.013  1.0723  3.1159 -0.3148
13716TIP3    H262640   3.989   4.975  13.108  0.7599 -2.1923 -1.7099
13717TIP3   OH262641   3.194   5.733  16.558  0.0602  0.0609  0.1077
13717TIP3    H162642   3.177   5.669  16.489  1.3811  0.8372 -0.9954
13717TIP3    H262643   3.230   5.681  16.630  0.0194 -0.5969 -0.3301
13718TIP3   OH262644   4.557   3.944  14.401  0.5225  0.3831  0.0324
13718TIP3    H162645   4.588   3.945  14.492 -0.8077  3.2085  0.5564
13718TIP3    H262646   4.622   3.997  14.354  0.6500 -0.2118 -0.4678
13719TIP3   OH262647   2.951   2.462   5.519  0.2752  0.5793 -0.2411
13719TIP3    H162648   2.992   2.417   5.592 -1.4951 -1.5009 -0.4182
13719TIP3    H262649   2.906   2.536   5.559  0.5134  0.2991  0.5671
13720TIP3   OH262650   1.064   3.787   5.318 -0.1939  0.6247  0.4864
13720TIP3    H162651   1.152   3.788   5.280 -0.3170  1.6281  0.1970
13720TIP3    H262652   1.015   3.727   5.262  0.3129  0.0094  0.6858
13721TIP3   OH262653   0.494   2.756   0.221 -0.4012 -0.4929 -0.4019
13721TIP3    H162654   0.553   2.828   0.245 -0.8167 -0.9224  2.1454
13721TIP3    H262655   0.407   2.788   0.244 -0.6537 -1.5574  0.2060
13722TIP3   OH262656   2.909   4.827  16.072  0.0815 -0.6321  0.6638
13722TIP3    H162657   2.999   4.817  16.103 -0.0636 -1.2509  0.8788
13722TIP3    H262658   2.859   4.851  16.150 -0.0908 -1.1298  0.7083
13723TIP3   OH262659   5.051   6.322   6.387  0.1492 -0.2737  0.4090
13723TIP3    H162660   5.087   6.281   6.309 -0.0312 -1.9758  1.1867
13723TIP3    H262661   5.049   6.252   6.453 -0.5271  0.8863  1.6769
13724TIP3   OH262662   6.683   4.568  13.420  0.3082 -0.5311  0.1410
13724TIP3    H162663   6.690   4.494  13.481 -0.0853 -1.5500 -1.0041
13724TIP3    H262664   6.592   4.566  13.390  0.8606 -1.0717 -1.6635
13725TIP3   OH262665   6.671   0.445   1.044  0.8308  0.4483 -0.3411
13725TIP3    H162666   6.650   0.397   0.964  3.3809 -1.7044  0.1048
13725TIP3    H262667   6.587   0.462   1.085 -0.3468 -1.6911 -1.6881
13726TIP3   OH262668   2.040   1.139  13.447  0.4888  0.2098  0.2919
13726TIP3    H162669   1.998   1.058  13.417 -0.1737  0.2498  1.0677
13726TIP3    H262670   2.029   1.137  13.542  0.9630  0.9430  0.3671
13727TIP3   OH262671   5.524   2.974   4.669 -0.4297  0.6630 -0.3997
13727TIP3    H162672   5.571   2.995   4.750  0.1708 -0.0148 -0.5647
13727TIP3    H262673   5.568   3.026   4.602  1.4668 -1.4632 -0.9213
13728TIP3   OH262674   1.327   5.016   4.012  0.3193 -0.2165 -0.5656
13728TIP3    H162675   1.289   5.042   4.096 -1.3627 -0.9821 -1.0327
13728TIP3    H262676   1.405   4.966   4.035 -0.0130 -0.2499  0.5380
13729TIP3   OH262677   4.401   3.545   3.075  0.6666 -0.9142 -1.0145
13729TIP3    H162678   4.395   3.597   3.155  0.0425 -1.6854 -0.5438
13729TIP3    H262679   4.367   3.602   3.006 -1.9556 -1.3548 -0.1823
13730TIP3   OH262680   5.172   2.953   6.015 -0.1736  0.0124  0.3262
13730TIP3    H162681   5.171   3.033   6.068 -0.8781  0.7199 -0.7246
13730TIP3    H262682   5.211   2.887   6.073  1.0523  1.2543  0.9941
13731TIP3   OH262683   4.559   6.027   5.622 -0.4225 -0.4426  0.1587
13731TIP3    H162684   4.636   6.061   5.577 -0.3936  1.1620  1.3393
13731TIP3    H262685   4.587   6.015   5.712 -1.6813  0.7861  0.7600
13732TIP3   OH262686   6.260   0.349  12.649  0.4079  0.0121  0.4674
13732TIP3    H162687   6.265   0.292  12.572  1.3650  1.2975 -0.4673
13732TIP3    H262688   6.349   0.350  12.685  0.5163  1.1907  0.2299
13733TIP3   OH262689   6.025   5.043  14.270  0.0312 -0.4837  0.3736
13733TIP3    H162690   6.095   4.982  14.292  0.4058  0.1110  0.8483
13733TIP3    H262691   5.995   5.014  14.184  1.3138 -0.3350 -0.1495
13734TIP3   OH262692   2.892   0.699  14.135  0.1264 -0.0051  0.3830
13734TIP3    H162693   2.968   0.656  14.174 -0.5280 -1.0041  0.6102
13734TIP3    H262694   2.928   0.765  14.076  1.1684 -0.9960 -0.1161
13735TIP3   OH262695   0.142   3.609  16.018 -0.1282  0.1448 -0.1836
13735TIP3    H162696   0.198   3.533  16.004 -0.0025  0.1832  0.0980
13735TIP3    H262697   0.118   3.605  16.111  1.0278  1.2173  0.1865
13736TIP3   OH262698   2.199   5.480   4.229  0.2861 -0.2078 -0.3174
13736TIP3    H162699   2.238   5.395   4.208 -1.9430 -1.0398 -1.4062
13736TIP3    H262700   2.172   5.516   4.144 -0.1154  0.9312  0.2682
13737TIP3   OH262701   4.305   3.650   0.688  0.7013  0.0435 -0.4124
13737TIP3    H162702   4.362   3.605   0.626  1.5843  0.1961  0.2765
13737TIP3    H262703   4.217   3.637   0.653  1.1789  0.0923 -1.6694
13738TIP3   OH262704   4.125   4.687   5.078 -0.0680 -0.3478  0.4724
13738TIP3    H162705   4.128   4.599   5.114  1.6986  0.5725  2.8296
13738TIP3    H262706   4.053   4.729   5.125  0.3937  0.0362  0.8421
13739TIP3   OH262707   0.847   4.231  12.777  0.1418 -0.6835  0.2312
13739TIP3    H162708   0.862   4.179  12.855 -1.5289 -2.2832 -0.4572
13739TIP3    H262709   0.931   4.275  12.761  1.7721 -3.3983  0.6822
13740TIP3   OH262710   6.494   1.659  15.413  0.2280  0.3158  0.2040
13740TIP3    H162711   6.454   1.616  15.489 -0.3014  0.3950 -0.0282
13740TIP3    H262712   6.438   1.633  15.340 -0.9267  2.4951  0.2362
13741TIP3   OH262713   4.928   1.948   2.758  0.5730 -0.0304  0.2401
13741TIP3    H162714   5.010   1.957   2.807  0.2741 -1.3231  1.0151
13741TIP3    H262715   4.865   2.001   2.806  0.8395  0.5960 -0.0960
13742TIP3   OH262716   4.741   6.589   0.066  0.2379  0.4423  0.2594
13742TIP3    H162717   4.647   6.608   0.075  0.0899 -0.3584  0.5208
13742TIP3    H262718   4.784   6.672   0.084 -0.3978  0.6581  0.8382
13743TIP3   OH262719   4.514   4.800  13.229  0.0770  0.0731  0.1038
13743TIP3    H162720   4.427   4.839  13.228 -0.0970 -0.3127 -1.0213
13743TIP3    H262721   4.503   4.715  13.187  0.8324 -0.3551  0.7396
13744TIP3   OH262722   6.442   1.576   2.792  0.0369  0.0719  0.1237
13744TIP3    H162723   6.512   1.519   2.762 -1.4823 -1.9199  0.1831
13744TIP3    H262724   6.400   1.607   2.712 -1.0605 -1.4379  0.0792
13745TIP3   OH262725   6.746   3.472   0.336  0.5062  0.2871  0.3228
13745TIP3    H162726   6.661   3.457   0.377  0.4544 -0.8371 -0.1523
13745TIP3    H262727   6.809   3.459   0.406  0.4075 -1.4240  0.1365
13746TIP3   OH262728   3.291   0.991   3.791  0.8163  0.5160 -0.1432
13746TIP3    H162729   3.245   0.911   3.815 -0.2497  0.6177 -1.7283
13746TIP3    H262730   3.379   0.980   3.829  0.1917 -0.6524  1.0534
13747TIP3   OH262731   0.606   6.007  14.816 -0.1881 -0.1661 -0.1131
13747TIP3    H162732   0.635   5.948  14.747 -1.2357  0.7874 -1.4375
13747TIP3    H262733   0.629   6.094  14.784 -3.7816  0.6127 -1.0232
13748TIP3   OH262734   3.174   2.305   3.772  0.1773 -0.0574  0.0501
13748TIP3    H162735   3.261   2.277   3.743  0.5409  1.5230 -0.4663
13748TIP3    H262736   3.147   2.371   3.708 -2.1808 -1.7294 -0.8007
13749TIP3   OH262737   0.423   5.337  14.745  0.0981 -0.4089 -0.0354
13749TIP3    H162738   0.386   5.424  14.732 -0.3528 -0.7436 -1.0374
13749TIP3    H262739   0.394   5.286  14.670  2.1132 -0.8415 -0.5951
13750TIP3   OH262740   1.068   2.740  15.652 -0.4598  0.2923 -0.4363
13750TIP3    H162741   0.996   2.794  15.683  0.8812  1.1321  1.3681
13750TIP3    H262742   1.108   2.791  15.581 -0.8150  0.4502 -0.5223
13751TIP3   OH262743   2.748   4.393   5.818 -0.3936  0.4851 -0.5449
13751TIP3    H162744   2.790   4.402   5.903 -0.9968 -1.2112 -0.0364
13751TIP3    H262745   2.704   4.477   5.804 -1.1587  0.4350  1.3097
13752TIP3   OH262746   0.076   0.150  17.420 -0.0608  0.0669 -0.6440
13752TIP3    H162747   0.123   0.115  17.344  1.7117  2.1067 -0.6095
13752TIP3    H262748  -0.004   0.186  17.383 -0.5362 -1.3820 -1.0891
13753TIP3   OH262749   5.926   4.048   6.542 -0.0634  0.6634  0.7011
13753TIP3    H162750   6.000   4.078   6.489  0.3007 -1.7985 -0.3155
13753TIP3    H262751   5.928   4.105   6.619  2.3514  1.2518  0.3011
13754TIP3   OH262752   1.830   2.786   2.456  0.2196 -0.4081 -0.0409
13754TIP3    H162753   1.838   2.810   2.549 -0.7308  1.4668 -0.3836
13754TIP3    H262754   1.871   2.859   2.409 -1.3690 -0.1630 -1.1420
13755TIP3   OH262755   1.261   4.270  14.373  0.0161 -0.2889  0.6870
13755TIP3    H162756   1.276   4.348  14.320 -0.7491  1.6073  3.1058
13755TIP3    H262757   1.310   4.201  14.328  0.1842  1.3815 -1.9014
13756TIP3   OH262758   5.099   0.251   1.826 -0.3329  0.0741  0.3969
13756TIP3    H162759   5.084   0.204   1.744 -0.3510  1.1678 -0.2418
13756TIP3    H262760   5.019   0.300   1.841 -0.1313  0.2815  0.8034
13757TIP3   OH262761   4.910   2.746  15.025 -0.4752  0.0946  0.2846
13757TIP3    H162762   4.980   2.692  14.987 -1.3564  0.4309 -1.9584
13757TIP3    H262763   4.913   2.726  15.119  1.2389 -1.4764 -0.0368
13758TIP3   OH262764   4.520   5.596  16.374 -0.2534 -0.2928 -0.4529
13758TIP3    H162765   4.451   5.662  16.387 -0.3249 -0.1961 -1.2696
13758TIP3    H262766   4.594   5.646  16.338  0.2119 -0.4146  0.3175
13759TIP3   OH262767   0.947   1.277  15.223 -0.4395 -0.1234  0.4368
13759TIP3    H162768   0.997   1.260  15.303  0.3968  0.4765  0.0610
13759TIP3    H262769   1.005   1.249  15.152 -1.2620 -0.8673  0.0324
13760TIP3   OH262770   4.892   6.480  10.481 -0.0113 -0.6257 -0.2733
13760TIP3    H162771   4.864   6.498  10.571  1.8786 -0.8497  0.3826
13760TIP3    H262772   4.863   6.557  10.432  0.8070  0.5029  0.9471
13761TIP3   OH262773   5.701   5.537  12.223 -0.1658 -0.4220  0.6751
13761TIP3    H162774   5.774   5.588  12.190  0.5438 -1.6491  0.2621
13761TIP3    H262775   5.708   5.543  12.319 -0.3798  0.6131  0.6320
13762TIP3   OH262776   6.724   4.184  12.304  0.3597  0.1836 -0.2923
13762TIP3    H162777   6.800   4.228  12.267  1.2374 -1.9347 -1.1740
13762TIP3    H262778   6.758   4.134  12.378  0.0498 -1.4439 -1.1920
13763TIP3   OH262779   5.796   1.893  16.758 -0.5701 -0.0604  0.1882
13763TIP3    H162780   5.883   1.857  16.773 -0.6357 -0.0785  0.5315
13763TIP3    H262781   5.797   1.978  16.802 -0.3807  0.4172 -0.7141
13764TIP3   OH262782   3.175   1.276   6.286 -0.4761 -0.3497 -0.3762
13764TIP3    H162783   3.226   1.357   6.285 -1.0915  0.0488  0.0647
13764TIP3    H262784   3.236   1.210   6.255  0.4279  0.0558  0.4617
13765TIP3   OH262785   5.149   1.224  11.559 -0.7008 -0.2803 -0.1572
13765TIP3    H162786   5.068   1.263  11.526 -0.7826  0.6228  1.0633
13765TIP3    H262787   5.155   1.254  11.650 -0.7985 -3.1483  0.9074
13766TIP3   OH262788   3.872   1.802  16.080 -0.0081 -0.5762  0.0676
13766TIP3    H162789   3.928   1.803  16.002  0.3954 -1.7238  0.3141
13766TIP3    H262790   3.796   1.854  16.056  1.2762  1.2683 -0.1882
13767TIP3   OH262791   4.351   6.341   4.758  0.0881 -0.4230 -0.7359
13767TIP3    H162792   4.443   6.346   4.782  0.0907 -0.2504 -0.7794
13767TIP3    H262793   4.304   6.339   4.841  0.0635  0.7765 -0.7140
13768TIP3   OH262794   4.828   3.486  16.421  0.3135  0.1295  0.6765
13768TIP3    H162795   4.882   3.556  16.457  0.0511  1.2916 -1.0547
13768TIP3    H262796   4.742   3.526  16.408  0.2729 -0.3686 -0.7240
13769TIP3   OH262797   0.828   3.776  13.733  0.6235 -0.1657 -0.4838
13769TIP3    H162798   0.902   3.715  13.741 -0.1895 -1.0267  0.8318
13769TIP3    H262799   0.751   3.719  13.726 -0.0250  0.7207 -0.6659
13770TIP3   OH262800   4.869   4.039  16.150 -0.2295 -0.2645  0.6293
13770TIP3    H162801   4.882   4.004  16.239  1.3487  0.6887  0.8036
13770TIP3    H262802   4.775   4.050  16.143 -0.3218  0.7673  2.6496
13771TIP3   OH262803   3.586   0.292   1.700 -0.0932  0.0947  0.2337
13771TIP3    H162804   3.508   0.303   1.647 -0.4665  3.6624  1.2819
13771TIP3    H262805   3.659   0.304   1.639 -0.4648  0.9571 -0.0522
13772TIP3   OH262806   6.218   3.496   3.170 -0.3081 -0.0123 -0.1030
13772TIP3    H162807   6.157   3.464   3.104 -1.1732  1.3112  0.0005
13772TIP3    H262808   6.291   3.435   3.167 -1.6056 -1.6385 -0.2613
13773TIP3   OH262809   0.940   0.587   1.963 -0.1165 -0.3555  0.6132
13773TIP3    H162810   0.980   0.665   1.924 -1.4086  0.2355  0.4385
13773TIP3    H262811   0.862   0.619   2.007  0.2328 -1.3117  2.0240
13774TIP3   OH262812   1.834   5.931   2.185  0.2964 -0.3136  0.3761
13774TIP3    H162813   1.763   5.984   2.151 -1.1853 -2.3472  0.1025
13774TIP3    H262814   1.798   5.889   2.263 -0.0567 -3.8060 -1.4437
13775TIP3   OH262815   2.591   2.594   2.252  0.5910 -0.3598 -0.2465
13775TIP3    H162816   2.506   2.601   2.208  0.5353  2.6580  0.1259
13775TIP3    H262817   2.571   2.548   2.334 -1.1131  1.7063  0.6079
13776TIP3   OH262818   4.741   0.765   1.988  0.6964 -0.0755 -0.0262
13776TIP3    H162819   4.743   0.686   1.934 -0.0915  0.5249 -0.9827
13776TIP3    H262820   4.805   0.823   1.947  2.4807 -0.7722  1.6373
13777TIP3   OH262821   3.708   1.161   0.051 -0.4170  0.0957  0.0710
13777TIP3    H162822   3.775   1.110   0.095  0.2895  1.3900  0.5508
13777TIP3    H262823   3.750   1.190  -0.031 -0.2703  1.1361  0.4984
13778TIP3   OH262824   2.536   1.188   3.784 -0.2142 -0.0660 -0.6430
13778TIP3    H162825   2.478   1.221   3.853 -0.7538  0.0663 -1.1590
13778TIP3    H262826   2.607   1.252   3.782  1.2737 -1.4846  1.6623
13779TIP3   OH262827   2.755   5.733   4.087  0.0464 -0.8161 -0.1180
13779TIP3    H162828   2.797   5.818   4.077  0.0936 -0.9341 -0.9646
13779TIP3    H262829   2.742   5.724   4.181  1.0563 -0.3580  0.0821
13780TIP3   OH262830   3.018   1.624  13.812  0.1444 -0.6015 -0.1311
13780TIP3    H162831   3.042   1.682  13.884  0.0226 -0.2581 -0.3685
13780TIP3    H262832   3.082   1.643  13.744 -0.6608  0.1660 -0.6906
13781TIP3   OH262833   6.122   4.185  15.168 -0.0308  0.1049 -0.0893
13781TIP3    H162834   6.084   4.186  15.256 -0.2379  1.6017 -0.1686
13781TIP3    H262835   6.048   4.203  15.110  0.2425 -0.1061 -0.5066
13782TIP3   OH262836   6.239   1.523   5.711  0.8754 -0.5279  0.0207
13782TIP3    H162837   6.257   1.429   5.717  0.5378 -0.5100  2.0832
13782TIP3    H262838   6.223   1.550   5.801 -0.3000  1.2753 -0.6777
13783TIP3   OH262839   1.278   4.881   5.176  0.7500 -0.3865 -0.1433
13783TIP3    H162840   1.267   4.959   5.230  1.8849 -1.0099  1.0074
13783TIP3    H262841   1.204   4.825   5.199 -0.1245  0.3405 -1.0431
13784TIP3   OH262842   4.741   1.553  13.867 -0.2031  0.0694 -0.1527
13784TIP3    H162843   4.815   1.519  13.917  0.0291  1.6828  0.6704
13784TIP3    H262844   4.734   1.495  13.791  2.2103  0.1604 -0.5147
13785TIP3   OH262845   1.705   1.202  11.756  0.1642 -0.0180  0.3062
13785TIP3    H162846   1.704   1.249  11.673 -0.6347 -1.8660 -0.7823
13785TIP3    H262847   1.717   1.110  11.732  0.5923 -0.5271  2.2846
13786TIP3   OH262848   2.471   0.160   0.009 -0.4596 -0.1548 -0.4939
13786TIP3    H162849   2.453   0.254   0.006  0.4350  0.0595  0.3637
13786TIP3    H262850   2.386   0.119  -0.005 -1.1838  0.8001  0.8289
13787TIP3   OH262851   3.839   6.363   1.923  0.6235 -0.3721 -0.4109
13787TIP3    H162852   3.895   6.429   1.883 -0.7198  0.4066 -1.0816
13787TIP3    H262853   3.823   6.299   1.853 -1.8158  1.0484 -1.2717
13788TIP3   OH262854   2.758   5.726   4.379  0.2740  0.3403  0.0108
13788TIP3    H162855   2.744   5.632   4.384 -1.3056  0.6001  1.7326
13788TIP3    H262856   2.669   5.763   4.379  0.7884  1.8004 -2.5444
13789TIP3   OH262857   2.928   1.623   1.762 -0.2385 -0.1354  0.3088
13789TIP3    H162858   2.973   1.548   1.801 -0.5905 -0.2254  0.5433
13789TIP3    H262859   2.920   1.601   1.669  1.0201  0.2804  0.0733
13790TIP3   OH262860   0.652   6.019  11.722 -0.1415  0.5649  0.0510
13790TIP3    H162861   0.559   5.998  11.720  0.1338 -0.7877  0.5897
13790TIP3    H262862   0.673   6.031  11.815  0.9612 -2.9271  0.3930
13791TIP3   OH262863   6.143   0.836  12.151 -0.0944 -0.1593  0.1882
13791TIP3    H162864   6.121   0.743  12.139 -2.6249  0.6812 -3.4587
13791TIP3    H262865   6.074   0.870  12.208 -0.9117 -0.0121 -0.8577
13792TIP3   OH262866   3.347   3.479   1.759  0.7665  0.0960 -0.2616
13792TIP3    H162867   3.414   3.538   1.723  0.7984  0.1512 -0.1135
13792TIP3    H262868   3.271   3.492   1.702  0.3148  1.3105  0.5840
13793TIP3   OH262869   4.257   5.158   6.438  0.7293 -0.1518  0.1155
13793TIP3    H162870   4.268   5.222   6.367 -0.1759  0.6501  0.6545
13793TIP3    H262871   4.290   5.203   6.516 -0.9886  0.1616  0.7183
13794TIP3   OH262872   0.757   3.771   0.458  0.2946  0.2012  0.0260
13794TIP3    H162873   0.756   3.687   0.413  0.9158 -1.0667  2.2197
13794TIP3    H262874   0.801   3.830   0.397  0.4932 -1.2322 -1.2878
13795TIP3   OH262875   3.793   0.295  16.703  0.6562 -0.2641  0.2102
13795TIP3    H162876   3.762   0.261  16.787  1.6265 -3.6172 -0.6268
13795TIP3    H262877   3.721   0.279  16.642 -0.1687  2.4450  0.3495
13796TIP3   OH262878   5.103   4.913  12.304  0.0799 -0.6252 -0.4675
13796TIP3    H162879   5.122   5.007  12.313  0.6655 -0.7777 -0.0991
13796TIP3    H262880   5.147   4.888  12.223  0.1803 -0.6518 -0.4043
13797TIP3   OH262881   1.927   5.785  11.711 -0.5618  0.2839  0.0169
13797TIP3    H162882   1.938   5.854  11.646 -3.2836  0.4991 -0.3005
13797TIP3    H262883   1.986   5.809  11.782  0.7099  1.3113 -1.3263
13798TIP3   OH262884   2.084   3.779  15.946  0.1226  0.1465 -0.3036
13798TIP3    H162885   2.124   3.727  16.017 -0.6189  0.2333  0.1842
13798TIP3    H262886   1.994   3.793  15.974  0.0086  0.7674 -0.9561
13799TIP3   OH262887   1.873   0.483   1.087 -0.3014 -0.4564 -0.8801
13799TIP3    H162888   1.884   0.431   1.167 -0.1213 -0.2814 -0.7905
13799TIP3    H262889   1.812   0.553   1.112 -0.5186 -0.6042 -0.9918
13800TIP3   OH262890   4.865   4.395   5.083 -0.1858  0.0599 -0.0021
13800TIP3    H162891   4.819   4.478   5.097 -0.8923 -0.0604 -1.4178
13800TIP3    H262892   4.811   4.330   5.130 -0.1115  0.2673  0.3736
13801TIP3   OH262893   1.914   1.882  15.235 -0.3853  0.2087  0.2922
13801TIP3    H162894   1.838   1.824  15.230 -1.0666  1.1606 -1.0696
13801TIP3    H262895   1.964   1.863  15.155  1.0611 -0.6928  1.3636
13802TIP3   OH262896   2.892   6.593  12.670 -0.5968  0.2833 -0.1035
13802TIP3    H162897   2.961   6.658  12.678  0.1700 -0.6011  0.6852
13802TIP3    H262898   2.911   6.548  12.588 -0.3251  0.1591  0.0251
13803TIP3   OH262899   3.670   4.211   3.549  0.2285 -0.6907 -0.4249
13803TIP3    H162900   3.634   4.279   3.606  1.2830  1.1593 -1.8461
13803TIP3    H262901   3.594   4.158   3.525 -0.4432 -0.7576  1.6294
13804TIP3   OH262902   2.984   6.114  12.917 -0.4974  0.2739  0.3542
13804TIP3    H162903   2.963   6.206  12.906  0.3620  0.4121 -0.2568
13804TIP3    H262904   3.072   6.105  12.880 -0.7885 -0.8962 -0.1053
13805TIP3   OH262905   4.433   5.057  13.372 -0.2584  0.1860 -0.5108
13805TIP3    H162906   4.500   5.068  13.306 -2.1168  0.6987 -2.4294
13805TIP3    H262907   4.376   4.988  13.338 -0.3553 -0.7262  1.3845
13806TIP3   OH262908   3.779   3.686   1.855 -0.3354  0.5413  0.1878
13806TIP3    H162909   3.856   3.631   1.845 -0.9947 -0.1787 -1.3399
13806TIP3    H262910   3.710   3.638   1.810 -1.6025  1.3349  1.2206
13807TIP3   OH262911   3.458   1.412  11.672 -0.1716  0.1749  0.0438
13807TIP3    H162912   3.365   1.430  11.684  0.1212  1.6128  0.3228
13807TIP3    H262913   3.463   1.358  11.593 -1.1215  1.4088 -0.8907
13808TIP3   OH262914   0.280   4.982  15.338 -0.2340 -0.0374  0.7331
13808TIP3    H162915   0.339   4.912  15.363 -1.4706 -2.2528 -1.9917
13808TIP3    H262916   0.328   5.033  15.272 -0.2195  0.1714  0.9028
13809TIP3   OH262917   5.327   2.185  13.050  0.5677 -0.5231 -0.1617
13809TIP3    H162918   5.419   2.209  13.061  0.2034  0.6278  0.5592
13809TIP3    H262919   5.322   2.095  13.082  1.1934 -0.1248  1.1364
13810TIP3   OH262920   5.656   6.145   3.096 -0.5428  0.0736  0.1565
13810TIP3    H162921   5.604   6.225   3.104 -0.3500  0.3400 -0.9794
13810TIP3    H262922   5.744   6.171   3.123 -0.3883  0.3760 -0.5898
13811TIP3   OH262923   1.899   4.155  11.442 -0.0425  0.1704 -0.1096
13811TIP3    H162924   1.986   4.117  11.454 -1.0496 -2.0701  0.7399
13811TIP3    H262925   1.856   4.097  11.379 -1.2320  0.6798  0.2078
13812TIP3   OH262926   3.770   3.630   4.489 -0.0245 -0.4331 -0.0311
13812TIP3    H162927   3.823   3.604   4.413 -0.3075  0.5719 -0.5814
13812TIP3    H262928   3.834   3.646   4.559  0.3774  0.3462 -0.5646
13813TIP3   OH262929   2.018   0.165   2.385  0.0830 -0.4885 -0.1651
13813TIP3    H162930   2.038   0.191   2.475 -0.5947 -0.1199 -0.1201
13813TIP3    H262931   1.975   0.080   2.393 -1.2892  0.1909 -0.0208
13814TIP3   OH262932   0.493   4.828   3.734  0.3153  0.5546 -0.2883
13814TIP3    H162933   0.517   4.764   3.667 -1.1802 -0.6744  0.2998
13814TIP3    H262934   0.450   4.777   3.802 -1.6197  2.2469 -0.1443
13815TIP3   OH262935   1.214   0.252  13.921 -0.0328  0.0444 -0.2364
13815TIP3    H162936   1.183   0.206  13.842  1.3772  0.4217 -1.0533
13815TIP3    H262937   1.309   0.257  13.909 -0.0790  3.0596 -0.1491
13816TIP3   OH262938   0.180   0.504  16.167 -0.1092  0.4360  0.2177
13816TIP3    H162939   0.182   0.425  16.221 -3.0822  0.1562  0.0924
13816TIP3    H262940   0.202   0.474  16.079 -1.0832 -0.2710  0.1973
13817TIP3   OH262941   3.695   5.915  16.214  0.1412  0.8944 -0.1570
13817TIP3    H162942   3.741   5.839  16.248 -2.1223 -0.8987 -0.8831
13817TIP3    H262943   3.652   5.885  16.134 -1.9400  2.4955  0.2471
13818TIP3   OH262944   5.481   2.460  11.117 -0.5961 -0.4896  0.1011
13818TIP3    H162945   5.563   2.417  11.092 -0.3510 -0.3629  0.6750
13818TIP3    H262946   5.413   2.396  11.095 -0.4438 -0.1818 -1.3696
13819TIP3   OH262947   3.035   2.867  13.049  0.4645  0.2777 -0.3216
13819TIP3    H162948   3.063   2.922  12.976 -0.3911 -1.2618 -1.8944
13819TIP3    H262949   3.082   2.784  13.037  1.3171  0.4127  1.6743
13820TIP3   OH262950   1.493   6.444   1.412  0.0905 -0.2034 -0.2548
13820TIP3    H162951   1.469   6.366   1.462  1.2175 -0.3848  0.0337
13820TIP3    H262952   1.413   6.496   1.407 -0.0994 -0.2811  1.5743
13821TIP3   OH262953   2.798   4.602  15.953 -0.1830  0.3345  0.0635
13821TIP3    H162954   2.749   4.643  15.881 -0.9192 -0.0449  0.3399
13821TIP3    H262955   2.834   4.676  16.002 -1.9080  0.7030  0.8457
13822TIP3   OH262956   6.281   1.320   5.185 -0.3568  0.3398 -0.0242
13822TIP3    H162957   6.216   1.380   5.148  0.4184  1.6561  0.6667
13822TIP3    H262958   6.276   1.335   5.280 -0.8035 -1.4000  0.2743
13823TIP3   OH262959   5.577   6.342  14.554  0.9035  0.5199 -0.0336
13823TIP3    H162960   5.666   6.326  14.585  0.5811  1.4671  1.4679
13823TIP3    H262961   5.561   6.435  14.571 -0.4717  0.3051 -0.0007
13824TIP3   OH262962   3.503   5.226   1.269  0.2913 -0.0798  0.3041
13824TIP3    H162963   3.593   5.222   1.239  0.0730  0.6216 -0.4921
13824TIP3    H262964   3.451   5.219   1.189 -0.3528 -0.1285  0.7170
13825TIP3   OH262965   4.976   5.605   2.617 -0.7923  0.3017  0.4097
13825TIP3    H162966   5.051   5.572   2.665 -0.6570  1.1266  0.7792
13825TIP3    H262967   4.919   5.642   2.684 -2.3590 -1.7970  0.3527
13826TIP3   OH262968   3.912   3.637   1.434  0.8349 -0.5133  0.8813
13826TIP3    H162969   3.896   3.581   1.358  1.3868  1.0612 -0.4383
13826TIP3    H262970   3.844   3.611   1.497 -3.2627  1.7028 -2.1119
13827TIP3   OH262971   1.899   2.229  13.077  0.3081  0.2572 -0.0808
13827TIP3    H162972   1.937   2.199  12.995  1.9669  0.4161  0.5981
13827TIP3    H262973   1.829   2.165  13.095  0.5076 -0.2890 -1.1449
13828TIP3   OH262974   2.101   0.881   3.071  0.0329  0.4202 -0.2411
13828TIP3    H162975   2.118   0.861   3.163 -0.0288 -1.0965 -0.5342
13828TIP3    H262976   2.168   0.945   3.048  1.3728 -0.7281  0.3258
13829TIP3   OH262977   4.125   5.232  14.686 -0.1055 -0.1525 -0.4914
13829TIP3    H162978   4.129   5.158  14.747  3.7913  0.0825 -0.2278
13829TIP3    H262979   4.113   5.308  14.743 -0.2293 -0.2390 -0.3993
13830TIP3   OH262980   2.599   2.201  16.303 -1.0229  0.3223 -0.9971
13830TIP3    H162981   2.506   2.180  16.302 -1.2306  0.4374  2.5560
13830TIP3    H262982   2.644   2.118  16.292 -1.5793  0.0732 -1.3746
13831TIP3   OH262983   3.342   3.644   6.461  0.5111 -0.2153 -0.4060
13831TIP3    H162984   3.267   3.602   6.502  0.5707 -0.2544 -0.3358
13831TIP3    H262985   3.306   3.690   6.386  0.1986  0.9203  0.4071
13832TIP3   OH262986   0.690   5.353   2.703 -0.1629  0.1607 -0.7529
13832TIP3    H162987   0.724   5.265   2.718 -0.1450  0.0661 -1.3360
13832TIP3    H262988   0.722   5.376   2.616  0.4012  1.0057 -0.3378
13833TIP3   OH262989   1.976   2.618   1.355  0.5398  0.1883  0.1615
13833TIP3    H162990   2.035   2.621   1.280 -1.1345 -2.7998 -1.4277
13833TIP3    H262991   2.011   2.548   1.410  0.8604  1.3149  1.4452
13834TIP3   OH262992   6.465   4.695  14.449 -0.2945  0.4246 -0.1314
13834TIP3    H162993   6.467   4.783  14.411  0.4094  0.0598 -0.9792
13834TIP3    H262994   6.433   4.640  14.378  1.0845 -0.2793 -0.2439
13835TIP3   OH262995   6.508   4.054  14.024  0.0910 -0.0926 -0.1627
13835TIP3    H162996   6.574   3.989  14.047  0.1528 -1.2533 -3.2115
13835TIP3    H262997   6.516   4.065  13.929  0.1475  4.5088  0.1407
13836TIP3   OH262998   2.939   6.031   4.270 -0.0245  0.5703  0.1757
13836TIP3    H162999   2.955   5.965   4.337 -0.8412  1.6204  1.4547
13836TIP3    H263000   2.944   5.983   4.187  0.5725 -0.8442  0.9936
13837TIP3   OH263001   5.249   1.904   5.547 -0.7480  0.5925  0.2511
13837TIP3    H163002   5.157   1.897   5.524 -0.0737  1.8006 -3.5123
13837TIP3    H263003   5.255   1.986   5.596 -1.2835  3.1333 -3.4712
13838TIP3   OH263004   5.525   0.377  14.929  0.1144  0.0911 -0.0964
13838TIP3    H163005   5.470   0.312  14.971 -0.6510 -0.0075 -1.1894
13838TIP3    H263006   5.492   0.381  14.839  1.5193  0.4628 -0.6211
13839TIP3   OH263007   6.470   0.495   4.124 -0.0551  0.2713  0.3970
13839TIP3    H163008   6.513   0.467   4.205 -2.5733 -0.0565  1.7236
13839TIP3    H263009   6.519   0.451   4.055  1.2393 -0.6781  1.8363
13840TIP3   OH263010   3.774   0.937   6.691 -0.5062  0.1821  0.3600
13840TIP3    H163011   3.714   0.862   6.698  0.3481 -0.6954 -1.2481
13840TIP3    H263012   3.855   0.900   6.655  0.3302  1.6985  0.5863
13841TIP3   OH263013   5.305   6.272  11.979 -0.0109  0.4779  0.1272
13841TIP3    H163014   5.315   6.329  12.056  1.1035  0.1086  0.2699
13841TIP3    H263015   5.227   6.221  11.999  1.6011 -1.3928  2.2362
13842TIP3   OH263016   3.757   3.367   4.994  0.1641 -0.0663 -0.3386
13842TIP3    H163017   3.767   3.444   4.938 -2.7434  1.0805  0.5073
13842TIP3    H263018   3.666   3.339   4.979  0.8583 -2.7782  0.1166
13843TIP3   OH263019   5.759   1.278   1.365  0.0691 -1.0932 -0.3217
13843TIP3    H163020   5.671   1.241   1.360 -0.9753  1.2719 -1.0482
13843TIP3    H263021   5.761   1.345   1.297  1.8032  0.1429  0.8446
13844TIP3   OH263022   3.851   0.925   5.081 -0.0675 -0.4438 -0.2990
13844TIP3    H163023   3.843   0.839   5.041  0.1687 -0.4005 -0.4417
13844TIP3    H263024   3.938   0.926   5.119  0.3819  0.1497 -1.3038
13845TIP3   OH263025   4.732   1.412   5.191  0.2114  0.1314  0.0976
13845TIP3    H163026   4.686   1.382   5.269 -0.3901  0.3537 -0.1696
13845TIP3    H263027   4.705   1.503   5.181 -1.0940 -0.3838 -1.3642
13846TIP3   OH263028   2.897   6.696  15.148 -0.0558  0.4292  0.0366
13846TIP3    H163029   2.893   6.720  15.241 -1.2805  1.3228 -0.2140
13846TIP3    H263030   2.983   6.727  15.119 -0.5069  2.1417  0.3908
13847TIP3   OH263031   5.596   2.484  16.928 -0.1864 -0.1130 -0.8180
13847TIP3    H163032   5.596   2.571  16.969 -0.4669 -0.1417 -0.7557
13847TIP3    H263033   5.583   2.423  17.000 -1.3279 -0.1252 -1.0245
13848TIP3   OH263034   4.811   3.261  14.104  0.0727  0.2001  0.4222
13848TIP3    H163035   4.786   3.177  14.143 -1.3838  0.3399 -0.1552
13848TIP3    H263036   4.893   3.284  14.147 -0.0648 -0.9953  1.3689
13849TIP3   OH263037   4.315   1.455   1.167 -0.1688  0.1353 -0.4496
13849TIP3    H163038   4.263   1.504   1.231  2.1069 -0.6213  2.1666
13849TIP3    H263039   4.385   1.515   1.141  0.3627 -0.3880 -0.2616
13850TIP3   OH263040   1.843   2.637   5.089 -0.0419 -0.3618 -0.2613
13850TIP3    H163041   1.916   2.628   5.150  0.3328 -0.4652 -0.7178
13850TIP3    H263042   1.884   2.660   5.006 -0.6985  1.7468 -0.0425
13851TIP3   OH263043   0.190   1.903   3.558 -0.3656 -0.7887  0.1210
13851TIP3    H163044   0.192   1.937   3.647  0.6948  0.3005 -0.2830
13851TIP3    H263045   0.099   1.911   3.530 -0.0198  3.2683 -0.4563
13852TIP3   OH263046   4.403   2.317   4.176 -0.1795  0.5329 -0.5245
13852TIP3    H163047   4.438   2.236   4.213 -1.4178  0.3460  0.2813
13852TIP3    H263048   4.448   2.326   4.092  0.1801 -0.8439 -0.4977
13853TIP3   OH263049   2.377   5.823   0.836 -0.0473 -0.4522  0.3233
13853TIP3    H163050   2.389   5.751   0.774  0.6817 -0.6063  0.6264
13853TIP3    H263051   2.312   5.790   0.898  1.4222 -1.5082  1.3848
13854TIP3   OH263052   5.098   1.874   0.432 -0.0085 -0.1181  0.1740
13854TIP3    H163053   5.166   1.814   0.464  1.2908  2.2914  2.3098
13854TIP3    H263054   5.147   1.949   0.398 -1.4760  2.1613  2.7015
13855TIP3   OH263055   2.250   1.963   4.741  0.1814  0.1573 -0.2419
13855TIP3    H163056   2.174   1.950   4.684 -0.6251 -1.2838  1.0997
13855TIP3    H263057   2.251   2.057   4.758  0.4956  0.6581 -2.6360
13856TIP3   OH263058   1.519   2.917  13.097  0.9179 -0.1212 -0.3889
13856TIP3    H163059   1.547   2.840  13.049  0.0987 -0.4069 -0.4179
13856TIP3    H263060   1.563   2.910  13.182  0.8302 -0.6285 -0.3876
13857TIP3   OH263061   3.281   6.452  14.283 -0.7287 -0.3352 -0.1425
13857TIP3    H163062   3.198   6.435  14.239  0.4729 -1.9420 -1.9929
13857TIP3    H263063   3.309   6.537  14.249 -2.6267  1.4259  2.3325
13858TIP3   OH263064   2.115   3.855   2.413  0.0408 -0.5875 -0.7069
13858TIP3    H163065   2.066   3.845   2.331 -2.1425 -1.6451  0.6661
13858TIP3    H263066   2.093   3.778   2.464 -0.0420  0.8742  1.5753
13859TIP3   OH263067   1.700   1.645   5.535 -0.3245 -0.5328  0.3457
13859TIP3    H163068   1.683   1.556   5.503 -1.1386 -0.9797  1.9411
13859TIP3    H263069   1.761   1.633   5.607  1.2291  0.4369 -0.7445
13860TIP3   OH263070   5.293   6.323   2.267 -0.1327  0.0309 -0.5387
13860TIP3    H163071   5.249   6.368   2.195  0.3221  1.0935 -0.1711
13860TIP3    H263072   5.362   6.272   2.224  0.3128  0.8686 -0.8520
13861TIP3   OH263073   0.650   4.873  16.212  0.0151  0.6163  0.3418
13861TIP3    H163074   0.671   4.966  16.204 -1.7249  1.0134  0.1774
13861TIP3    H263075   0.702   4.831  16.142 -0.1495  1.6165 -0.3962
13862TIP3   OH263076   0.823   4.002   3.599  0.5231 -0.1352 -0.3208
13862TIP3    H163077   0.885   4.041   3.661  0.0503 -2.2473  1.6174
13862TIP3    H263078   0.784   4.076   3.554  2.9764  1.3618 -0.1622
13863TIP3   OH263079   5.028   4.187  11.483  0.0277  0.5701 -0.8575
13863TIP3    H163080   5.022   4.101  11.525 -1.5859  0.8434 -0.4539
13863TIP3    H263081   5.026   4.249  11.556  2.1673  0.9737 -1.0759
13864TIP3   OH263082   6.579   6.154   0.679 -0.1031 -0.3671 -0.2665
13864TIP3    H163083   6.642   6.186   0.743  0.3121 -1.6617  0.0037
13864TIP3    H263084   6.495   6.188   0.709  0.4426  1.4001 -0.6466
13865TIP3   OH263085   2.989   4.074   2.386 -0.0213  0.1333  0.1383
13865TIP3    H163086   3.061   4.116   2.338  0.0108 -0.3674 -0.2557
13865TIP3    H263087   2.949   4.146   2.436  0.8887  0.3809  0.5343
13866TIP3   OH263088   4.367   1.579   0.064 -0.6073 -0.7185 -0.0226
13866TIP3    H163089   4.400   1.658   0.106 -0.6456 -0.0572 -1.1846
13866TIP3    H263090   4.279   1.567   0.100  0.6150 -2.2569  2.7823
13867TIP3   OH263091   2.240   0.490   2.008  0.4046  0.2483 -0.2861
13867TIP3    H163092   2.194   0.433   1.947  0.0073  0.2046  0.0499
13867TIP3    H263093   2.275   0.560   1.953 -0.8659  0.7940 -0.4470
13868TIP3   OH263094   3.889   2.235  14.519 -0.5407  0.5733  0.2835
13868TIP3    H163095   3.881   2.304  14.585 -1.2778  0.0007  0.8109
13868TIP3    H263096   3.830   2.166  14.549  0.8457 -0.6829  0.2428
13869TIP3   OH263097   4.562   1.087   2.465  0.3557  0.5063  0.0024
13869TIP3    H163098   4.476   1.045   2.463 -0.1008  1.3658  0.8888
13869TIP3    H263099   4.583   1.103   2.373 -0.0722 -0.4179 -0.2671
13870TIP3   OH263100   6.024   0.622  11.476 -0.2862 -0.5856 -0.2061
13870TIP3    H163101   6.100   0.674  11.503  0.2160 -1.4537  0.1101
13870TIP3    H263102   5.992   0.666  11.397 -2.3441  2.5547  2.1169
13871TIP3   OH263103   2.259   4.928  14.483 -0.6202 -0.3538  0.5495
13871TIP3    H163104   2.279   4.976  14.403 -1.3022 -0.6778  0.1763
13871TIP3    H263105   2.335   4.941  14.539 -1.3200  2.3781  1.0299
13872TIP3   OH263106   1.285   3.654   1.056  0.2180 -0.3006  0.1585
13872TIP3    H163107   1.233   3.624   0.982 -0.1688  0.2222  0.2107
13872TIP3    H263108   1.230   3.636   1.132  0.7916 -1.2386  0.3697
13873TIP3   OH263109   5.744   5.423  12.509  1.1158  0.4779 -0.0304
13873TIP3    H163110   5.725   5.329  12.511 -0.5373  0.7965  1.7720
13873TIP3    H263111   5.807   5.436  12.580  1.1387  0.7554 -0.1011
13874TIP3   OH263112   2.436   5.686   3.336  0.3032  0.5405  0.3820
13874TIP3    H163113   2.423   5.723   3.423  1.5853 -0.1530  0.8844
13874TIP3    H263114   2.530   5.668   3.330  0.0113 -0.8810 -0.5471
13875TIP3   OH263115   2.814   6.657   2.138  0.4078 -0.2395 -0.2088
13875TIP3    H163116   2.816   6.618   2.051  0.0168  2.1923 -1.3931
13875TIP3    H263117   2.738   6.618   2.180  0.7774 -1.6763 -0.8048
13876TIP3   OH263118   0.907   3.494  14.880 -0.5155  0.8172 -1.0019
13876TIP3    H163119   0.921   3.455  14.966 -1.2885 -1.0832 -1.6988
13876TIP3    H263120   0.894   3.587  14.899 -1.3853  0.3484  1.0110
13877TIP3   OH263121   6.099   5.755  11.211 -0.4317  0.0694 -0.3910
13877TIP3    H163122   6.163   5.743  11.141 -1.6086 -0.2381 -1.4527
13877TIP3    H263123   6.069   5.845  11.200 -0.7101 -0.0196 -0.3706
13878TIP3   OH263124   4.787   4.284  12.812 -0.4629 -0.1029  0.0038
13878TIP3    H163125   4.705   4.236  12.821 -1.4447  1.6397  0.7491
13878TIP3    H263126   4.777   4.359  12.870  1.3442  0.5908 -0.5248
13879TIP3   OH263127   3.157   6.743   2.813  0.0199  0.8213  0.0966
13879TIP3    H163128   3.105   6.713   2.888  0.3731  1.6579  0.6958
13879TIP3    H263129   3.099   6.803   2.766 -0.7833 -0.9298 -1.2568
13880TIP3   OH263130   4.477   5.271  12.368  0.3352 -0.7439  0.2938
13880TIP3    H163131   4.401   5.244  12.421  1.5785 -1.0968  1.9818
13880TIP3    H263132   4.484   5.365  12.384 -0.0842 -0.5979 -0.3446
13881TIP3   OH263133   2.765   3.141   5.768 -0.0010  0.1939  0.4169
13881TIP3    H163134   2.804   3.069   5.718 -1.6071  0.3704 -1.2192
13881TIP3    H263135   2.761   3.109   5.858  1.6854 -0.7254  0.1942
13882TIP3   OH263136   5.942   3.641   0.081  0.2374 -0.4812 -0.9407
13882TIP3    H163137   5.928   3.729   0.116  0.7375 -0.4857 -0.7167
13882TIP3    H263138   6.027   3.615   0.116 -0.7821 -1.8471  0.6317
13883TIP3   OH263139   1.504   0.105  17.069 -0.4842 -0.5886  1.4412
13883TIP3    H163140   1.444   0.030  17.074 -1.7639  0.2474 -0.2163
13883TIP3    H263141   1.470   0.168  17.132 -1.9596  0.2195 -0.0623
13884TIP3   OH263142   1.787   1.950   5.446  0.0168 -0.4129  0.2073
13884TIP3    H163143   1.864   1.910   5.405 -0.8306 -2.6609  0.6536
13884TIP3    H263144   1.713   1.901   5.411 -1.1115  0.7766  0.8514
13885TIP3   OH263145   1.583   4.847   4.535  0.4464  0.6539  0.7234
13885TIP3    H163146   1.587   4.824   4.628  0.0765 -2.3451  0.1041
13885TIP3    H263147   1.668   4.820   4.500  0.0424  0.3584 -0.0498
13886TIP3   OH263148   1.583   4.283   1.491 -1.0475  0.3895  0.2018
13886TIP3    H163149   1.599   4.214   1.427 -0.6653  0.5766  0.0925
13886TIP3    H263150   1.510   4.332   1.455 -1.9555 -0.5188  0.7406
13887TIP3   OH263151   5.754   3.673  12.680  0.3126 -0.8841  0.4321
13887TIP3    H163152   5.763   3.584  12.716 -0.8054 -1.0542  0.3206
13887TIP3    H263153   5.749   3.660  12.586 -0.2889 -0.7495  0.4416
13888TIP3   OH263154   4.036   1.172  15.065 -0.8713 -0.8573  0.0124
13888TIP3    H163155   4.046   1.261  15.099 -0.3397 -0.9569  0.1199
13888TIP3    H263156   3.966   1.179  15.000  0.4995  0.0528 -1.4279
13889TIP3   OH263157   1.210   1.946   2.124  0.3494 -0.1072  0.3638
13889TIP3    H163158   1.287   1.977   2.075  0.3510  0.9259  0.9908
13889TIP3    H263159   1.136   1.961   2.065  0.6846 -1.8595 -0.5692
13890TIP3   OH263160   0.616   6.709  17.353 -0.0211 -0.1154  0.0151
13890TIP3    H163161   0.644   6.793  17.389  1.3476 -0.5335 -0.0215
13890TIP3    H263162   0.582   6.661  17.428  0.2413  0.0510  0.2397
13891TIP3   OH263163   4.943   2.111   4.018 -0.2919  0.5331  0.0316
13891TIP3    H163164   5.005   2.078   3.953  0.4471  1.0751  0.4348
13891TIP3    H263165   4.945   2.047   4.089 -1.0042  0.0053 -0.4211
13892TIP3   OH263166   0.514   3.621   2.241  0.2475 -0.1826 -0.3364
13892TIP3    H163167   0.422   3.648   2.239  0.6999  1.5718  0.7772
13892TIP3    H263168   0.525   3.568   2.162 -1.5642  0.0557 -0.7914
13893TIP3   OH263169   1.231   1.026   6.085 -0.8244 -0.4295 -0.4718
13893TIP3    H163170   1.141   1.036   6.053 -0.1927 -1.3178 -2.6724
13893TIP3    H263171   1.222   0.971   6.163 -2.3614  1.2577  0.6373
13894TIP3   OH263172   6.355   5.736  14.404 -0.3503  0.2398 -0.8463
13894TIP3    H163173   6.319   5.782  14.480 -1.2615 -2.6023  0.5807
13894TIP3    H263174   6.448   5.758  14.404 -0.4873  0.9045  0.6216
13895TIP3   OH263175   3.518   2.046  15.654 -0.0452  0.2685  0.2714
13895TIP3    H163176   3.439   2.090  15.622  0.8493  0.9351 -1.1328
13895TIP3    H263177   3.500   2.028  15.746 -1.4475  1.2763  0.2275
13896TIP3   OH263178   4.139   2.747   2.809 -0.2366 -0.4971  0.2270
13896TIP3    H163179   4.160   2.783   2.895  0.7480 -0.7937  0.1278
13896TIP3    H263180   4.185   2.663   2.807 -1.7070 -1.3256  0.0937
13897TIP3   OH263181   0.380   1.931  14.056 -0.4900 -0.5125  0.1811
13897TIP3    H163182   0.444   1.948  14.126 -0.6719 -0.7408  0.4042
13897TIP3    H263183   0.382   2.011  14.002 -0.2519 -0.3881  0.3704
13898TIP3   OH263184   4.996   6.205  11.496  0.4203 -0.1410  0.7292
13898TIP3    H163185   5.031   6.119  11.522 -2.3765 -1.2077  1.2596
13898TIP3    H263186   4.969   6.194  11.405  0.5559  0.3918  0.6179
13899TIP3   OH263187   0.744   5.556   5.666  0.2079  0.0409 -0.3926
13899TIP3    H163188   0.663   5.582   5.711 -0.5732 -0.8923 -1.2363
13899TIP3    H263189   0.787   5.495   5.727  0.6942  1.1219  0.3936
13900TIP3   OH263190   3.982   2.630  14.413  0.0350  0.1232 -0.1791
13900TIP3    H163191   3.943   2.558  14.362 -0.8783  0.2643  0.3004
13900TIP3    H263192   3.917   2.649  14.481  0.9023  0.4525  0.5735
13901TIP3   OH263193   3.115   5.776   2.611 -0.9754 -0.2497  0.1088
13901TIP3    H163194   3.149   5.766   2.700 -0.3510 -1.5984 -0.2409
13901TIP3    H263195   3.177   5.726   2.557 -1.0710  0.9553 -1.1488
13902TIP3   OH263196   0.881   4.300   2.595 -0.3422 -0.7217  0.5178
13902TIP3    H163197   0.923   4.386   2.591  0.9153 -1.1371  2.8593
13902TIP3    H263198   0.798   4.316   2.639 -0.1935 -0.6515  0.7792
13903TIP3   OH263199   5.869   0.629   3.623 -0.0241  0.3841  0.3847
13903TIP3    H163200   5.830   0.580   3.695 -1.5482  0.7649 -0.1407
13903TIP3    H263201   5.802   0.628   3.554  1.9588 -1.3041 -1.6651
13904TIP3   OH263202   2.349   1.026   5.199  0.0223  0.4140  0.2198
13904TIP3    H163203   2.339   1.091   5.130 -0.2462 -0.1770 -0.3041
13904TIP3    H263204   2.417   1.062   5.256  1.6082  0.0642 -1.3531
13905TIP3   OH263205   5.056   0.861  12.285  0.2551 -0.6861 -0.1818
13905TIP3    H163206   5.043   0.922  12.358  0.1612 -0.5294 -0.3268
13905TIP3    H263207   5.126   0.803  12.314 -0.4789 -1.2778  0.4520
13906TIP3   OH263208   4.976   4.732  17.110  0.1290  0.1149 -0.2033
13906TIP3    H163209   4.923   4.810  17.129  0.2059 -0.2752  1.7704
13906TIP3    H263210   4.915   4.659  17.122  0.2084 -0.1820 -1.4867
13907TIP3   OH263211   1.953   0.613  11.310 -0.1383 -0.4965  0.1769
13907TIP3    H163212   1.884   0.624  11.376  0.3052  0.3804  0.5133
13907TIP3    H263213   1.969   0.519  11.308 -1.1886 -0.6838  0.2546
13908TIP3   OH263214   2.001   5.791   4.989  0.0746  0.2628 -0.0140
13908TIP3    H163215   1.981   5.702   5.018  0.6043 -0.1471 -0.8487
13908TIP3    H263216   2.096   5.791   4.977  0.6325  1.9634  3.2559
13909TIP3   OH263217   4.107   1.026   0.664 -0.3489 -0.1759  0.5810
13909TIP3    H163218   4.037   1.074   0.708  0.7142  0.8132  1.2550
13909TIP3    H263219   4.175   1.091   0.650  0.4087 -1.1008 -0.1314
13910TIP3   OH263220   5.955   0.819  14.733  0.0893 -0.1559  0.6769
13910TIP3    H163221   5.913   0.903  14.713  0.7495  0.0519  0.0733
13910TIP3    H263222   5.947   0.810  14.828 -2.1664 -0.6120  0.4961
13911TIP3   OH263223   3.673   4.893  14.598  0.3947 -0.4811 -0.5806
13911TIP3    H163224   3.595   4.947  14.611  0.7547  0.0508 -0.5868
13911TIP3    H263225   3.710   4.923  14.514  1.1855  0.0209 -0.0714
13912TIP3   OH263226   3.269   2.353   6.326  0.1821  0.0577 -0.8630
13912TIP3    H163227   3.286   2.438   6.366 -0.0193  0.5336 -1.7871
13912TIP3    H263228   3.314   2.291   6.384 -0.7202  0.6416  0.5415
13913TIP3   OH263229   1.617   3.138   3.353 -0.3584 -0.6686  0.3366
13913TIP3    H163230   1.609   3.178   3.440  0.2575 -0.2862  0.2232
13913TIP3    H263231   1.540   3.170   3.306  0.3171  0.7211  0.1287
13914TIP3   OH263232   4.644   4.316   0.197 -0.2893  0.1640  0.0806
13914TIP3    H163233   4.609   4.324   0.286 -0.5786 -1.2982  0.1140
13914TIP3    H263234   4.739   4.325   0.207 -0.2991 -0.2634  0.5739
13915TIP3   OH263235   4.582   4.450   4.444 -0.2036 -0.2709  0.1717
13915TIP3    H163236   4.530   4.413   4.515  1.0336 -0.4601  1.0284
13915TIP3    H263237   4.667   4.405   4.452  0.4246  0.7656 -0.5152
13916TIP3   OH263238   3.022   2.136  13.351  0.0516  0.4393 -0.6220
13916TIP3    H163239   2.996   2.137  13.259  0.6091 -1.6237 -0.8673
13916TIP3    H263240   2.952   2.087  13.395 -0.4860  1.8668  0.1845
13917TIP3   OH263241   4.615   5.534  14.518  0.3998  0.2456 -0.5037
13917TIP3    H163242   4.588   5.591  14.445 -0.8918  0.3222  0.0032
13917TIP3    H263243   4.588   5.581  14.597  1.3266 -0.0693  0.0154
13918TIP3   OH263244   4.571   5.862   3.856  0.4918  0.0705  0.2314
13918TIP3    H163245   4.554   5.774   3.891  1.6792 -0.4609 -0.4756
13918TIP3    H263246   4.646   5.851   3.798  0.9470  1.6389  0.4748
13919TIP3   OH263247   5.023   5.234   5.652 -0.1452  0.5123 -0.2863
13919TIP3    H163248   4.982   5.319   5.634 -1.1044 -0.3734 -2.6222
13919TIP3    H263249   5.115   5.247   5.627  0.0980  1.2612  0.8734
13920TIP3   OH263250   4.543   6.687  11.182  0.0249 -0.2831 -0.5091
13920TIP3    H163251   4.473   6.705  11.120 -1.8372  0.6405  1.6992
13920TIP3    H263252   4.605   6.759  11.171 -0.7060  0.3193 -0.7159
13921TIP3   OH263253   2.514   1.590   1.384 -0.0057 -0.0491 -0.0416
13921TIP3    H163254   2.533   1.609   1.477 -0.2162  0.2563 -0.0592
13921TIP3    H263255   2.555   1.506   1.368  0.2870  0.0347  0.2545
13922TIP3   OH263256   6.030   0.528  12.117  0.2488 -0.2318  0.0083
13922TIP3    H163257   6.099   0.480  12.163 -0.5292  1.3447  3.1416
13922TIP3    H263258   5.955   0.526  12.178 -0.9957  1.7993 -1.3302
13923TIP3   OH263259   5.251   4.810   0.363 -0.0939 -0.0184 -0.1402
13923TIP3    H163260   5.338   4.835   0.396  0.1931 -0.4216 -0.5722
13923TIP3    H263261   5.263   4.721   0.331 -0.7994 -0.2663  0.2608
13924TIP3   OH263262   2.206   5.065   5.866 -0.3272  0.0085  0.2017
13924TIP3    H163263   2.251   5.059   5.782 -2.0493  0.2793 -0.7694
13924TIP3    H263264   2.168   5.153   5.866  0.0327  0.1820  1.4790
13925TIP3   OH263265   5.919   4.511   4.024  0.6725  0.4145 -0.0837
13925TIP3    H163266   5.882   4.564   3.954  0.7394  0.1453 -0.3214
13925TIP3    H263267   6.013   4.514   4.010  0.7311  0.8988  0.3805
13926TIP3   OH263268   1.737   2.657  14.285 -0.1944 -0.3063 -0.5067
13926TIP3    H163269   1.743   2.601  14.208  0.8055  1.8490 -2.0872
13926TIP3    H263270   1.821   2.703  14.289 -0.7767  0.7310  0.9912
13927TIP3   OH263271   5.331   5.642  14.983  0.1184 -0.1102 -0.4236
13927TIP3    H163272   5.325   5.589  15.062  1.1847 -0.0123 -0.2627
13927TIP3    H263273   5.357   5.579  14.915  4.0857  0.5090  0.2685
13928TIP3   OH263274   4.205   2.616  11.289 -0.7468  0.7833  0.0132
13928TIP3    H163275   4.172   2.583  11.205 -0.8348 -1.1086  0.7368
13928TIP3    H263276   4.300   2.617  11.279 -0.6777 -0.7257  0.2975
13929TIP3   OH263277   0.416   1.766   0.275  0.1191 -0.6128 -0.8604
13929TIP3    H163278   0.444   1.856   0.290 -1.0732 -0.3060 -0.4173
13929TIP3    H263279   0.466   1.715   0.339  0.5916 -0.2365 -0.9231
13930TIP3   OH263280   1.573   4.090  14.482  0.3943 -0.3148  0.0277
13930TIP3    H163281   1.603   4.177  14.454 -2.9221  1.4385  1.2784
13930TIP3    H263282   1.519   4.058  14.410  1.5573 -1.3712 -0.4041
13931TIP3   OH263283   3.978   3.562   5.013 -0.0019  0.0587  0.1193
13931TIP3    H163284   3.909   3.511   5.054 -2.2034  2.2753 -0.6153
13931TIP3    H263285   3.993   3.635   5.072  0.6871  0.3945 -0.4453
13932TIP3   OH263286   3.830   2.203  15.341  0.5702 -0.6727  0.3415
13932TIP3    H163287   3.789   2.240  15.420  0.9452 -0.5202  0.4634
13932TIP3    H263288   3.793   2.254  15.269  0.8512 -0.2711  0.4838
13933TIP3   OH263289   6.273   0.729  11.566 -0.3695  0.1555 -0.1140
13933TIP3    H163290   6.260   0.707  11.658  0.2432 -0.7575 -0.2310
13933TIP3    H263291   6.367   0.746  11.559 -0.3828  0.0275 -0.6097
13934TIP3   OH263292   1.860   5.016  12.911  0.0577  0.5555  0.0142
13934TIP3    H163293   1.941   5.066  12.904  0.0252  0.7060  0.7148
13934TIP3    H263294   1.888   4.928  12.937  0.1465  0.0793 -1.5383
13935TIP3   OH263295   1.599   0.719   0.002 -0.3603 -0.3413  0.1230
13935TIP3    H163296   1.616   0.791   0.063 -0.2508 -0.1615 -0.1145
13935TIP3    H263297   1.537   0.756  -0.061 -1.9029 -1.0811  1.1500
13936TIP3   OH263298   4.126   6.759   4.192  0.1140 -0.3610  0.0193
13936TIP3    H163299   4.105   6.817   4.265 -1.6037 -0.1059 -0.6342
13936TIP3    H263300   4.144   6.818   4.119 -1.2059 -0.6091 -0.5349
13937TIP3   OH263301   0.638   0.744   5.210 -0.0962  0.1253 -0.2334
13937TIP3    H163302   0.680   0.734   5.125  0.4616 -0.0072  0.0583
13937TIP3    H263303   0.570   0.676   5.210 -0.9760  0.9603 -1.0872
13938TIP3   OH263304   6.741   3.710  15.730  0.2158 -0.4950  0.0426
13938TIP3    H163305   6.837   3.717  15.722  0.2728  0.9472  1.5080
13938TIP3    H263306   6.720   3.756  15.811 -1.9455  1.0600 -1.2974
13939TIP3   OH263307   0.662   6.149  15.574 -0.1626  0.2001  0.4464
13939TIP3    H163308   0.746   6.105  15.584  0.5558  1.2499 -0.8050
13939TIP3    H263309   0.597   6.079  15.584  0.9082 -0.9440 -0.3857
13940TIP3   OH263310   6.636   2.531   0.332  0.3151  0.0040 -0.0626
13940TIP3    H163311   6.729   2.535   0.357  0.1789 -0.4724  0.5338
13940TIP3    H263312   6.590   2.571   0.405  0.1473  1.6690 -1.0371
13941TIP3   OH263313   3.988   4.211  13.514  0.5979  0.0355  0.1657
13941TIP3    H163314   3.915   4.182  13.458  0.9032  0.2428 -0.3486
13941TIP3    H263315   3.998   4.304  13.493  0.1735  0.3194  1.1862
13942TIP3   OH263316   4.985   4.570   0.661 -0.1212 -0.2139 -0.3638
13942TIP3    H163317   5.057   4.631   0.648 -0.2659  0.1134  0.3013
13942TIP3    H263318   4.969   4.572   0.756 -0.3746 -1.0016 -0.3808
13943TIP3   OH263319   4.736   6.005   0.044 -0.7512 -0.1258 -0.1865
13943TIP3    H163320   4.758   6.018   0.137  0.7159  1.6145 -0.7322
13943TIP3    H263321   4.641   6.007   0.042 -0.7968  0.3378  1.2261
13944TIP3   OH263322   0.436   1.404  16.700 -0.7259 -0.1485  0.5912
13944TIP3    H163323   0.481   1.464  16.759 -0.5869 -0.7939  1.1618
13944TIP3    H263324   0.506   1.366  16.647 -0.7560 -0.1790  0.5743
13945TIP3   OH263325   0.993   4.046   2.203 -0.2772  0.2694  0.0033
13945TIP3    H163326   0.901   4.032   2.226 -0.0853  0.4773  0.9455
13945TIP3    H263327   1.019   4.122   2.255  0.6164 -0.2239  0.2889
13946TIP3   OH263328   3.830   3.967  11.341 -0.0460  0.7512  0.2213
13946TIP3    H163329   3.749   4.002  11.378  0.9863  1.9587  1.4743
13946TIP3    H263330   3.852   4.027  11.270  0.0044  0.7170  0.2080
13947TIP3   OH263331   1.056   4.582   3.788 -0.3505 -0.4073 -0.4491
13947TIP3    H163332   1.040   4.588   3.882  0.6347 -0.7898 -0.2477
13947TIP3    H263333   1.077   4.671   3.761  0.9113 -0.5574 -0.0035
13948TIP3   OH263334   6.754   5.563  15.075  0.1096  0.1747 -0.0180
13948TIP3    H163335   6.690   5.521  15.132  1.1451  0.9284  1.7772
13948TIP3    H263336   6.801   5.491  15.034  0.6206 -0.4410  1.5784
13949TIP3   OH263337   1.221   1.872  14.509 -0.0877  0.5879  0.3257
13949TIP3    H163338   1.199   1.785  14.477 -0.5810  0.4291  1.0851
13949TIP3    H263339   1.301   1.896  14.462 -1.1065  0.6149 -1.5012
13950TIP3   OH263340   6.296   5.906   2.563 -0.3003 -0.4721 -0.4594
13950TIP3    H163341   6.246   5.846   2.508 -1.0018 -0.7496  0.4475
13950TIP3    H263342   6.386   5.899   2.531 -0.7787 -0.1751 -1.9373
13951TIP3   OH263343   4.856   3.223  16.238 -0.0127  0.1072 -0.2998
13951TIP3    H163344   4.952   3.219  16.245  0.0177  0.5695 -0.4455
13951TIP3    H263345   4.832   3.309  16.273 -0.2569  0.5238 -1.4405
13952TIP3   OH263346   6.141   0.627   1.416  0.3113 -0.2349 -0.1106
13952TIP3    H163347   6.162   0.720   1.405 -1.4415  0.5054  2.0701
13952TIP3    H263348   6.184   0.602   1.497  0.1267 -1.1325 -0.2793
13953TIP3   OH263349   1.730   3.861  15.151  0.9333  0.3439  0.2513
13953TIP3    H163350   1.819   3.826  15.154  0.3293 -1.2851 -0.1517
13953TIP3    H263351   1.694   3.843  15.238  0.1165 -1.5035 -0.4200
13954TIP3   OH263352   5.631   5.674  15.045  0.0246  0.7873 -0.2838
13954TIP3    H163353   5.540   5.696  15.024 -0.0831  0.2821 -0.3590
13954TIP3    H263354   5.646   5.714  15.130 -0.2651  0.8826 -0.2765
13955TIP3   OH263355   1.015   2.220   2.232 -0.2343  0.1496  0.3756
13955TIP3    H163356   1.036   2.312   2.250  1.0128 -0.0337 -0.0114
13955TIP3    H263357   1.066   2.200   2.153 -0.7020 -0.8014  0.3073
13956TIP3   OH263358   2.207   2.783   6.647 -0.3581  0.0999 -0.4691
13956TIP3    H163359   2.119   2.810   6.673  0.7137  0.9681  2.7485
13956TIP3    H263360   2.251   2.865   6.622  0.1855  0.0423  0.2551
13957TIP3   OH263361   0.566   2.312  10.487 -0.0095  0.0095 -0.1598
13957TIP3    H163362   0.480   2.296  10.527 -0.6152  0.7025 -1.1627
13957TIP3    H263363   0.592   2.227  10.453 -0.0564 -0.3172  0.5898
13958TIP3   OH263364   3.103   4.903  13.123 -0.2608 -0.1745  0.4004
13958TIP3    H163365   3.028   4.928  13.069 -0.2474 -1.3287 -0.2018
13958TIP3    H263366   3.075   4.824  13.168 -0.4302  1.0243  2.5080
13959TIP3   OH263367   5.226   2.862  14.301 -0.2818  0.4147  0.1495
13959TIP3    H163368   5.151   2.807  14.326 -1.0891 -0.3060 -3.3825
13959TIP3    H263369   5.201   2.900  14.217  2.2557  2.4254  0.1832
13960TIP3   OH263370   4.241   0.004  15.913  0.2117 -0.2301  0.1109
13960TIP3    H163371   4.295   0.010  15.992  3.2349  1.4690 -1.8329
13960TIP3    H263372   4.282  -0.066  15.861 -0.2892  0.1530 -0.8356
13961TIP3   OH263373   5.057   5.579   3.670  0.2444 -0.4220 -0.0506
13961TIP3    H163374   4.965   5.585   3.644 -0.4253 -0.8100  2.0527
13961TIP3    H263375   5.093   5.508   3.617 -1.2396 -1.6744  0.5560
13962TIP3   OH263376   3.301   2.490  11.699  0.3811 -0.0520  0.3133
13962TIP3    H163377   3.302   2.532  11.613 -1.7303 -0.7678 -0.1284
13962TIP3    H263378   3.283   2.398  11.680 -1.7945  0.0460  1.5279
13963TIP3   OH263379   5.652   3.923  14.768 -0.5163 -0.2925  0.5159
13963TIP3    H163380   5.739   3.883  14.769  0.1398  1.0911  1.0534
13963TIP3    H263381   5.668   4.015  14.746 -1.7325  0.1925  1.5622
13964TIP3   OH263382   6.428   3.410   5.585  0.3526  0.3058  0.3336
13964TIP3    H163383   6.357   3.391   5.646  0.9934 -0.2677  0.9233
13964TIP3    H263384   6.462   3.495   5.613 -0.1584  0.6277 -0.0131
13965TIP3   OH263385   3.636   4.011   5.679  0.2341  0.9281 -0.4053
13965TIP3    H163386   3.635   4.103   5.705 -0.1130  0.5532  1.0283
13965TIP3    H263387   3.685   3.967   5.749 -1.5857 -0.2955  0.1706
13966TIP3   OH263388   4.535   2.251   3.934  0.0072  0.1060  0.8176
13966TIP3    H163389   4.575   2.309   3.869 -0.2810  0.3997  0.9023
13966TIP3    H263390   4.608   2.226   3.991  0.7859 -2.0755 -0.9812
13967TIP3   OH263391   4.310   5.441   0.642  0.2110  0.1050 -0.1000
13967TIP3    H163392   4.401   5.433   0.670  0.6229 -0.0187 -1.3940
13967TIP3    H263393   4.296   5.366   0.583 -0.3352  0.8113 -0.8995
13968TIP3   OH263394   0.113   0.633   2.626 -0.4147 -0.2913 -0.0103
13968TIP3    H163395   0.100   0.630   2.721 -2.1423  0.0188 -0.1981
13968TIP3    H263396   0.086   0.546   2.596 -0.1429 -0.2947 -0.2412
13969TIP3   OH263397   2.702   2.478  14.111  0.4331 -0.2774  0.0393
13969TIP3    H163398   2.694   2.488  14.206  0.7395 -1.4140  0.2033
13969TIP3    H263399   2.649   2.400  14.092  0.2051  0.0685 -0.7554
13970TIP3   OH263400   5.217   4.763   2.148  0.3480 -0.0675  0.3529
13970TIP3    H163401   5.292   4.751   2.206  0.1327  0.0072  0.6457
13970TIP3    H263402   5.145   4.787   2.206  0.4288  1.2741 -0.0649
13971TIP3   OH263403   0.099   4.338   0.229 -0.5401  0.2180  0.4990
13971TIP3    H163404   0.113   4.296   0.144  0.0286  0.7366  0.3325
13971TIP3    H263405   0.014   4.305   0.258 -0.4432 -0.4634  0.0269
13972TIP3   OH263406   3.373   3.340  13.239 -0.5943  0.2529 -0.1848
13972TIP3    H163407   3.297   3.287  13.215  0.8324 -1.3288 -1.5349
13972TIP3    H263408   3.447   3.294  13.199  1.1625  1.3598  1.6174
13973TIP3   OH263409   2.252   1.411   3.898 -0.2823  0.4525  0.0475
13973TIP3    H163410   2.244   1.495   3.944  1.3499  0.6893 -0.0451
13973TIP3    H263411   2.253   1.434   3.805 -0.1111  0.3010  0.0112
13974TIP3   OH263412   4.733   6.507  10.701 -0.0298 -0.1157  0.1961
13974TIP3    H163413   4.698   6.421  10.677 -1.6482  0.5059  0.1724
13974TIP3    H263414   4.725   6.510  10.796 -0.4379  0.1793  0.1560
13975TIP3   OH263415   0.868   3.207  13.508  0.5470 -0.5260  0.1680
13975TIP3    H163416   0.829   3.149  13.442 -1.7181  1.7548 -0.6488
13975TIP3    H263417   0.837   3.173  13.591 -1.1513 -0.2474 -0.3248
13976TIP3   OH263418   2.143   2.217  12.579  0.4175  0.0053 -0.4580
13976TIP3    H163419   2.102   2.172  12.652  2.2378 -0.7022  0.1775
13976TIP3    H263420   2.113   2.169  12.501 -0.7751  0.1798 -0.1291
13977TIP3   OH263421   2.925   4.663   4.076  0.3076 -0.0793 -0.0307
13977TIP3    H163422   2.854   4.599   4.082  0.0294  0.2624  0.3647
13977TIP3    H263423   2.881   4.746   4.055  0.4895  0.3124  1.0686
13978TIP3   OH263424   6.625   0.509   6.105 -0.1587 -0.0750  0.5025
13978TIP3    H163425   6.663   0.589   6.068  0.6957 -0.7525 -0.1164
13978TIP3    H263426   6.626   0.525   6.200 -2.3418  1.6602  0.3319
13979TIP3   OH263427   0.085   0.954  12.143 -0.2564 -0.1959  0.3581
13979TIP3    H163428   0.111   0.868  12.110 -1.3991 -0.1103 -0.8479
13979TIP3    H263429   0.014   0.934  12.204 -1.7474 -0.0389 -1.2553
13980TIP3   OH263430   1.389   0.074   3.862  0.1104 -0.2623 -0.2148
13980TIP3    H163431   1.458   0.015   3.893 -0.8842 -0.5596  1.6175
13980TIP3    H263432   1.408   0.157   3.907 -0.6547 -0.3285  0.2463
13981TIP3   OH263433   5.637   2.922  11.394 -0.3717  0.0522  0.4096
13981TIP3    H163434   5.697   2.914  11.321  0.4058 -0.0198  1.0451
13981TIP3    H263435   5.585   3.000  11.375 -0.0604  0.1265 -0.1253
13982TIP3   OH263436   0.672   0.384   3.190 -0.0297  0.6962 -0.1862
13982TIP3    H163437   0.687   0.466   3.143 -0.6741  0.1567 -1.3559
13982TIP3    H263438   0.596   0.345   3.148  0.0404 -0.3371  0.5959
13983TIP3   OH263439   0.677   0.035  13.801  0.1614  0.1410 -0.1523
13983TIP3    H163440   0.685  -0.027  13.873  0.3874  1.5010  1.0426
13983TIP3    H263441   0.590   0.018  13.764  0.7051 -1.6823 -0.6552
13984TIP3   OH263442   5.216   3.994  15.477 -0.1613 -0.2110  0.1585
13984TIP3    H163443   5.122   3.977  15.467 -0.5466  1.0427  1.2098
13984TIP3    H263444   5.223   4.032  15.565  1.4135 -0.7666  0.3004
13985TIP3   OH263445   5.880   2.419   5.118 -0.3820 -0.0731  0.6123
13985TIP3    H163446   5.941   2.378   5.180 -0.5633  0.3381  1.0642
13985TIP3    H263447   5.927   2.495   5.084 -1.0494  0.9171  1.8256
13986TIP3   OH263448   1.683   5.151   5.065 -0.4581  0.1511  1.1853
13986TIP3    H163449   1.774   5.153   5.035 -1.1243  0.4235 -0.9442
13986TIP3    H263450   1.660   5.243   5.077 -1.5302  0.4043 -1.9691
13987TIP3   OH263451   5.825   5.889  14.027 -0.0748  0.4355  0.0949
13987TIP3    H163452   5.861   5.815  13.978 -0.0352  1.5379 -1.6534
13987TIP3    H263453   5.885   5.961  14.009  0.3186  0.7450  2.4032
13988TIP3   OH263454   3.748   2.649   6.194  0.3612  0.0359 -0.2049
13988TIP3    H163455   3.841   2.634   6.213  0.6180  0.5941 -0.9717
13988TIP3    H263456   3.710   2.673   6.278  1.1519  0.9618 -0.0880
13989TIP3   OH263457   1.164   4.873   4.772 -0.4094 -0.0479 -0.2732
13989TIP3    H163458   1.116   4.892   4.691 -0.2264 -0.6343 -0.5309
13989TIP3    H263459   1.151   4.950   4.827 -1.9800 -0.3502 -0.1827
13990TIP3   OH263460   0.042   0.750  16.265  0.3577  0.0833 -0.3672
13990TIP3    H163461   0.110   0.683  16.252  0.2470 -0.0126 -0.4584
13990TIP3    H263462   0.049   0.774  16.357 -0.0586 -0.5565 -0.1596
13991TIP3   OH263463   3.627   6.425   0.530 -0.0840 -0.2572  0.4404
13991TIP3    H163464   3.562   6.482   0.490  0.6047  1.0301  1.0899
13991TIP3    H263465   3.648   6.467   0.613  1.2057 -0.9085  0.4679
13992TIP3   OH263466   1.759   4.030   0.975 -0.0667  0.2224  0.4842
13992TIP3    H163467   1.666   4.041   0.955 -0.2540  0.6764  1.5373
13992TIP3    H263468   1.804   4.070   0.901 -0.7260  1.8066  0.8897
13993TIP3   OH263469   5.767   1.379   2.044 -0.3762 -0.6159 -0.2685
13993TIP3    H163470   5.688   1.325   2.045 -0.7839 -0.0766 -1.4943
13993TIP3    H263471   5.822   1.341   1.976  0.4745 -1.0355  0.6302
13994TIP3   OH263472   6.530   3.853   5.895 -0.2941  0.2587  0.4804
13994TIP3    H163473   6.436   3.870   5.891 -0.5260 -1.1107 -1.5975
13994TIP3    H263474   6.537   3.774   5.947 -0.3419  0.1582  0.3360
13995TIP3   OH263475   2.744   2.563  17.483 -0.6011  0.4334  0.5074
13995TIP3    H163476   2.793   2.635  17.443 -0.3488 -0.1932 -0.3604
13995TIP3    H263477   2.799   2.486  17.467 -0.3458  0.1929  2.3603
13996TIP3   OH263478   0.644   5.261  14.898  0.5974 -0.3104  0.4947
13996TIP3    H163479   0.575   5.296  14.841 -0.4392 -1.1959  1.1519
13996TIP3    H263480   0.687   5.194  14.846 -0.3696 -1.1409  0.7152
13997TIP3   OH263481   1.452   3.332   5.598  0.3801  0.9640 -0.2352
13997TIP3    H163482   1.470   3.248   5.556 -3.2312  0.4696 -1.1082
13997TIP3    H263483   1.451   3.313   5.691  0.5193  0.2447 -0.3745
13998TIP3   OH263484   3.843   4.951   1.166 -0.7766  0.0703  0.0302
13998TIP3    H163485   3.799   5.036   1.156 -0.1730  0.3778 -0.0467
13998TIP3    H263486   3.780   4.888   1.131 -1.6597  0.3622  1.0205
13999TIP3   OH263487   3.110   2.718  12.288 -0.4761  0.3163 -0.3423
13999TIP3    H163488   3.063   2.635  12.284 -0.5697  0.3317  0.3480
13999TIP3    H263489   3.202   2.693  12.303 -0.8659  0.3446  2.9096
14000TIP3   OH263490   0.491   4.650   1.983 -0.5707  0.1316  0.0086
14000TIP3    H163491   0.534   4.728   2.019 -0.1048  1.4186 -2.9870
14000TIP3    H263492   0.416   4.684   1.935 -1.5447 -1.5083  0.3085
14001TIP3   OH263493   3.754   3.318   4.678 -0.5038 -0.5189 -0.0615
14001TIP3    H163494   3.784   3.314   4.587  0.2738 -0.5722  0.1910
14001TIP3    H263495   3.683   3.383   4.677 -0.8544 -0.9026 -0.7961
14002TIP3   OH263496   2.376   5.500   5.206  0.3394  0.0124  0.3653
14002TIP3    H163497   2.403   5.409   5.211  1.4432  0.1774 -1.4308
14002TIP3    H263498   2.355   5.513   5.113 -0.6565  1.3500  0.7565
14003TIP3   OH263499   0.973   1.097  12.081  0.1145  0.0314 -0.0001
14003TIP3    H163500   0.914   1.044  12.135  1.6933 -1.1781  0.6338
14003TIP3    H263501   0.919   1.168  12.048 -1.6009 -0.8491  0.8083
14004TIP3   OH263502   0.945   2.719  13.469 -0.1654 -0.0790 -0.4171
14004TIP3    H163503   0.890   2.680  13.537  0.8621 -0.0703  0.4497
14004TIP3    H263504   0.922   2.671  13.389 -0.1491 -1.2832  0.2781
14005TIP3   OH263505   4.344   6.186  16.128 -0.0313  0.1124 -0.0672
14005TIP3    H163506   4.333   6.204  16.035 -2.7765 -0.1162  0.1212
14005TIP3    H263507   4.364   6.271  16.167  0.7554  0.2720 -0.7781
14006TIP3   OH263508   1.618   3.811  13.030  0.3675  0.3641  0.3697
14006TIP3    H163509   1.597   3.741  13.092 -1.5226  1.1055  0.6378
14006TIP3    H263510   1.684   3.772  12.972  1.5449 -0.6541  2.2515
14007TIP3   OH263511   3.462   6.739  17.410  0.2055 -0.2366 -0.6462
14007TIP3    H163512   3.492   6.653  17.379 -0.1194  0.0433 -1.7749
14007TIP3    H263513   3.443   6.725  17.503  1.6235 -0.9854 -0.4431
14008TIP3   OH263514   2.543   2.650  11.741 -0.0316  0.0087  0.0823
14008TIP3    H163515   2.484   2.614  11.676 -1.9989  0.1836  1.6944
14008TIP3    H263516   2.513   2.614  11.825  0.7866  1.7875  1.2054
14009TIP3   OH263517   0.643   4.587  11.860  0.0691  0.0461  0.3408
14009TIP3    H163518   0.660   4.557  11.770 -0.3862 -0.0150  0.2708
14009TIP3    H263519   0.560   4.634  11.854 -0.1061 -0.1972  0.7799
14010TIP3   OH263520   1.798   4.361   4.219 -0.4033 -0.0675 -0.2800
14010TIP3    H163521   1.889   4.347   4.192  0.7607 -1.4521  3.6072
14010TIP3    H263522   1.797   4.448   4.257 -0.1575 -0.6734  1.2054
14011TIP3   OH263523   5.268   0.480   2.939 -0.2177 -0.1957  0.1952
14011TIP3    H163524   5.177   0.463   2.915  0.1523 -1.0498 -0.6890
14011TIP3    H263525   5.299   0.397   2.976  0.0401  0.2672  1.0392
14012TIP3   OH263526   3.125   3.018   1.352 -0.4518 -0.0934  0.0735
14012TIP3    H163527   3.040   2.997   1.390 -0.7161 -1.1015 -1.0329
14012TIP3    H263528   3.126   2.972   1.267  0.5146  1.2577 -0.6880
14013TIP3   OH263529   5.420   4.908  11.207  0.4035  0.9345  0.6198
14013TIP3    H163530   5.416   4.987  11.153  0.6107  1.2720  1.0936
14013TIP3    H263531   5.362   4.926  11.281  1.0227  0.9363  1.1106
14014TIP3   OH263532   3.083   5.170   3.581  0.3509  0.1947  0.1243
14014TIP3    H163533   3.161   5.117   3.564  0.7977  1.1334 -0.9327
14014TIP3    H263534   3.084   5.236   3.511 -2.0176 -0.4448 -0.5914
14015TIP3   OH263535   2.675   6.420  11.729 -0.1842  0.3416 -0.7278
14015TIP3    H163536   2.767   6.396  11.737 -0.7446 -1.6266  0.6023
14015TIP3    H263537   2.668   6.505  11.773  0.6895 -0.4132  0.9675
14016TIP3   OH263538   6.131   3.148  13.864 -0.0538  0.6685  0.1075
14016TIP3    H163539   6.096   3.234  13.885 -3.2032 -0.8028  1.5897
14016TIP3    H263540   6.071   3.113  13.798 -0.3181 -1.2639  1.2957
14017TIP3   OH263541   2.988   5.632  17.197  0.1114 -0.2193 -0.3159
14017TIP3    H163542   2.968   5.723  17.175 -2.0567 -0.8156 -1.1370
14017TIP3    H263543   3.040   5.601  17.123 -1.0848 -0.2251 -1.1975
14018TIP3   OH263544   4.771   5.850  12.378 -0.1803  0.4380  0.2801
14018TIP3    H163545   4.833   5.829  12.447  0.4659  0.6969 -0.2108
14018TIP3    H263546   4.773   5.774  12.319 -0.9146  0.1087  0.6654
14019TIP3   OH263547   0.136   3.407   6.033 -0.5765 -0.4779  0.4573
14019TIP3    H163548   0.043   3.405   6.010 -0.6074 -0.9886  0.6334
14019TIP3    H263549   0.137   3.428   6.126 -0.4708  0.8570  0.1792
14020TIP3   OH263550   3.191   3.039   5.448  0.0852  0.2186 -0.3257
14020TIP3    H163551   3.167   2.948   5.430 -1.1009  0.2655  0.8479
14020TIP3    H263552   3.271   3.053   5.398 -0.8851 -0.7984 -2.2844
14021TIP3   OH263553   5.895   1.386   2.946  0.4691  0.2561 -0.2042
14021TIP3    H163554   5.906   1.371   2.852  0.0642 -0.0909 -0.1962
14021TIP3    H263555   5.801   1.396   2.958  0.3420 -1.3869  0.4108
14022TIP3   OH263556   3.778   2.539  12.208 -0.4098  0.3589  0.6588
14022TIP3    H163557   3.823   2.550  12.125 -1.0387 -0.1043  0.2491
14022TIP3    H263558   3.800   2.618  12.258  4.3881 -1.6235  2.1939
14023TIP3   OH263559   4.447   0.111  15.388 -0.0774 -0.6367  0.1776
14023TIP3    H163560   4.404   0.099  15.303 -0.6628 -2.8869  0.7390
14023TIP3    H263561   4.403   0.188  15.426 -2.0933 -1.5189 -0.2281
14024TIP3   OH263562   2.604   1.719  12.729 -0.0653  0.4597  0.2444
14024TIP3    H163563   2.525   1.717  12.783  0.6912  0.0701  1.3773
14024TIP3    H263564   2.578   1.768  12.650 -1.8898 -1.0965 -0.1868
14025TIP3   OH263565   6.555   2.858  16.922 -0.1360 -0.8117 -0.1300
14025TIP3    H163566   6.613   2.931  16.899 -1.1886  0.3421  0.7782
14025TIP3    H263567   6.516   2.832  16.839 -0.2129  0.0701 -0.3809
14026TIP3   OH263568   5.436   6.664   5.832  0.2069 -0.6121 -0.1625
14026TIP3    H163569   5.352   6.670   5.876 -0.5941  0.6160 -1.7728
14026TIP3    H263570   5.421   6.607   5.757  0.2384  1.1174 -1.5621
14027TIP3   OH263571   1.412   3.658  11.652  0.0400 -0.1161 -0.6684
14027TIP3    H163572   1.328   3.643  11.694  0.2342  0.2407 -0.1424
14027TIP3    H263573   1.392   3.664  11.559 -0.9126  2.4925 -0.3783
14028TIP3   OH263574   4.295   0.749  17.054 -0.1816  0.0871 -0.5652
14028TIP3    H163575   4.302   0.707  17.139  0.1914  1.7534  0.2748
14028TIP3    H263576   4.384   0.776  17.033 -0.5955  1.6801 -0.3925
14029TIP3   OH263577   6.583   0.372   3.263  0.0509 -0.2462 -0.7335
14029TIP3    H163578   6.548   0.460   3.251 -0.6039 -0.5385 -1.0123
14029TIP3    H263579   6.514   0.314   3.232 -1.1814 -1.0264  2.9467
14030TIP3   OH263580   2.454   3.689   4.372 -0.1142 -0.0083 -0.4100
14030TIP3    H163581   2.456   3.657   4.462  1.6950  0.5921 -0.2021
14030TIP3    H263582   2.361   3.703   4.354 -0.6019 -1.2461  0.9454
14031TIP3   OH263583   1.073   5.790   6.508 -0.2514 -0.0124  0.6188
14031TIP3    H163584   1.016   5.837   6.568  0.4170  0.9463  0.5258
14031TIP3    H263585   1.157   5.785   6.553  0.5093  1.4859 -0.5395
14032TIP3   OH263586   2.924   1.074  14.151 -0.6982 -0.0724 -0.5821
14032TIP3    H163587   2.829   1.081  14.135 -1.0814 -1.3530  0.9337
14032TIP3    H263588   2.958   1.031  14.072 -1.2138  1.1670 -1.5189
14033TIP3   OH263589   1.141   1.962  11.183  0.1354 -0.2262  0.2115
14033TIP3    H163590   1.145   1.867  11.188 -1.4581 -0.2738  1.8375
14033TIP3    H263591   1.095   1.979  11.101  0.0824 -0.8757  0.0977
14034TIP3   OH263592   1.136   5.522  12.680  0.1138  0.3577 -0.3423
14034TIP3    H163593   1.198   5.552  12.746 -0.6303 -1.2962  1.1859
14034TIP3    H263594   1.188   5.466  12.622 -0.2905 -3.3459  2.5398
14035TIP3   OH263595   2.367   5.166  15.909 -0.6358  0.0429 -0.2792
14035TIP3    H163596   2.346   5.230  15.841  0.0056 -0.2355 -0.7501
14035TIP3    H263597   2.318   5.088  15.882  3.0538 -1.6353 -3.0872
14036TIP3   OH263598   0.818   4.465  13.107 -0.0447  0.0359 -0.1078
14036TIP3    H163599   0.885   4.397  13.107  0.9596  0.9977 -0.7722
14036TIP3    H263600   0.863   4.544  13.138 -1.2838  0.3297  1.0580
14037TIP3   OH263601   4.204   4.185   6.360 -0.1785  0.6010  0.8312
14037TIP3    H163602   4.282   4.223   6.320 -1.0993  0.7994 -0.8907
14037TIP3    H263603   4.226   4.093   6.376 -0.9559 -0.7278 -4.0638
14038TIP3   OH263604   3.802   2.334   4.941  0.0963 -0.2059 -0.2842
14038TIP3    H163605   3.762   2.274   4.878  0.8154  1.3416 -2.3399
14038TIP3    H263606   3.850   2.397   4.887 -0.2709  1.9758  1.7594
14039TIP3   OH263607   0.464   2.603   3.137  0.5373 -0.3442 -0.6289
14039TIP3    H163608   0.487   2.622   3.046  1.1394 -0.0523 -0.4139
14039TIP3    H263609   0.536   2.637   3.188 -0.9580  1.8307  0.1618
14040TIP3   OH263610   2.412   0.453  14.296  0.3874  0.2233  0.4221
14040TIP3    H163611   2.357   0.521  14.336  2.2584  1.7171  0.5870
14040TIP3    H263612   2.487   0.500  14.261  0.8075 -1.5561 -1.2494
14041TIP3   OH263613   2.520   2.819   6.150 -0.2116 -0.3854  0.2153
14041TIP3    H163614   2.470   2.901   6.153  0.5372  0.0759  0.5160
14041TIP3    H263615   2.499   2.775   6.232  0.9367  0.4725  1.0049
14042TIP3   OH263616   1.415   5.686   4.700  0.2379 -0.7184  0.3953
14042TIP3    H163617   1.320   5.682   4.697  0.1808 -0.1110  1.0398
14042TIP3    H263618   1.437   5.660   4.790  0.6379 -0.3054  0.4219
14043TIP3   OH263619   3.167   6.610  15.503  0.0574 -0.3006  0.0923
14043TIP3    H163620   3.095   6.666  15.532  2.1835  1.0299  3.3723
14043TIP3    H263621   3.235   6.672  15.474  0.5645 -1.4540 -1.2829
14044TIP3   OH263622   6.575   1.186  11.955  0.1955 -0.0204 -0.1982
14044TIP3    H163623   6.508   1.161  12.019  1.4148  1.2925  1.6786
14044TIP3    H263624   6.551   1.274  11.929  0.2615 -0.1860 -0.8336
14045TIP3   OH263625   3.896   4.436   2.755 -0.2605 -0.9000 -0.3798
14045TIP3    H163626   3.873   4.457   2.664 -1.4145  0.8433  0.2718
14045TIP3    H263627   3.925   4.519   2.792  0.6919 -1.6974  0.7364
14046TIP3   OH263628   2.916   5.915   5.820  0.3389  0.3312  0.2781
14046TIP3    H163629   2.977   5.841   5.830 -0.0344 -0.1729 -1.0018
14046TIP3    H263630   2.831   5.874   5.806 -0.1073  1.0260  0.9102
14047TIP3   OH263631   1.422   5.524  12.775  0.4454 -0.4810  0.4492
14047TIP3    H163632   1.426   5.544  12.869  3.9756 -0.4142  0.4313
14047TIP3    H263633   1.488   5.456  12.763 -1.7576 -2.4017 -1.6582
14048TIP3   OH263634   4.653   1.350   2.117  0.2779  0.0282  0.0403
14048TIP3    H163635   4.570   1.342   2.165  0.1536 -1.3246 -0.3519
14048TIP3    H263636   4.642   1.430   2.065 -0.6684  0.0337  0.2188
14049TIP3   OH263637   2.677   4.392   1.962 -0.4098 -0.5044  0.1090
14049TIP3    H163638   2.761   4.437   1.963 -0.5565 -0.2276  0.0757
14049TIP3    H263639   2.673   4.348   2.047 -0.5233  0.0324  0.3889
14050TIP3   OH263640   1.306   2.094   4.614  0.0913  0.5995  0.5101
14050TIP3    H163641   1.280   2.171   4.664  0.5081  0.9735  0.1560
14050TIP3    H263642   1.306   2.123   4.523 -0.9758 -0.1655  0.2454
14051TIP3   OH263643   1.630   2.321  11.833 -0.1678 -0.0526 -0.4788
14051TIP3    H163644   1.597   2.264  11.764  1.7444 -1.8009 -0.0695
14051TIP3    H263645   1.724   2.329  11.814  0.2805 -0.0456  1.5059
14052TIP3   OH263646   5.183   6.306   4.830  0.2070  0.1707  0.1631
14052TIP3    H163647   5.205   6.365   4.757 -1.6813  0.8623  0.0819
14052TIP3    H263648   5.185   6.362   4.907  2.3971 -0.6077  0.7176
14053TIP3   OH263649   1.522   5.407  14.694 -0.2702  0.2614  0.1905
14053TIP3    H163650   1.504   5.313  14.697 -0.5102  0.2418 -1.2773
14053TIP3    H263651   1.611   5.415  14.727  0.7419 -0.8037 -2.0435
14054TIP3   OH263652   3.155   6.680   4.822 -0.2697  0.4189 -0.2004
14054TIP3    H163653   3.236   6.640   4.789 -0.5637 -2.4161  2.0945
14054TIP3    H263654   3.091   6.664   4.752 -0.1985 -2.8525  0.2977
14055TIP3   OH263655   3.179   0.564   1.530  0.7645  0.7677  0.3211
14055TIP3    H163656   3.236   0.595   1.601  0.9941  1.7372 -0.2651
14055TIP3    H263657   3.209   0.612   1.453  0.0966  0.2063 -0.3013
14056TIP3   OH263658   3.241   2.015  14.071  0.7463  0.0220  0.1195
14056TIP3    H163659   3.244   1.921  14.090  3.4715 -0.0990 -0.4332
14056TIP3    H263660   3.201   2.021  13.985 -0.0172 -0.5637  0.4227
14057TIP3   OH263661   1.178   4.912   3.428  0.4915 -0.2579  0.1694
14057TIP3    H163662   1.257   4.862   3.406  0.5705  0.6709 -2.0005
14057TIP3    H263663   1.203   5.003   3.410 -0.9789  0.0654 -0.3394
14058TIP3   OH263664   4.279   0.612  17.461 -0.0510 -0.2877  0.3202
14058TIP3    H163665   4.242   0.535  17.418 -1.1055  0.0196  0.6571
14058TIP3    H263666   4.326   0.577  17.537  2.4098 -0.9078 -1.3598
14059TIP3   OH263667   5.697   3.897   2.024 -0.1134  0.1778  0.5700
14059TIP3    H163668   5.743   3.817   1.999  0.1486 -0.9044  4.0115
14059TIP3    H263669   5.757   3.941   2.085 -1.6593  1.2004  1.4368
14060TIP3   OH263670   3.079   5.707   1.902 -0.0449 -0.5195 -0.0369
14060TIP3    H163671   3.028   5.637   1.944  3.3233 -3.1666  0.0846
14060TIP3    H263672   3.142   5.734   1.969  0.0831  1.2139 -0.7982
14061TIP3   OH263673   2.141   5.009   0.023  0.1494  0.4313  0.1704
14061TIP3    H163674   2.136   5.101   0.051 -0.6642 -0.1782  2.1677
14061TIP3    H263675   2.055   4.973   0.043 -0.1091 -0.4085 -2.1150
14062TIP3   OH263676   5.809   2.098  13.020  0.6136 -0.2689 -0.0340
14062TIP3    H163677   5.820   2.018  12.968 -0.9913 -0.7340  0.2719
14062TIP3    H263678   5.864   2.084  13.097  2.9402  0.3812 -1.4589
14063TIP3   OH263679   1.302   3.009   2.462 -0.5279  0.5750  0.5390
14063TIP3    H163680   1.351   3.038   2.385 -0.3656 -0.4790  0.2369
14063TIP3    H263681   1.367   2.968   2.518 -0.8431  0.3431  0.7365
14064TIP3   OH263682   3.667   1.920   2.086  0.0304  0.3208 -0.0550
14064TIP3    H163683   3.728   1.987   2.115 -0.0746  0.0549  0.8074
14064TIP3    H263684   3.712   1.875   2.014  0.9598 -0.0417  0.7390
14065TIP3   OH263685   1.909   3.307  15.079  0.3595  0.1457  0.5513
14065TIP3    H163686   1.867   3.243  15.137 -0.6048  1.1937  1.0654
14065TIP3    H263687   1.904   3.267  14.992  0.4712 -0.8042  0.9677
14066TIP3   OH263688   4.623   1.290   0.870  0.3054 -0.0239 -0.5117
14066TIP3    H163689   4.694   1.305   0.933  0.1303  0.2976 -0.3914
14066TIP3    H263690   4.611   1.195   0.871 -0.5252  0.0658  0.8468
14067TIP3   OH263691   6.724   5.300   3.200 -0.3615 -0.2461 -0.3167
14067TIP3    H163692   6.795   5.350   3.241  0.5878 -0.5696 -1.5055
14067TIP3    H263693   6.719   5.219   3.250 -0.2557  0.0021  0.1000
14068TIP3   OH263694   0.299   0.578   1.719  0.1483 -0.1895  0.4493
14068TIP3    H163695   0.333   0.494   1.688  0.4440  0.5927 -1.4791
14068TIP3    H263696   0.204   0.569   1.712  0.1975 -0.1906 -0.2798
14069TIP3   OH263697   3.291   1.488   2.006 -0.3525  0.0639  0.2968
14069TIP3    H163698   3.343   1.423   2.052  0.7114  1.0140  0.4680
14069TIP3    H263699   3.280   1.452   1.918  0.9460  0.0147  0.1381
14070TIP3   OH263700   1.717   0.552  12.408  0.1813  0.3956  0.4240
14070TIP3    H163701   1.679   0.561  12.495  1.2170 -0.9537  1.0672
14070TIP3    H263702   1.795   0.499  12.422  1.0890  1.2318 -1.1531
14071TIP3   OH263703   2.102   6.215   2.595  0.0170  0.5033 -0.8924
14071TIP3    H163704   2.059   6.242   2.514 -0.4512  0.3515 -0.6941
14071TIP3    H263705   2.119   6.122   2.584 -1.5963  0.0830 -0.1388
14072TIP3   OH263706   6.422   3.476   0.317  0.4501 -0.1864  0.1832
14072TIP3    H163707   6.393   3.539   0.252  2.0598 -0.5979 -0.9929
14072TIP3    H263708   6.455   3.529   0.389  1.2470  0.3196 -0.5433
14073TIP3   OH263709   6.483   3.573  12.916 -0.2897 -0.3794  0.4210
14073TIP3    H163710   6.512   3.663  12.903 -0.6370 -0.3107  0.1098
14073TIP3    H263711   6.554   3.520  12.879  1.1240 -0.3256  2.8831
14074TIP3   OH263712   1.456   5.280  15.172  0.0105 -0.9431 -0.1993
14074TIP3    H163713   1.491   5.313  15.255  0.2829  0.0233 -0.6973
14074TIP3    H263714   1.463   5.353  15.111 -0.2275 -1.6326 -1.0753
14075TIP3   OH263715   1.050   4.470  14.989  0.1853 -0.6735  0.4412
14075TIP3    H163716   1.089   4.416  14.919 -0.6469 -0.0102 -0.5545
14075TIP3    H263717   0.991   4.530  14.943 -1.4063 -1.1030  1.8248
14076TIP3   OH263718   1.803   6.518   0.158  0.0869 -0.0885 -0.0150
14076TIP3    H163719   1.824   6.559   0.242  0.8811 -1.7912  0.6748
14076TIP3    H263720   1.723   6.561   0.129 -0.0503  0.7135  1.4794
14077TIP3   OH263721   1.868   4.302  14.409 -0.4568  0.2240 -0.0340
14077TIP3    H163722   1.880   4.227  14.351  0.3264  0.9774 -0.8697
14077TIP3    H263723   1.781   4.336  14.387 -0.5742 -0.0751 -0.0501
14078TIP3   OH263724   4.486   6.183   0.860  0.5180 -0.0589 -0.1562
14078TIP3    H163725   4.451   6.204   0.773  0.4072  1.7555  0.2971
14078TIP3    H263726   4.581   6.183   0.848  0.4932 -0.4020 -0.3867
14079TIP3   OH263727   0.474   4.792   4.834  0.4077  0.5416  0.4043
14079TIP3    H163728   0.540   4.780   4.765  1.9359 -3.3783  2.1924
14079TIP3    H263729   0.395   4.752   4.798  0.5037  0.6182  0.1000
14080TIP3   OH263730   2.361   5.477   1.845  0.5196  0.3493 -0.5055
14080TIP3    H163731   2.309   5.482   1.925 -1.1518 -2.2277 -1.3074
14080TIP3    H263732   2.348   5.561   1.802 -1.6495  0.4279  0.1838
14081TIP3   OH263733   3.174   0.439  12.606 -0.2586 -0.0680  0.2890
14081TIP3    H163734   3.263   0.451  12.639  0.1372 -3.2115  0.6592
14081TIP3    H263735   3.118   0.487  12.668  0.8725 -1.8070  2.8398
14082TIP3   OH263736   0.336   4.151   2.472 -0.2144  0.1889  0.0650
14082TIP3    H163737   0.337   4.212   2.547  0.9904  0.8239 -0.4373
14082TIP3    H263738   0.423   4.112   2.473 -0.8945 -1.3814  0.2259
14083TIP3   OH263739   1.620   2.895  17.050 -0.1071  0.1510  0.2555
14083TIP3    H163740   1.550   2.908  17.114  0.2751  1.7098  0.3895
14083TIP3    H263741   1.700   2.924  17.094  0.3977 -0.2211 -0.3941
14084TIP3   OH263742   1.361   5.354   0.607 -0.0400  0.3254  0.4298
14084TIP3    H163743   1.313   5.414   0.664  0.6327  0.2365  1.1181
14084TIP3    H263744   1.368   5.400   0.524 -2.2739 -0.1195 -0.0695
14085TIP3   OH263745   2.561   2.389   6.511 -0.0973  0.5714 -0.1681
14085TIP3    H163746   2.555   2.415   6.603  1.7691  1.1560 -0.1672
14085TIP3    H263747   2.623   2.316   6.511  0.0729  0.7032 -0.9822
14086TIP3   OH263748   0.833   4.145   0.831 -0.0320  0.0483  0.3294
14086TIP3    H163749   0.914   4.155   0.882 -0.3089 -1.4609  1.1192
14086TIP3    H263750   0.766   4.190   0.883  0.4216  2.1238 -0.7829
14087TIP3   OH263751   6.139   6.738  13.048 -0.1043 -0.1179 -1.0471
14087TIP3    H163752   6.135   6.721  13.142 -1.3071  0.3903 -0.9870
14087TIP3    H263753   6.125   6.652  13.008  0.9750 -0.4368 -0.7835
14088TIP3   OH263754   1.340   2.655  13.618  0.2046 -0.3172  0.4053
14088TIP3    H163755   1.379   2.708  13.548 -1.7098  2.1414  1.0749
14088TIP3    H263756   1.409   2.648  13.684  0.4424  1.6697  0.4186
14089TIP3   OH263757   3.510   0.343  12.721 -0.6336  0.5046 -0.0628
14089TIP3    H163758   3.525   0.252  12.695 -1.4232 -0.0424  1.2710
14089TIP3    H263759   3.538   0.346  12.813  0.7151  1.9881 -0.4836
14090TIP3   OH263760   4.074   5.863  15.748 -0.3013 -0.4977  0.1258
14090TIP3    H163761   3.980   5.855  15.765 -0.8863  4.5087  0.6783
14090TIP3    H263762   4.115   5.858  15.834 -0.2344 -0.9076  0.0732
14091TIP3   OH263763   4.791   1.741   1.857 -0.2830 -0.0955  0.1349
14091TIP3    H163764   4.776   1.825   1.901  0.6877 -0.1145  0.5379
14091TIP3    H263765   4.831   1.686   1.925  1.4352 -0.0646 -0.8119
14092TIP3   OH263766   1.685   1.415  13.258 -0.0353 -0.9361 -0.1127
14092TIP3    H163767   1.631   1.452  13.188  2.1454  0.8798 -0.9368
14092TIP3    H263768   1.662   1.465  13.336  1.9825  1.5086 -0.9553
14093TIP3   OH263769   2.260   1.307  12.712 -0.3516 -0.1868 -0.0712
14093TIP3    H163770   2.176   1.352  12.719 -0.6196 -0.9607  2.8249
14093TIP3    H263771   2.246   1.242  12.644 -2.1616 -0.3657  0.4089
14094TIP3   OH263772   6.276   3.610   2.206 -0.3764 -0.5913 -0.4918
14094TIP3    H163773   6.248   3.666   2.134  0.6638 -0.3043 -0.6855
14094TIP3    H263774   6.369   3.593   2.189 -0.0043 -0.1771  1.0050
14095TIP3   OH263775   6.632   0.546   0.090  0.4962  1.2144  0.4223
14095TIP3    H163776   6.577   0.482   0.136 -0.0253  1.2482 -0.1308
14095TIP3    H263777   6.593   0.631   0.111 -0.5962  1.1459 -1.1350
14096TIP3   OH263778   2.605   3.063  16.103 -0.1953 -0.0586 -0.2485
14096TIP3    H163779   2.693   3.078  16.068  0.9447 -0.6049  2.1817
14096TIP3    H263780   2.581   2.977  16.070  0.5737 -0.2898 -0.2389
14097TIP3   OH263781   2.853   6.083   6.048 -0.5690 -0.3792 -0.3914
14097TIP3    H163782   2.886   6.067   5.960  0.5009  1.6310 -0.4193
14097TIP3    H263783   2.931   6.092   6.103 -1.1453  0.4855  0.3314
14098TIP3   OH263784   0.023   6.030  15.694  0.0555  0.2073 -0.1144
14098TIP3    H163785   0.097   6.035  15.756 -0.7818  1.6213  0.8270
14098TIP3    H263786   0.050   6.087  15.622  0.4400 -0.3399 -0.4116
14099TIP3   OH263787   1.156   0.079  13.318 -0.4247  0.0891  0.3978
14099TIP3    H163788   1.144  -0.016  13.328 -1.0133  0.2625  1.5218
14099TIP3    H263789   1.251   0.091  13.313 -0.3573 -0.5789  0.0300
14100TIP3   OH263790   0.567   4.169   1.871 -0.6874  0.0976 -0.0486
14100TIP3    H163791   0.557   4.249   1.923  1.1152 -0.6221  1.5119
14100TIP3    H263792   0.482   4.125   1.879  0.1095 -1.0883  4.3530
14101TIP3   OH263793   4.451   1.502  12.345  0.8325  0.2278  0.1217
14101TIP3    H163794   4.364   1.525  12.312 -0.1142 -1.5781  1.1865
14101TIP3    H263795   4.466   1.412  12.315  1.3298 -0.2959  1.7886
14102TIP3   OH263796   2.567   3.686  12.692  0.0086  0.3462  0.3609
14102TIP3    H163797   2.577   3.696  12.787 -1.1600 -1.0906  0.6770
14102TIP3    H263798   2.654   3.659  12.662  0.7838  2.2307  0.7678
14103TIP3   OH263799   6.738   1.673  16.986 -0.0254 -0.3082 -0.4249
14103TIP3    H163800   6.702   1.743  16.932 -0.5353 -0.3349 -0.1234
14103TIP3    H263801   6.819   1.709  17.021 -0.9044  0.5976  0.7335
14104TIP3   OH263802   2.244   5.610   2.065 -0.2515  0.1119  0.2311
14104TIP3    H163803   2.301   5.672   2.021  0.6257 -0.4643  0.5405
14104TIP3    H263804   2.157   5.651   2.063  0.1988  1.0583 -0.1040
14105TIP3   OH263805   1.122   4.433  13.194 -0.0075  0.2958 -0.2970
14105TIP3    H163806   1.131   4.498  13.125 -2.1483  1.3745  0.3540
14105TIP3    H263807   1.084   4.357  13.151  1.1345 -0.0226 -0.7771
14106TIP3   OH263808   2.137   3.335   5.411  0.5467  0.4230  0.3313
14106TIP3    H163809   2.211   3.301   5.462  0.6818 -1.8201 -1.1880
14106TIP3    H263810   2.060   3.291   5.449  0.6924 -1.5644 -1.5120
14107TIP3   OH263811   5.911   1.805  13.373  0.7440 -0.2231 -0.3171
14107TIP3    H163812   5.819   1.827  13.390  1.5083  3.6526 -0.0693
14107TIP3    H263813   5.947   1.785  13.460  0.2290 -1.5290 -0.3864
14108TIP3   OH263814   0.175   1.180  12.294  0.3175  0.1951 -0.4917
14108TIP3    H163815   0.157   1.108  12.232  1.8197  1.1487 -2.1294
14108TIP3    H263816   0.160   1.259  12.243 -0.1346  1.0613  0.9394
14109TIP3   OH263817   3.639   2.809   6.689  0.3407 -0.1776 -0.0163
14109TIP3    H163818   3.556   2.785   6.732  0.4615 -0.5187  0.0305
14109TIP3    H263819   3.706   2.761   6.739  0.4989 -0.4434 -0.4784
14110TIP3   OH263820   2.626   1.087   1.686 -0.2358 -0.1050 -0.4559
14110TIP3    H163821   2.611   1.182   1.684 -0.9485 -0.1501  1.3966
14110TIP3    H263822   2.692   1.072   1.618  1.4604  2.0177  0.5964
14111TIP3   OH263823   6.276   6.505   5.898 -0.4732  0.8118 -0.2424
14111TIP3    H163824   6.181   6.501   5.892 -0.7292 -2.3862  2.8840
14111TIP3    H263825   6.293   6.555   5.978  0.1513 -2.2431  1.6677
14112TIP3   OH263826   4.989   2.017   5.628  0.0402 -0.1943 -0.1025
14112TIP3    H163827   5.014   1.954   5.696 -0.1260  1.7026  1.8160
14112TIP3    H263828   4.928   1.969   5.572 -1.5371 -1.2300  2.3591
14113TIP3   OH263829   1.094   4.891  13.967  0.0789  0.3188 -0.0212
14113TIP3    H163830   1.147   4.935  14.034 -1.0735  1.6757  0.0284
14113TIP3    H263831   1.011   4.871  14.011 -0.6158  1.0473 -0.9722
14114TIP3   OH263832   2.736   5.915   3.373 -0.4130  0.0458 -0.1182
14114TIP3    H163833   2.778   5.894   3.289 -0.1636 -2.7570  0.5849
14114TIP3    H263834   2.761   5.842   3.430 -1.9888  0.9919  1.8789
14115TIP3   OH263835   4.490   3.237  13.280  0.1727  0.0536 -0.2435
14115TIP3    H163836   4.547   3.206  13.209 -0.4858  1.3648 -1.3942
14115TIP3    H263837   4.541   3.306  13.323 -0.7986  1.8790 -1.8569
14116TIP3   OH263838   2.141   3.095   3.631  0.0404  0.5277  0.3996
14116TIP3    H163839   2.133   3.082   3.537  1.1561  0.8928  0.2418
14116TIP3    H263840   2.114   3.186   3.645 -1.1098  0.1717  0.5814
14117TIP3   OH263841   2.868   3.835   2.473 -0.1063  0.2973 -0.1305
14117TIP3    H163842   2.893   3.852   2.564  0.2702  0.8412 -0.3361
14117TIP3    H263843   2.913   3.902   2.422 -1.4512  0.8785 -0.5821
14118TIP3   OH263844   2.907   2.021  13.793  0.2352  0.1202  0.5498
14118TIP3    H163845   2.999   1.999  13.809  0.2624  1.3998  2.5639
14118TIP3    H263846   2.910   2.091  13.727  0.5541 -1.0651 -0.7331
14119TIP3   OH263847   5.376   3.898  11.978  0.1426  0.2446 -0.2150
14119TIP3    H163848   5.377   3.959  12.052  2.1183  1.4497 -1.1356
14119TIP3    H263849   5.352   3.952  11.903 -0.0708 -0.5630 -0.7355
14120TIP3   OH263850   6.210   5.324  11.703 -0.0225  0.1319  0.5408
14120TIP3    H163851   6.203   5.260  11.774 -0.4423 -0.0683  0.3260
14120TIP3    H263852   6.302   5.321  11.677 -0.5057 -2.4220 -1.3135
14121TIP3   OH263853   1.850   1.123  12.281  0.0122 -0.4728  0.6646
14121TIP3    H163854   1.837   1.212  12.313 -1.7251  0.1204 -1.4047
14121TIP3    H263855   1.773   1.075  12.311 -0.2124 -0.6426 -0.1486
14122TIP3   OH263856   3.814   0.981   3.752 -0.3894  0.4090  0.3368
14122TIP3    H163857   3.852   1.035   3.821  0.7012  0.6190 -0.3953
14122TIP3    H263858   3.788   0.900   3.795  0.5341  0.4237  0.9478
14123TIP3   OH263859   5.819   4.625   0.743  0.5883  0.2936 -0.3934
14123TIP3    H163860   5.906   4.665   0.735 -0.1086  1.9114 -0.2183
14123TIP3    H263861   5.837   4.531   0.750  2.3236  0.5917 -0.3188
14124TIP3   OH263862   6.291   1.394   3.695  0.3803  0.0348  0.1945
14124TIP3    H163863   6.345   1.430   3.625  0.6410  0.3261  0.5430
14124TIP3    H263864   6.349   1.335   3.743  0.6510  1.0230  1.1079
14125TIP3   OH263865   3.456   2.885   2.396  0.4715 -0.0461 -0.6514
14125TIP3    H163866   3.476   2.923   2.310  1.6136 -1.4696 -1.0571
14125TIP3    H263867   3.539   2.889   2.444  0.6526 -1.9675 -0.7270
14126TIP3   OH263868   1.252   4.603   4.090  0.2293 -0.3588 -0.2912
14126TIP3    H163869   1.314   4.535   4.065  2.0269  0.4815  1.6005
14126TIP3    H263870   1.231   4.584   4.181 -1.6009 -0.0569 -0.6101
14127TIP3   OH263871   5.271   6.175  11.143  0.0730 -0.7552 -0.2840
14127TIP3    H163872   5.264   6.080  11.136  0.1629 -0.6978 -1.3868
14127TIP3    H263873   5.254   6.207  11.054  2.2343  0.1243 -0.4518
14128TIP3   OH263874   3.084   6.153  13.748 -0.2288  0.1171 -0.5518
14128TIP3    H163875   3.144   6.227  13.759  2.4179 -2.1095  1.6500
14128TIP3    H263876   3.066   6.150  13.654  0.7657  2.6122 -0.8971
14129TIP3   OH263877   4.639   4.431   3.892  0.2134  0.0123  0.2870
14129TIP3    H163878   4.647   4.393   3.979  1.4798  0.4453  0.3859
14129TIP3    H263879   4.586   4.369   3.843  0.1388 -0.6210  1.1475
14130TIP3   OH263880   4.232   6.542  13.202 -0.2735 -0.0242 -0.5389
14130TIP3    H163881   4.147   6.564  13.163  0.6051  0.9762 -1.9877
14130TIP3    H263882   4.240   6.601  13.277  0.4838  2.2041 -2.2783
14131TIP3   OH263883   2.469   0.766   5.230  0.3454  0.0918 -0.0280
14131TIP3    H163884   2.407   0.764   5.302 -0.7497 -0.0976 -0.9422
14131TIP3    H263885   2.463   0.855   5.195  0.7128  0.1192 -0.0249
14132TIP3   OH263886   1.852   4.187  15.399 -0.0104 -0.0892 -0.1096
14132TIP3    H163887   1.760   4.165  15.381  0.0024  1.2706 -2.1464
14132TIP3    H263888   1.896   4.103  15.403 -0.9363 -0.7071 -1.7134
14133TIP3   OH263889   5.859   2.911  13.206  0.2191  0.1825 -0.1810
14133TIP3    H163890   5.920   2.839  13.225  0.9712  0.8347 -0.0829
14133TIP3    H263891   5.915   2.986  13.188 -0.5453  0.5695 -1.0486
14134TIP3   OH263892   2.253   3.287   4.613  0.4091  0.1675  0.2266
14134TIP3    H163893   2.254   3.193   4.633 -0.6929  0.3688  1.3215
14134TIP3    H263894   2.196   3.294   4.537  2.1846 -0.2530 -1.2241
14135TIP3   OH263895   3.857   2.958  12.389  0.8128  0.6276 -0.6399
14135TIP3    H163896   3.819   2.967  12.302  0.4557 -1.7984 -0.7935
14135TIP3    H263897   3.783   2.970  12.449  0.1161 -2.0249 -0.8703
14136TIP3   OH263898   2.693   5.584  13.753  0.3693  0.2574  0.6549
14136TIP3    H163899   2.710   5.656  13.814 -0.9941  0.7819  0.4588
14136TIP3    H263900   2.760   5.519  13.773  0.2528  0.6259  2.3888
14137TIP3   OH263901   4.043   1.570  11.810  0.1111 -0.3272  0.0528
14137TIP3    H163902   3.986   1.574  11.887  0.5981  0.8406  0.3816
14137TIP3    H263903   3.988   1.536  11.740 -0.4829 -0.9125  0.7925
14138TIP3   OH263904   1.080   1.175  16.937 -0.2611 -0.3822 -0.2273
14138TIP3    H163905   1.142   1.123  16.887  0.6570  0.1868  0.2849
14138TIP3    H263906   0.994   1.151  16.902  0.1792 -1.7854 -0.3831
14139TIP3   OH263907   5.504   3.457  11.990  0.0002  0.4283 -0.2674
14139TIP3    H163908   5.471   3.495  12.072 -0.1521 -0.5673  0.1397
14139TIP3    H263909   5.458   3.507  11.922 -0.8477  0.4088  0.2706
14140TIP3   OH263910   1.133   2.625  15.262 -0.2867  0.2367 -0.1649
14140TIP3    H163911   1.213   2.591  15.223  1.1371 -0.1920  2.8122
14140TIP3    H263912   1.093   2.549  15.305 -0.9373  0.9094  0.4551
14141TIP3   OH263913   2.729   4.780  15.423 -0.2739 -0.2497  0.7591
14141TIP3    H163914   2.662   4.838  15.388  1.5652  2.4607  1.4644
14141TIP3    H263915   2.706   4.771  15.516 -0.2371 -0.1559  0.7772
14142TIP3   OH263916   1.035   2.870   2.507  0.2541 -0.0961  0.7239
14142TIP3    H163917   1.091   2.939   2.470 -0.9932  2.3179  2.9809
14142TIP3    H263918   1.066   2.861   2.597 -1.2015 -0.7456  1.1784
14143TIP3   OH263919   2.163   6.725   2.611 -0.8850 -0.5842 -0.0528
14143TIP3    H163920   2.209   6.802   2.579 -0.8818 -0.3479  0.5116
14143TIP3    H263921   2.208   6.651   2.570 -0.2555 -0.3368  0.1883
14144TIP3   OH263922   1.767   6.131  16.761  0.2252  0.1015  0.0364
14144TIP3    H163923   1.821   6.210  16.753 -0.8440  0.9266  0.6343
14144TIP3    H263924   1.677   6.164  16.768 -0.2744 -1.1884  0.0373
14145TIP3   OH263925   4.519   1.218   2.882  0.2725  0.2884 -0.0466
14145TIP3    H163926   4.473   1.141   2.850  0.7867 -0.0399  0.0029
14145TIP3    H263927   4.553   1.260   2.802  1.0081 -0.1831  0.0163
14146TIP3   OH263928   5.852   1.695   4.259 -0.0090  0.6545  0.0604
14146TIP3    H163929   5.852   1.602   4.283  0.2912  0.3982 -0.8780
14146TIP3    H263930   5.860   1.741   4.342  2.3030 -0.2126  0.3939
14147TIP3   OH263931   4.189   4.321   2.256  0.1167  0.0481 -0.2375
14147TIP3    H163932   4.176   4.322   2.351  0.4587 -2.6702 -0.0707
14147TIP3    H263933   4.280   4.346   2.244  0.5330 -1.1096  0.3222
14148TIP3   OH263934   6.060   5.358   5.222  0.0566  0.3632  0.4555
14148TIP3    H163935   6.115   5.330   5.149  1.0400  1.6936  0.6516
14148TIP3    H263936   5.971   5.336   5.194  0.2295  2.2668 -1.8756
14149TIP3   OH263937   4.597   2.849   5.208  0.0071 -0.2497 -0.6441
14149TIP3    H163938   4.519   2.797   5.189 -1.0075 -0.4296  3.1917
14149TIP3    H263939   4.655   2.789   5.255  0.2431  1.1248  0.9343
14150TIP3   OH263940   4.681   0.154  12.576 -0.5463 -0.4266 -0.3816
14150TIP3    H163941   4.745   0.086  12.553  0.1151 -0.2439  0.8316
14150TIP3    H263942   4.618   0.153  12.504  1.0852 -0.2821 -1.8551
14151TIP3   OH263943   1.149   5.698   5.071 -0.4535 -0.1980 -0.3642
14151TIP3    H163944   1.145   5.789   5.099 -0.6112  0.0151 -1.0593
14151TIP3    H263945   1.064   5.682   5.030  0.5371  0.1700 -2.7147
14152TIP3   OH263946   6.018   0.451   4.534 -0.1081 -0.2048 -0.1945
14152TIP3    H163947   6.068   0.391   4.589  0.2594 -1.1260 -1.4815
14152TIP3    H263948   6.003   0.402   4.453 -0.4660  1.1688 -0.9873
14153TIP3   OH263949   5.219   1.178  16.972 -0.0115  0.3003 -0.3169
14153TIP3    H163950   5.205   1.225  16.890  0.3589  0.8203 -0.0857
14153TIP3    H263951   5.272   1.237  17.026  0.9582 -0.5917 -0.2368
14154TIP3   OH263952   5.400   6.061  16.900 -0.3133 -1.0520 -0.4316
14154TIP3    H163953   5.479   6.067  16.845 -0.4206 -2.9054 -0.8323
14154TIP3    H263954   5.433   6.054  16.989 -0.1101  0.4763 -0.3520
14155TIP3   OH263955   0.102   6.324  15.220 -0.1051 -0.4471  0.1174
14155TIP3    H163956   0.075   6.404  15.265  0.6087  1.0566 -1.9457
14155TIP3    H263957   0.196   6.318  15.236  0.0363 -0.2601 -0.5944
14156TIP3   OH263958   0.205   5.590   5.658 -0.9018 -0.3634 -0.1206
14156TIP3    H163959   0.275   5.528   5.675  0.3915  1.5222  2.0289
14156TIP3    H263960   0.230   5.669   5.705 -2.7119  1.6666 -2.2455
14157TIP3   OH263961   3.671   0.145  11.907  0.0970 -0.1053 -0.1108
14157TIP3    H163962   3.743   0.083  11.925  0.3455  0.0935 -0.4107
14157TIP3    H263963   3.598   0.111  11.959  1.4076  1.7706  3.2679
14158TIP3   OH263964   5.633   2.271  15.528 -0.1148  0.3231  0.1895
14158TIP3    H163965   5.694   2.340  15.554 -0.0620  0.1995  0.3891
14158TIP3    H263966   5.661   2.194  15.577 -1.0936  0.5365  1.1198
14159TIP3   OH263967   3.156   4.469  12.542  0.4552 -0.7901 -0.4901
14159TIP3    H163968   3.130   4.543  12.596  0.8991  0.0507 -1.3919
14159TIP3    H263969   3.186   4.403  12.604 -1.0865 -0.6996  0.3971
14160TIP3   OH263970   6.306   0.706  14.321 -0.5866 -0.0873  0.0465
14160TIP3    H163971   6.244   0.667  14.259 -0.7728  0.8268 -0.3580
14160TIP3    H263972   6.392   0.696  14.278 -0.7884  1.1298 -0.6868
14161TIP3   OH263973   3.851   5.777   3.670  0.2335 -0.2067 -0.2026
14161TIP3    H163974   3.820   5.852   3.722  0.4688 -0.0271 -0.3197
14161TIP3    H263975   3.937   5.804   3.638  0.1802 -0.3999 -0.5125
14162TIP3   OH263976   3.630   1.738   4.526  0.4044  0.4258  0.2394
14162TIP3    H163977   3.630   1.647   4.495  0.0323  0.3382  0.4960
14162TIP3    H263978   3.538   1.765   4.521  0.0244 -0.1306  2.8537
14163TIP3   OH263979   1.950   3.306   1.498 -0.8937  0.3216  0.7155
14163TIP3    H163980   1.949   3.400   1.515 -0.6941  0.5155 -0.2797
14163TIP3    H263981   1.993   3.297   1.412 -3.4606 -0.4500 -0.5840
14164TIP3   OH263982   0.529   0.643   5.874 -0.0085  0.1440  0.3638
14164TIP3    H163983   0.540   0.729   5.916  1.4251  0.2015 -0.0911
14164TIP3    H263984   0.587   0.585   5.924  1.1413  0.0488 -1.0239
14165TIP3   OH263985   4.973   6.264   5.722  0.0632 -0.3947  0.0101
14165TIP3    H163986   5.041   6.226   5.666  0.0381  0.0683 -0.3420
14165TIP3    H263987   5.021   6.311   5.790  0.0970 -1.4309  0.7186
14166TIP3   OH263988   1.377   4.871   2.619 -0.1139  0.6028  0.2136
14166TIP3    H163989   1.316   4.905   2.554 -1.7853 -0.5421  1.1051
14166TIP3    H263990   1.321   4.838   2.690  1.5805  0.4075  1.5374
14167TIP3   OH263991   5.340   2.974  11.276  0.7317 -0.0395 -0.2379
14167TIP3    H163992   5.297   2.896  11.311  0.1097  0.1492 -0.5601
14167TIP3    H263993   5.380   3.016  11.352  0.2644 -0.1722  0.0825
14168TIP3   OH263994   3.858   6.417   0.268  0.1590  0.0053  1.2134
14168TIP3    H163995   3.838   6.338   0.319  0.2873 -1.5995 -1.0567
14168TIP3    H263996   3.947   6.401   0.235 -0.9123 -0.4192 -1.7717
14169TIP3   OH263997   2.761   0.488   0.041 -0.1613  0.1380  0.5769
14169TIP3    H163998   2.678   0.533   0.028  0.7570  1.5632 -0.7480
14169TIP3    H263999   2.755   0.410  -0.014 -0.0352  1.1073 -0.8744
14170TIP3   OH264000   2.305   1.960   2.734  0.0489  0.0064  0.0444
14170TIP3    H164001   2.347   1.874   2.725  0.2141  0.1090 -0.1738
14170TIP3    H264002   2.252   1.969   2.655  1.0787  0.6747 -0.6006
14171TIP3   OH264003   2.652   3.834  15.081 -0.4485  0.5017  0.2684
14171TIP3    H164004   2.708   3.909  15.101 -1.5918  1.1152  1.3229
14171TIP3    H264005   2.655   3.827  14.986 -1.2227  2.6339  0.0309
14172TIP3   OH264006   3.760   0.007  15.239 -0.3669 -0.6243 -0.5847
14172TIP3    H164007   3.684   0.064  15.249  1.0334  1.4142 -1.0212
14172TIP3    H264008   3.753  -0.055  15.312 -1.0144  1.2139  0.9917
14173TIP3   OH264009   4.144   4.516  15.242 -0.4004  0.0592 -0.2062
14173TIP3    H164010   4.139   4.529  15.337 -0.5468  0.5904 -0.2839
14173TIP3    H264011   4.238   4.516  15.223 -0.3634 -0.3169 -0.0258
14174TIP3   OH264012   2.440   3.543  17.455 -0.1081  0.4818  0.0465
14174TIP3    H164013   2.439   3.516  17.547  1.3426 -1.0450 -0.3349
14174TIP3    H264014   2.405   3.468  17.407  0.8158  0.5472 -0.7794
14175TIP3   OH264015   3.353   2.878  12.411  0.2019  0.0980 -0.1444
14175TIP3    H164016   3.352   2.954  12.469 -1.2162  0.1688 -0.2203
14175TIP3    H264017   3.301   2.904  12.336 -1.6605 -1.4422  0.5253
14176TIP3   OH264018   1.528   5.067  16.917 -0.0015 -0.4960  0.7859
14176TIP3    H164019   1.561   4.990  16.963 -1.8105 -1.8453 -0.0482
14176TIP3    H264020   1.526   5.041  16.825 -0.9048  0.4519  0.5195
14177TIP3   OH264021   2.133   2.872  16.730 -0.0554 -0.2977 -0.1036
14177TIP3    H164022   2.179   2.801  16.775 -1.8513 -1.4579 -0.0143
14177TIP3    H264023   2.173   2.952  16.764  2.0691 -1.2339 -0.2521
14178TIP3   OH264024   0.153   1.804  11.302 -0.5816  0.1299  0.0247
14178TIP3    H164025   0.072   1.848  11.328 -0.2641  0.4665  0.4675
14178TIP3    H264026   0.172   1.744  11.375 -0.6939 -0.3122 -0.3039
14179TIP3   OH264027   2.633   2.764   2.594 -0.0583 -0.1182 -0.6373
14179TIP3    H164028   2.589   2.847   2.576 -0.3319 -0.1930 -0.3295
14179TIP3    H264029   2.591   2.731   2.674  2.4690  1.2193  1.4002
14180TIP3   OH264030   4.254   1.264  15.365 -0.1989  0.1251 -0.2751
14180TIP3    H164031   4.257   1.168  15.372  0.6155  0.2345  1.4507
14180TIP3    H264032   4.345   1.291  15.372 -0.4544  1.0384 -0.4096
14181TIP3   OH264033   2.862   0.524   0.564 -0.0973 -0.1820  0.1361
14181TIP3    H164034   2.880   0.585   0.493  0.2134  0.0580  0.4177
14181TIP3    H264035   2.849   0.579   0.641 -0.6191 -0.4296  0.2309
14182TIP3   OH264036   4.573   5.100  16.619 -0.4020 -0.0426  0.4458
14182TIP3    H164037   4.648   5.058  16.661 -0.6159 -0.0657  0.8033
14182TIP3    H264038   4.526   5.144  16.690 -0.0018  1.0935  0.0303
14183TIP3   OH264039   5.333   5.135   3.960 -0.2644  0.1806  0.0150
14183TIP3    H164040   5.314   5.199   4.028  2.1208 -0.3652  1.2916
14183TIP3    H264041   5.363   5.057   4.007  0.0966 -0.7211 -1.6112
14184TIP3   OH264042   0.687   1.632  15.339 -0.1437 -0.1755 -0.3191
14184TIP3    H164043   0.723   1.606  15.255  0.7125  0.4491 -0.1662
14184TIP3    H264044   0.663   1.550  15.382 -0.7727 -0.4846 -1.2432
14185TIP3   OH264045   3.771   4.115   1.826  0.2077  0.2825  0.4456
14185TIP3    H164046   3.691   4.119   1.879  0.3752 -0.8452  0.8105
14185TIP3    H264047   3.794   4.207   1.810 -1.5516  0.6290 -0.2832
14186TIP3   OH264048   5.913   0.855   2.812  0.2708 -0.4391  0.0632
14186TIP3    H164049   5.876   0.936   2.846 -0.9676 -0.8409 -0.2451
14186TIP3    H264050   6.005   0.874   2.798 -0.2191  1.3056 -1.1199
14187TIP3   OH264051   4.903   1.466  12.843 -0.5380 -0.4224  0.3491
14187TIP3    H164052   4.879   1.526  12.913  1.8085 -0.0118  0.8939
14187TIP3    H264053   4.972   1.511  12.795  0.3131 -2.0998 -0.0846
14188TIP3   OH264054   0.155   6.254   5.868 -0.6251 -0.2273  0.2875
14188TIP3    H164055   0.082   6.210   5.824 -0.5082 -0.1161 -0.0264
14188TIP3    H264056   0.221   6.263   5.800 -0.3226 -0.3161  0.5710
14189TIP3   OH264057   6.600   6.765  17.440  0.6258  0.6167 -0.3093
14189TIP3    H164058   6.624   6.711  17.515 -0.0945 -1.1119 -1.2430
14189TIP3    H264059   6.531   6.822  17.472 -0.1279 -0.5503  0.2334
14190TIP3   OH264060   4.123   1.919  14.900 -0.4818 -0.0408 -0.6015
14190TIP3    H164061   4.109   1.922  14.995 -2.4916 -0.1440 -0.8463
14190TIP3    H264062   4.095   2.005  14.869 -2.5121 -0.8924 -1.3508
14191TIP3   OH264063   5.041   6.006  11.759 -0.2928 -0.4811  0.0819
14191TIP3    H164064   4.960   6.038  11.799 -0.1773  1.9285 -1.3618
14191TIP3    H264065   5.012   5.940  11.696 -0.8033 -1.7346  1.5859
14192TIP3   OH264066   1.333   2.475  15.114  0.0251  0.5152  0.2729
14192TIP3    H164067   1.310   2.386  15.087 -1.9088  1.6643 -2.2655
14192TIP3    H264068   1.377   2.513  15.038 -0.6249  2.2204  0.6936
14193TIP3   OH264069   1.455   1.460   0.679 -0.2457  0.4644 -0.1864
14193TIP3    H164070   1.376   1.434   0.631 -1.1862  3.0335 -0.2127
14193TIP3    H264071   1.469   1.390   0.742 -1.2066 -1.1530 -1.6973
14194TIP3   OH264072   0.451   1.353   3.975 -0.0565  0.3087 -0.2292
14194TIP3    H164073   0.418   1.422   4.033  0.5093  0.9345 -0.6511
14194TIP3    H264074   0.374   1.298   3.959 -0.1510 -0.1068  1.4107
14195TIP3   OH264075   4.069   3.845  16.572 -0.3123 -0.3243 -0.3944
14195TIP3    H164076   4.133   3.827  16.503  0.7470  1.0280  0.1928
14195TIP3    H264077   4.120   3.887  16.641 -0.8240 -3.7218  2.3245
14196TIP3   OH264078   0.825   6.527   3.768 -0.0336  0.2648 -0.1178
14196TIP3    H164079   0.866   6.450   3.729  0.7920  1.3377 -1.4979
14196TIP3    H264080   0.885   6.553   3.838 -0.9658 -1.0482  1.2033
14197TIP3   OH264081   0.312   2.618  12.864 -0.5208  0.4982  1.3745
14197TIP3    H164082   0.273   2.700  12.896  0.1320  0.9805  0.9464
14197TIP3    H264083   0.339   2.572  12.944 -1.1911  0.5405  1.6334
14198TIP3   OH264084   4.068   1.189  16.098 -0.2149 -0.1798 -0.5484
14198TIP3    H164085   4.095   1.119  16.158  0.9830 -0.3906 -1.3188
14198TIP3    H264086   3.990   1.154  16.054 -0.7661 -0.2472  0.4475
14199TIP3   OH264087   2.233   0.414  15.001  0.7193  0.7887  0.4215
14199TIP3    H164088   2.206   0.369  15.081 -0.8940  0.6700 -0.1657
14199TIP3    H264089   2.204   0.505  15.014 -0.6859  0.4982 -0.5188
14200TIP3   OH264090   5.203   0.231   5.096 -0.1716  0.2467  0.2948
14200TIP3    H164091   5.233   0.257   5.008  0.5245 -0.8314  0.1975
14200TIP3    H264092   5.126   0.176   5.080 -0.4827  0.6499  0.4004
14201TIP3   OH264093   0.044   4.251   1.656  0.6398 -0.2835  0.3567
14201TIP3    H164094  -0.044   4.284   1.677  0.7827 -0.4738  1.3094
14201TIP3    H264095   0.036   4.156   1.663  0.5121 -0.4109 -1.2446
14202TIP3   OH264096   2.294   0.531   0.464  0.4494  0.2421 -0.3872
14202TIP3    H164097   2.235   0.475   0.515  0.1494  1.0089  0.1347
14202TIP3    H264098   2.261   0.526   0.375 -0.2066  0.3981 -0.1595
14203TIP3   OH264099   5.760   5.884  13.552 -0.5123 -0.4564 -0.8960
14203TIP3    H164100   5.843   5.932  13.562 -0.5014 -0.6622  0.0445
14203TIP3    H264101   5.731   5.907  13.463 -0.4891  1.2774 -0.5023
14204TIP3   OH264102   3.559   3.091   6.530 -0.4335 -0.1405 -0.5755
14204TIP3    H164103   3.478   3.042   6.540 -0.9916  0.3612 -2.2906
14204TIP3    H264104   3.605   3.078   6.613 -1.2017 -2.3459 -0.4293
14205TIP3   OH264105   2.958   0.027  17.190 -0.6068 -0.0806  0.3207
14205TIP3    H164106   2.892  -0.005  17.129  0.0005 -1.3866  0.3266
14205TIP3    H264107   2.950   0.123  17.185 -2.4238 -0.2082  0.2748
14206TIP3   OH264108   1.171   0.282   5.674 -0.1101 -0.3749  0.0319
14206TIP3    H164109   1.155   0.376   5.675 -1.4766 -0.5768  1.4752
14206TIP3    H264110   1.093   0.245   5.632 -0.0072 -0.9108  0.2957
14207TIP3   OH264111   4.902   5.825  14.372  0.0951  0.4509 -0.2640
14207TIP3    H164112   4.853   5.792  14.297  0.5199  0.4369 -0.5374
14207TIP3    H264113   4.994   5.810  14.350  0.1851 -2.2735  1.4716
14208TIP3   OH264114   5.559   3.557  14.030 -0.3005  0.0941 -0.2387
14208TIP3    H164115   5.526   3.629  14.083 -0.7198  0.2780 -0.7467
14208TIP3    H264116   5.591   3.598  13.951 -0.8983 -0.3111 -0.6998
14209TIP3   OH264117   1.972   2.932  14.938 -0.0236  0.2612  0.7001
14209TIP3    H164118   2.029   3.003  14.969  1.6948 -0.5639 -0.4231
14209TIP3    H264119   1.910   2.976  14.879  0.0870  1.0294  1.1351
14210TIP3   OH264120   5.880   3.282  17.358  0.0758 -0.2203 -0.0695
14210TIP3    H164121   5.948   3.295  17.424 -0.5455 -0.9359  0.7460
14210TIP3    H264122   5.836   3.201  17.385  0.2406 -0.9099 -1.7580
14211TIP3   OH264123   0.915   6.060  15.636 -0.4123 -0.5701  0.6632
14211TIP3    H164124   0.991   6.021  15.679 -1.2647 -2.1938  0.7871
14211TIP3    H264125   0.850   6.070  15.706  0.1388  2.2492  0.8956
14212TIP3   OH264126   5.760   5.126   1.055  0.5719 -0.2871 -0.6391
14212TIP3    H164127   5.764   5.186   0.981  1.2733 -0.4030 -0.7027
14212TIP3    H264128   5.849   5.090   1.062  0.0447 -1.6896 -0.9040
14213TIP3   OH264129   1.088   5.971   1.715  0.0932  0.7249  0.2900
14213TIP3    H164130   1.089   6.033   1.787 -0.5445  0.6246  0.3906
14213TIP3    H264131   1.007   5.990   1.667 -1.1537 -1.2875  1.4563
14214TIP3   OH264132   5.547   6.742  12.703 -0.2669  0.1333  0.1191
14214TIP3    H164133   5.575   6.751  12.612 -0.8984 -1.0198 -0.2067
14214TIP3    H264134   5.579   6.821  12.745  2.5830 -0.5825 -0.4437
14215TIP3   OH264135   5.772   3.439   3.093 -1.1083  0.1138  0.0909
14215TIP3    H164136   5.865   3.455   3.076 -1.0325  1.4212  1.5720
14215TIP3    H264137   5.763   3.344   3.089 -0.1905  0.0494 -2.2970
14216TIP3   OH264138   5.978   0.222  14.876  0.3932 -0.1947 -0.9195
14216TIP3    H164139   5.891   0.183  14.884  0.4881 -0.3186 -0.4213
14216TIP3    H264140   6.019   0.205  14.961 -0.0404  2.1508 -0.1692
14217TIP3   OH264141   6.449   6.345  11.337  0.0632 -0.1227  0.2109
14217TIP3    H164142   6.394   6.289  11.392 -1.1145  2.3720  1.7787
14217TIP3    H264143   6.457   6.298  11.255 -3.0064 -1.4395  0.5427
14218TIP3   OH264144   5.907   2.588  12.429  0.1159  0.8135 -0.2136
14218TIP3    H164145   5.955   2.506  12.442 -2.2804 -0.9837 -1.9153
14218TIP3    H264146   5.955   2.632  12.359 -0.1073 -0.5285 -1.2689
14219TIP3   OH264147   0.123   4.061  13.174  0.0204  0.3772  0.1620
14219TIP3    H164148   0.080   4.035  13.255  1.8521 -1.2262  0.7168
14219TIP3    H264149   0.076   4.013  13.105  0.3172 -0.6105  0.6366
14220TIP3   OH264150   5.332   4.373  12.890  0.4112  0.2695  0.1272
14220TIP3    H164151   5.270   4.300  12.893 -1.0227  1.4511  2.3727
14220TIP3    H264152   5.417   4.331  12.876 -0.6480 -1.5498 -1.3831
14221TIP3   OH264153   6.586   5.432   0.439  0.1207 -0.3083  0.2713
14221TIP3    H164154   6.632   5.515   0.424 -2.4419  0.7755 -2.4813
14221TIP3    H264155   6.520   5.454   0.505 -0.0893 -0.3615  0.0768
14222TIP3   OH264156   1.206   5.772  15.443 -0.7995 -0.4486  0.6359
14222TIP3    H164157   1.251   5.702  15.395 -1.3393 -0.1596 -0.3109
14222TIP3    H264158   1.150   5.725  15.505 -1.2352 -0.8633 -0.0634
14223TIP3   OH264159   6.641   2.949   3.577 -0.0126 -0.5911 -0.2886
14223TIP3    H164160   6.555   2.991   3.570 -0.4997 -1.7204 -1.3512
14223TIP3    H264161   6.621   2.856   3.590  1.0517 -0.9759 -1.3015
14224TIP3   OH264162   5.474   2.466  14.987  0.1514  0.2161 -0.5119
14224TIP3    H164163   5.562   2.429  14.976  0.0140 -0.2055 -0.2234
14224TIP3    H264164   5.438   2.470  14.898 -0.6950 -2.5020 -0.3802
14225TIP3   OH264165   5.137   0.593   1.225 -0.2513  0.0989 -0.1550
14225TIP3    H164166   5.194   0.607   1.301  0.7134  1.2389 -1.0453
14225TIP3    H264167   5.062   0.545   1.260  1.0333 -1.0582  1.1490
14226TIP3   OH264168   2.302   0.534   1.544  0.0340 -0.5098  0.2778
14226TIP3    H164169   2.280   0.627   1.551  1.3336 -0.2133  0.6915
14226TIP3    H264170   2.228   0.489   1.583 -0.1463  0.4122  1.0455
14227TIP3   OH264171   4.795   2.912  12.286 -0.1128 -0.0700  0.5409
14227TIP3    H164172   4.882   2.901  12.325  0.5134 -0.8683 -1.0107
14227TIP3    H264173   4.750   2.829  12.302  0.1364 -0.3918 -0.3632
14228TIP3   OH264174   2.204   4.041  15.530 -0.0806 -0.0285 -0.1724
14228TIP3    H164175   2.292   4.010  15.548 -0.5309 -1.6276 -0.5790
14228TIP3    H264176   2.176   4.083  15.612  0.8336 -0.0141  0.1407
14229TIP3   OH264177   1.838   4.292  11.106  0.3989 -0.3232  0.6453
14229TIP3    H164178   1.933   4.284  11.110  0.4673 -0.5791 -0.7779
14229TIP3    H264179   1.806   4.206  11.134  0.6415 -0.6480 -0.0414
14230TIP3   OH264180   2.900   4.841   2.443  0.6591 -0.1850  0.0096
14230TIP3    H164181   2.843   4.862   2.517  0.8763 -1.4820  0.5794
14230TIP3    H264182   2.866   4.893   2.371 -0.6694 -0.2190  0.5815
14231TIP3   OH264183   2.932   2.714  11.182  0.2756  0.3115 -0.0735
14231TIP3    H164184   3.017   2.743  11.150  0.2597 -0.4782 -0.8754
14231TIP3    H264185   2.892   2.669  11.108 -1.4002  1.7695 -0.1390
14232TIP3   OH264186   6.505   2.655   4.998 -0.0546 -0.2019 -0.1963
14232TIP3    H164187   6.545   2.687   5.079 -1.8586  2.7558 -0.3540
14232TIP3    H264188   6.444   2.587   5.027  1.0483 -0.8937  0.5980
14233TIP3   OH264189   4.242   2.305  12.992  0.3156 -0.0643 -0.0059
14233TIP3    H164190   4.303   2.313  12.919  0.1115  0.6678 -0.1061
14233TIP3    H264191   4.156   2.327  12.955 -0.3328 -2.5997 -0.2507
14234TIP3   OH264192   2.313   1.122  17.100  0.0580 -0.7052  0.3977
14234TIP3    H164193   2.404   1.092  17.094  0.0291 -0.5820 -1.0574
14234TIP3    H264194   2.270   1.055  17.152  1.3305  0.1542  2.6915
14235TIP3   OH264195   5.421   6.251  13.913  0.1845  0.3086 -0.2388
14235TIP3    H164196   5.350   6.190  13.936  0.0962  0.1747 -0.8455
14235TIP3    H264197   5.447   6.225  13.825  0.5958  0.7345 -0.2457
14236TIP3   OH264198   4.690   4.442   4.812  0.2915  0.4082 -0.4384
14236TIP3    H164199   4.684   4.465   4.904  0.3387 -0.1032 -0.3055
14236TIP3    H264200   4.754   4.371   4.808 -0.7207 -0.5039 -0.6884
14237TIP3   OH264201   1.367   0.455   3.738  0.0156 -0.3152 -1.0366
14237TIP3    H164202   1.462   0.460   3.743  0.1100 -1.4436 -1.4494
14237TIP3    H264203   1.347   0.363   3.755 -1.1663  0.2978  1.2382
14238TIP3   OH264204   0.812   1.799  11.989  0.3123 -0.2404 -0.2988
14238TIP3    H164205   0.889   1.822  12.041  1.4358  0.1803 -2.0650
14238TIP3    H264206   0.780   1.883  11.956 -0.5959 -0.4737 -0.0430
14239TIP3   OH264207   2.772   5.490   5.028  0.2594 -0.2482  0.6021
14239TIP3    H164208   2.830   5.455   5.096 -1.8351 -1.9053  1.6509
14239TIP3    H264209   2.730   5.413   4.991 -0.6479  0.8448 -0.7333
14240TIP3   OH264210   0.237   6.679  12.904  0.0171  0.4051  0.0484
14240TIP3    H164211   0.232   6.735  12.827  2.2096 -1.5118 -1.6474
14240TIP3    H264212   0.312   6.711  12.953  0.5656 -0.2761 -0.3203
14241TIP3   OH264213   3.161   6.099   0.228  0.3899  0.1524 -0.5073
14241TIP3    H164214   3.218   6.162   0.273  0.0188  0.0795  0.0750
14241TIP3    H264215   3.211   6.017   0.227 -0.5138 -0.5055  1.9215
14242TIP3   OH264216   2.816   3.560  15.007 -0.0063 -0.0632 -0.1773
14242TIP3    H164217   2.790   3.652  14.999 -0.8750  0.1555  3.2453
14242TIP3    H264218   2.769   3.514  14.938  0.2948  2.0004 -1.8340
14243TIP3   OH264219   3.928   3.393   0.856 -0.0380 -0.0145 -0.9450
14243TIP3    H164220   3.936   3.299   0.839  1.2356  0.2565 -2.0269
14243TIP3    H264221   3.990   3.409   0.927 -0.9803 -0.1359 -0.0725
14244TIP3   OH264222   6.264   6.641   0.958  0.3371 -0.1866  0.3960
14244TIP3    H164223   6.271   6.556   1.002 -2.7177 -2.1389 -2.4347
14244TIP3    H264224   6.182   6.678   0.992  0.8622  0.9621  0.4572
14245TIP3   OH264225   2.571   3.498   2.532 -0.1503 -0.3706 -0.2940
14245TIP3    H164226   2.546   3.407   2.514 -0.4231  0.2355 -3.6833
14245TIP3    H264227   2.661   3.505   2.499  0.3082  0.3354  1.0444
14246TIP3   OH264228   3.717   6.218   5.130  0.0127 -0.2948 -0.0448
14246TIP3    H164229   3.799   6.264   5.112  0.5325 -0.6591  1.2902
14246TIP3    H264230   3.692   6.181   5.045  1.7335 -0.9655 -0.3207
14247TIP3   OH264231   5.920   4.204   4.901  0.7931 -0.1815 -0.3264
14247TIP3    H164232   5.927   4.210   4.996  0.8625 -1.0951 -0.2640
14247TIP3    H264233   5.834   4.165   4.886  1.3773 -1.4366 -0.5649
14248TIP3   OH264234   1.546   0.335  13.734 -0.2780  0.4390  0.0748
14248TIP3    H164235   1.639   0.313  13.721  0.1757  1.3360  1.5635
14248TIP3    H264236   1.504   0.250  13.751  0.4535  0.1211  0.3591
14249TIP3   OH264237   3.058   3.970   4.683  0.3463  0.0250  0.2769
14249TIP3    H164238   3.141   3.986   4.637 -0.5990 -0.8702 -1.9065
14249TIP3    H264239   3.034   4.055   4.720  2.1688  0.3170  0.8905
14250TIP3   OH264240   2.275   5.992   4.367 -0.3060  0.1961  0.4155
14250TIP3    H164241   2.210   5.959   4.429 -0.0603  0.3754  0.7704
14250TIP3    H264242   2.304   6.075   4.404 -1.1314  0.9644 -0.6171
14251TIP3   OH264243   6.105   2.630  14.061  0.0515  0.8231 -0.2053
14251TIP3    H164244   6.198   2.646  14.074 -0.0554  2.1288 -0.8359
14251TIP3    H264245   6.071   2.712  14.026 -0.7174 -0.5732 -3.1122
14252TIP3   OH264246   6.023   1.107   5.973 -0.7293 -0.4004  0.1241
14252TIP3    H164247   5.930   1.105   5.950 -0.7277 -0.8324  0.1593
14252TIP3    H264248   6.026   1.073   6.063 -0.9203  2.6385  1.4156
14253TIP3   OH264249   5.989   2.788  15.408 -0.0014  0.7551 -0.0981
14253TIP3    H164250   6.067   2.814  15.457  0.1321  1.3840 -0.6342
14253TIP3    H264251   6.022   2.732  15.337 -0.3047 -1.1556  1.1742
14254TIP3   OH264252   3.850   4.599  16.754  0.0283 -0.0556  0.5790
14254TIP3    H164253   3.858   4.692  16.732  0.7849  0.0233  1.1717
14254TIP3    H264254   3.891   4.553  16.680 -0.6946  0.0481  0.0953
14255TIP3   OH264255   3.014   4.234  14.957  0.5905  0.0496 -0.3120
14255TIP3    H164256   2.942   4.190  15.001  0.6506  0.7043  0.4673
14255TIP3    H264257   3.030   4.182  14.878  0.7730 -1.4007  0.6528
14256TIP3   OH264258   2.714   3.113  13.032  0.3802 -0.0037 -0.2610
14256TIP3    H164259   2.728   3.176  12.962 -1.6673 -0.1499 -0.8566
14256TIP3    H264260   2.638   3.145  13.079  1.3290 -0.2628  1.5405
14257TIP3   OH264261   0.176   0.091  15.374  0.4330 -0.0053 -0.3656
14257TIP3    H164262   0.211   0.047  15.296  0.7169 -2.6868  1.1832
14257TIP3    H264263   0.253   0.112  15.426  0.1304  0.1417  0.0282
14258TIP3   OH264264   4.502   3.985   3.478 -0.0766 -0.6535  0.3158
14258TIP3    H164265   4.415   3.999   3.516 -0.0540  0.4177  0.0146
14258TIP3    H264266   4.491   4.007   3.385  0.8129  0.9193  0.5407
14259TIP3   OH264267   2.474   2.677   4.910  1.0121  0.3167  0.0538
14259TIP3    H164268   2.389   2.689   4.868  1.5616  0.6843 -0.9957
14259TIP3    H264269   2.474   2.740   4.982 -0.4698 -1.2325  1.5044
14260TIP3   OH264270   6.674   3.609  13.184  0.1401  0.3616  0.2086
14260TIP3    H164271   6.713   3.620  13.097  0.3032 -0.4910  0.1602
14260TIP3    H264272   6.623   3.528  13.177  1.1231 -0.3752  1.2268
14261TIP3   OH264273   4.621   3.150  15.341  0.6891  0.1145 -0.3260
14261TIP3    H164274   4.541   3.199  15.323 -0.6748 -1.6963  0.5156
14261TIP3    H264275   4.607   3.113  15.428  3.1854  1.1150  0.6078
14262TIP3   OH264276   5.766   2.507  12.836 -0.7472 -0.1305 -0.1508
14262TIP3    H164277   5.750   2.583  12.891  0.6522  1.1243 -1.3836
14262TIP3    H264278   5.854   2.478  12.860 -0.4264 -0.0362 -1.1697
14263TIP3   OH264279   0.404   1.957  16.084  0.2206  0.3164  0.4349
14263TIP3    H164280   0.313   1.969  16.058  0.3916 -0.2877 -0.4977
14263TIP3    H264281   0.428   2.039  16.127 -1.3180 -0.2288  2.4499
14264TIP3   OH264282   1.404   4.415   4.764 -0.5111 -0.0836  0.1448
14264TIP3    H164283   1.356   4.494   4.789 -0.2396 -0.5455  2.2870
14264TIP3    H264284   1.336   4.353   4.738 -0.9033  0.0301  0.8900
14265TIP3   OH264285   4.614   4.970  11.271 -0.0261  0.2297 -0.3808
14265TIP3    H164286   4.591   5.026  11.196  0.4538  1.5482  0.4239
14265TIP3    H264287   4.567   5.009  11.345 -1.2892 -1.6341 -0.1252
14266TIP3   OH264288   5.707   0.180  15.171  0.3719  0.4401 -0.0932
14266TIP3    H164289   5.746   0.242  15.233  0.9078  0.0987 -0.0783
14266TIP3    H264290   5.747   0.096  15.194 -1.5471 -0.2472  0.9566
14267TIP3   OH264291   4.555   1.082  12.960 -0.0365  0.3615  0.4604
14267TIP3    H164292   4.466   1.061  12.986 -1.5020  1.1769 -3.1848
14267TIP3    H264293   4.576   1.162  13.007 -2.0385  1.2285 -0.0280
14268TIP3   OH264294   5.150   0.068   0.318 -0.4175  0.7312 -0.3842
14268TIP3    H164295   5.186  -0.004   0.265 -1.5899 -0.1463 -0.0407
14268TIP3    H264296   5.220   0.133   0.319  0.3517 -0.0164 -1.4519
14269TIP3   OH264297   5.890   3.477   4.304 -0.2781 -0.1784  0.1180
14269TIP3    H164298   5.939   3.403   4.341  0.1772 -0.6106 -1.3014
14269TIP3    H264299   5.948   3.514   4.238 -1.5732 -0.2496 -1.0959
14270TIP3   OH264300   3.096   3.166  16.361 -0.6795  0.0028  0.3837
14270TIP3    H164301   3.009   3.134  16.341 -1.1204  0.8501  0.8840
14270TIP3    H264302   3.123   3.214  16.283 -0.0682 -1.4374 -0.3174
14271TIP3   OH264303   5.006   3.973  12.506 -0.2304 -0.4867 -0.1612
14271TIP3    H164304   4.915   3.974  12.537 -0.3531 -0.7453 -0.5159
14271TIP3    H264305   5.036   3.884  12.522  0.4087 -0.0610  1.2293
14272TIP3   OH264306   6.606   1.205  13.494  0.2849 -0.1813 -0.5292
14272TIP3    H164307   6.573   1.164  13.415  0.0710 -1.5094  0.2305
14272TIP3    H264308   6.551   1.171  13.565  0.2479  1.2309  0.1747
14273TIP3   OH264309   4.890   4.989  11.218  0.2709  0.7246  0.5040
14273TIP3    H164310   4.943   5.007  11.296 -0.2629  1.8378  0.6270
14273TIP3    H264311   4.803   4.968  11.252 -0.1061  1.7530  0.1986
14274TIP3   OH264312   1.406   1.005   5.269  0.1226 -0.0485 -0.2336
14274TIP3    H164313   1.393   1.087   5.316  1.9816  0.3324 -0.2829
14274TIP3    H264314   1.336   1.003   5.204  0.6980  2.1099 -1.0147
14275TIP3   OH264315   5.117   3.192   4.044 -0.0663  0.3671 -0.4857
14275TIP3    H164316   5.185   3.259   4.048  2.0600 -1.5433 -1.7957
14275TIP3    H264317   5.077   3.204   3.958  0.1277  0.1386 -0.6087
14276TIP3   OH264318   1.051   0.055  11.380 -0.0368  0.5894 -0.7102
14276TIP3    H164319   0.981  -0.010  11.389 -0.1216  0.6672 -0.8043
14276TIP3    H264320   1.126   0.016  11.425 -0.2096  0.6079 -0.4042
14277TIP3   OH264321   5.615   6.009   6.140  0.5491 -0.6263  0.4795
14277TIP3    H164322   5.645   5.918   6.144  2.2350 -0.1003  0.7075
14277TIP3    H264323   5.588   6.029   6.229 -0.5116 -1.0886  0.2847
14278TIP3   OH264324   0.690   5.984  14.128  0.0643  0.0550  0.0002
14278TIP3    H164325   0.621   5.929  14.094  0.3637  0.0055 -0.5410
14278TIP3    H264326   0.649   6.070  14.141 -0.2157 -0.1026  0.1474
14279TIP3   OH264327   1.682   1.519  11.462 -0.2499 -0.0553  0.1402
14279TIP3    H164328   1.773   1.535  11.435 -0.2028 -1.9179 -0.9618
14279TIP3    H264329   1.681   1.535  11.556  1.5620 -1.3212  0.4167
14280TIP3   OH264330   1.029   4.327   0.734 -0.3455  0.0139  0.6552
14280TIP3    H164331   0.967   4.311   0.662 -0.5434  3.0256  0.0524
14280TIP3    H264332   1.115   4.321   0.693 -0.3741 -0.2303  0.6254
14281TIP3   OH264333   6.117   1.530   2.010 -0.2732  0.1379  0.1378
14281TIP3    H164334   6.177   1.564   2.076 -1.4761  2.3611  0.2002
14281TIP3    H264335   6.061   1.469   2.059 -2.0614  2.7781  1.6887
14282TIP3   OH264336   5.002   3.153  11.685 -0.2347  0.2230 -0.2603
14282TIP3    H164337   4.989   3.073  11.736  0.3564 -1.1948 -2.2195
14282TIP3    H264338   4.915   3.191  11.677 -0.7249 -0.8525 -0.2474
14283TIP3   OH264339   4.587   5.481   4.097 -0.1102  0.0415  0.3999
14283TIP3    H164340   4.502   5.522   4.111 -0.7551 -0.6497 -1.2119
14283TIP3    H264341   4.576   5.392   4.131 -1.1448 -1.0912 -2.4763
14284TIP3   OH264342   3.129   4.261   4.626  0.8181 -0.1315  0.2766
14284TIP3    H164343   3.121   4.213   4.544 -2.2656 -0.6206  0.7420
14284TIP3    H264344   3.209   4.313   4.616  1.4137 -1.4013 -2.3413
14285TIP3   OH264345   6.292   5.052   5.853 -0.0361 -0.0919 -0.3786
14285TIP3    H164346   6.364   5.092   5.804  0.7810 -0.2223  0.6719
14285TIP3    H264347   6.334   5.017   5.932 -1.3027  0.0775  0.3966
14286TIP3   OH264348   1.095   4.030   6.136  0.2608 -0.5828  0.1495
14286TIP3    H164349   1.095   4.081   6.217 -1.2747  1.0558 -0.8208
14286TIP3    H264350   1.045   3.951   6.158 -2.1243  0.8679  0.2925
14287TIP3   OH264351   6.732   1.029  12.406  0.2248  0.2338  0.1437
14287TIP3    H164352   6.802   1.090  12.382 -0.6602  1.3767  0.3848
14287TIP3    H264353   6.651   1.075  12.382 -0.5555 -0.0363  2.1043
14288TIP3   OH264354   2.513   0.226  13.608  0.7517  0.0187 -0.0759
14288TIP3    H164355   2.495   0.136  13.636 -1.5393  0.3762 -0.1876
14288TIP3    H264356   2.571   0.217  13.532  0.4608 -1.3576 -0.1599
14289TIP3   OH264357   2.518   6.243   3.174  0.1633 -0.5782 -0.0447
14289TIP3    H164358   2.580   6.300   3.127 -1.1482 -0.3671 -1.6150
14289TIP3    H264359   2.461   6.303   3.222  1.8506 -0.8071  2.4526
14290TIP3   OH264360   6.597   6.537  10.479 -0.0067 -0.1149 -0.2991
14290TIP3    H164361   6.633   6.459  10.437  0.8906  0.5423 -0.7759
14290TIP3    H264362   6.540   6.503  10.548 -1.9386 -1.2339 -2.3331
14291TIP3   OH264363   3.401   2.698   6.786 -0.6417  0.2024 -0.5306
14291TIP3    H164364   3.348   2.713   6.864  0.7048  0.1462  0.4325
14291TIP3    H264365   3.404   2.603   6.777  0.5499  0.1336  0.3482
14292TIP3   OH264366   3.537   4.476   1.124 -0.3644 -0.5691 -0.1585
14292TIP3    H164367   3.542   4.500   1.217  2.9324  1.0305 -0.6003
14292TIP3    H264368   3.571   4.386   1.121 -1.6131 -1.0726  0.2726
14293TIP3   OH264369   1.168   1.743  15.330 -0.7943  0.0227  0.4961
14293TIP3    H164370   1.246   1.773  15.284 -0.8655 -1.5802 -0.7803
14293TIP3    H264371   1.186   1.651  15.351 -2.2301 -0.3169  0.3750
14294TIP3   OH264372   0.346   0.358   4.954 -0.4133  0.7969 -0.6930
14294TIP3    H164373   0.368   0.285   5.012  0.1865  1.0169 -0.6306
14294TIP3    H264374   0.348   0.319   4.866  0.9382  0.9465 -0.7519
14295TIP3   OH264375   5.599   2.334   4.043  0.1704  0.4896  0.3578
14295TIP3    H164376   5.642   2.308   4.124 -0.5207 -0.1474  0.5356
14295TIP3    H264377   5.589   2.253   3.994  0.4026  0.8395 -0.2833
14296TIP3   OH264378   4.128   5.754  14.800  0.0100  0.1514  0.0717
14296TIP3    H164379   4.206   5.804  14.773 -0.5590  1.0768  0.0844
14296TIP3    H264380   4.100   5.796  14.882  1.3606 -2.2189  1.8803
14297TIP3   OH264381   2.571   0.391  15.026 -0.2663 -0.1307  0.0151
14297TIP3    H164382   2.561   0.392  14.931 -1.0460 -1.2253  0.0606
14297TIP3    H264383   2.497   0.442  15.059 -0.8213 -0.9490  0.0671
14298TIP3   OH264384   1.468   4.294   5.692  0.3153 -0.1380  0.1005
14298TIP3    H164385   1.414   4.225   5.730  1.7110 -1.1720  0.2603
14298TIP3    H264386   1.447   4.292   5.598 -1.5089  0.9518  0.4424
14299TIP3   OH264387   0.151   4.616  12.642 -0.2288 -0.7100 -0.1765
14299TIP3    H164388   0.057   4.601  12.656 -0.3149  0.8644  1.2279
14299TIP3    H264389   0.194   4.543  12.686 -0.7745 -0.8787  0.0907
14300TIP3   OH264390   3.491   4.065   3.909  0.2396 -0.1494  0.4705
14300TIP3    H164391   3.497   4.138   3.847  0.8685  0.4741  1.2429
14300TIP3    H264392   3.571   4.015   3.894 -0.7871 -1.4668 -0.9704
14301TIP3   OH264393   6.285   3.695   0.137 -0.3285  0.0598 -0.0371
14301TIP3    H164394   6.266   3.691   0.043  0.1815  0.8538 -0.1899
14301TIP3    H264395   6.216   3.644   0.178 -2.0601  1.8030 -0.6474
14302TIP3   OH264396   1.603   0.389   3.601  0.5418 -0.4074  0.6463
14302TIP3    H164397   1.672   0.434   3.552 -0.4575  1.0100  0.4803
14302TIP3    H264398   1.528   0.388   3.541 -0.8338  1.7316  2.1997
14303TIP3   OH264399   0.975   6.260  11.317  0.0027  0.2993 -0.3619
14303TIP3    H164400   1.008   6.286  11.231  0.5756  0.0318 -0.2225
14303TIP3    H264401   0.901   6.202  11.298  0.9729 -0.8602 -0.6859
14304TIP3   OH264402   1.815   0.933  13.896  0.3733  0.0017 -0.9305
14304TIP3    H164403   1.799   0.926  13.801 -0.7758  1.3714 -0.8755
14304TIP3    H264404   1.788   0.849  13.931 -0.8213  0.0624 -1.6434
14305TIP3   OH264405   5.622   2.290  16.488 -0.3629  0.3476  0.0067
14305TIP3    H164406   5.556   2.224  16.511  0.3048 -0.7861 -1.2056
14305TIP3    H264407   5.592   2.369  16.533 -1.7706 -0.4907  0.6457
14306TIP3   OH264408   1.612   3.726   1.765 -0.4138 -0.2430  0.3644
14306TIP3    H164409   1.654   3.676   1.834 -0.4421  0.8846  1.2247
14306TIP3    H264410   1.526   3.685   1.755  0.1840 -1.4266 -0.1621
14307TIP3   OH264411   4.230   4.394  17.050 -0.1031  0.4618 -0.4101
14307TIP3    H164412   4.232   4.387  17.145 -0.3536  1.0568 -0.3549
14307TIP3    H264413   4.139   4.414  17.029 -0.2120 -0.4700 -0.8411
14308TIP3   OH264414   2.538   1.251  12.742 -0.5761 -0.2974 -0.2208
14308TIP3    H164415   2.458   1.303  12.750  0.7446  1.4974  2.7202
14308TIP3    H264416   2.561   1.257  12.649 -3.8880 -1.0857 -1.2335
14309TIP3   OH264417   4.355   4.129  11.964  0.1976 -0.2860 -0.3932
14309TIP3    H164418   4.405   4.124  11.882  0.3453 -3.4140 -0.2423
14309TIP3    H264419   4.421   4.142  12.032  0.2274  0.7637 -0.6059
14310TIP3   OH264420   4.729   0.794  16.128 -0.0573 -0.5687  0.1167
14310TIP3    H164421   4.653   0.835  16.169 -0.5168 -0.9537 -0.3559
14310TIP3    H264422   4.696   0.757  16.046  0.7746 -0.1254 -0.4354
14311TIP3   OH264423   2.060   2.950   0.806  0.1026  0.1634  0.7065
14311TIP3    H164424   2.045   2.869   0.757 -0.4523  1.5096 -1.5374
14311TIP3    H264425   2.013   2.938   0.888  0.2996 -1.8813  0.5724
14312TIP3   OH264426   4.580   3.488  11.425  0.6050  0.3200 -0.1601
14312TIP3    H164427   4.505   3.430  11.433  0.3602  0.8798  2.6479
14312TIP3    H264428   4.545   3.567  11.383 -0.2921  0.3810  0.6649
14313TIP3   OH264429   1.081   6.440   2.936  0.3774  0.1226  0.4914
14313TIP3    H164430   1.134   6.360   2.940 -0.8212 -0.7014  0.4551
14313TIP3    H264431   1.133   6.501   2.884  1.6057 -0.4010  1.0662
14314TIP3   OH264432   3.242   0.570  13.966  0.1997  0.8682 -0.4139
14314TIP3    H164433   3.294   0.651  13.967  0.0506  0.9626 -0.0511
14314TIP3    H264434   3.299   0.505  13.925  0.1111  1.2911 -1.2315
14315TIP3   OH264435   0.218   5.105   3.559  0.4469  0.2962  0.3759
14315TIP3    H164436   0.137   5.114   3.509  1.0481  1.3908 -0.4352
14315TIP3    H264437   0.287   5.098   3.493  1.0135 -0.8131  1.0531
14316TIP3   OH264438   3.558   5.124   3.683 -0.1921  0.1931  0.6057
14316TIP3    H164439   3.596   5.145   3.598 -1.2597  0.4889  0.1893
14316TIP3    H264440   3.525   5.208   3.716  0.9568  0.2509  1.7143
14317TIP3   OH264441   0.980   2.161   5.319 -0.5107  0.3362 -0.1540
14317TIP3    H164442   0.914   2.231   5.320  0.1872  1.0148  1.1673
14317TIP3    H264443   0.939   2.088   5.366 -0.4792  0.6038  0.2914
14318TIP3   OH264444   3.291   0.315  15.241 -0.9387 -0.2015  0.4966
14318TIP3    H164445   3.218   0.270  15.285 -0.7184 -0.3532  0.7091
14318TIP3    H264446   3.254   0.344  15.158 -1.0505 -0.8857  0.2984
14319TIP3   OH264447   2.687   0.187  12.394 -0.1371  0.2442 -0.0002
14319TIP3    H164448   2.756   0.141  12.346 -0.6880 -0.7896  0.1716
14319TIP3    H264449   2.734   0.240  12.458  0.4974 -0.5875  0.2309
14320TIP3   OH264450   3.479   4.576  11.444 -0.0089  0.0730 -0.9269
14320TIP3    H164451   3.519   4.509  11.387  1.9684  1.9985 -1.9652
14320TIP3    H264452   3.395   4.595  11.403  0.2520 -0.4232 -1.7260
14321TIP3   OH264453   3.124   6.303  17.153  0.5299 -0.5357  0.0844
14321TIP3    H164454   3.031   6.300  17.129  0.2388 -1.7798  1.2424
14321TIP3    H264455   3.135   6.229  17.212  2.0848  0.1047  0.6261
14322TIP3   OH264456   6.723   2.377   2.658  0.3448 -0.3657  0.6515
14322TIP3    H164457   6.735   2.288   2.627 -1.9786 -1.2723  2.0121
14322TIP3    H264458   6.680   2.423   2.586 -1.8292 -1.4654  1.1480
14323TIP3   OH264459   5.886   5.237  16.248 -0.0625  0.5719 -0.2544
14323TIP3    H164460   5.863   5.148  16.219 -0.6231 -0.3556  2.6621
14323TIP3    H264461   5.809   5.289  16.228 -1.1644 -0.4441  1.1483
14324TIP3   OH264462   2.532   6.092  16.898  0.0655  0.0183 -0.0950
14324TIP3    H164463   2.469   6.030  16.936 -1.0252 -0.1706 -2.1216
14324TIP3    H264464   2.592   6.037  16.848  0.8562  0.3720  0.4311
14325TIP3   OH264465   3.388   1.717   2.212 -0.3602 -0.3884  0.0106
14325TIP3    H164466   3.464   1.761   2.174 -0.9632  0.3646 -0.3558
14325TIP3    H264467   3.420   1.630   2.237  0.2243 -0.6522 -1.5666
14326TIP3   OH264468   6.211   5.964   6.007 -0.0387  0.2034 -0.0857
14326TIP3    H164469   6.274   5.943   6.076 -1.7971  0.3670  1.6342
14326TIP3    H264470   6.253   6.036   5.959  1.9487 -1.0074 -0.3066
14327TIP3   OH264471   4.163   4.624   3.458 -0.0012 -0.0689 -0.5201
14327TIP3    H164472   4.093   4.689   3.463  0.1043 -0.0420  1.2353
14327TIP3    H264473   4.213   4.636   3.539  0.3932 -1.9171 -0.4425
14328TIP3   OH264474   5.465   0.582   5.404  0.4779 -0.1271 -0.0847
14328TIP3    H164475   5.522   0.528   5.459  0.1839  1.0557  1.4307
14328TIP3    H264476   5.435   0.522   5.335  0.6936 -1.7245  1.1606
14329TIP3   OH264477   4.711   0.044   4.392  0.3504 -0.4353 -1.0590
14329TIP3    H164478   4.807   0.046   4.388  0.4701 -1.6927  0.2244
14329TIP3    H264479   4.683   0.073   4.305  1.8050  2.4046 -0.7102
14330TIP3   OH264480   5.624   2.065  11.612 -0.8786  0.4983  0.9058
14330TIP3    H164481   5.686   2.061  11.684 -0.3702 -0.0548  0.4482
14330TIP3    H264482   5.627   1.977  11.573 -3.7176 -0.3871  2.3477
14331TIP3   OH264483   1.823   3.083   0.207 -0.3626  0.3512  0.6855
14331TIP3    H164484   1.892   3.127   0.256  0.3082  1.4388 -1.1590
14331TIP3    H264485   1.865   3.005   0.170  0.4321  1.8599 -1.8030
14332TIP3   OH264486   1.534   4.669  16.096  0.4868 -0.6707  0.6205
14332TIP3    H164487   1.629   4.681  16.102  0.6128 -1.2590 -0.0558
14332TIP3    H264488   1.513   4.693  16.006 -0.1048  0.0779  0.9560
14333TIP3   OH264489   1.809   2.288  11.599  0.3075 -0.0865  0.2203
14333TIP3    H164490   1.853   2.203  11.585  0.4601  0.2438 -1.5897
14333TIP3    H264491   1.762   2.304  11.517  1.6151  2.3426 -0.1429
14334TIP3   OH264492   0.268   0.520  12.617  0.3241  0.3516  0.0762
14334TIP3    H164493   0.292   0.427  12.619 -0.9752 -0.0102 -0.2143
14334TIP3    H264494   0.310   0.554  12.538 -0.3924 -0.3527 -0.6284
14335TIP3   OH264495   2.462   5.235   5.137 -0.2482  0.2055  0.1159
14335TIP3    H164496   2.490   5.217   5.047 -2.1848  0.8136 -0.6662
14335TIP3    H264497   2.491   5.159   5.187 -0.2033 -0.7226 -1.2773
14336TIP3   OH264498   0.580   1.729  12.450  0.2882 -0.2736 -0.6463
14336TIP3    H164499   0.636   1.716  12.373 -0.0440 -0.5396 -0.8458
14336TIP3    H264500   0.638   1.719  12.525  0.5014 -0.5710 -0.8514
14337TIP3   OH264501   5.499   3.066  12.164 -0.3573 -0.3173 -0.1744
14337TIP3    H164502   5.406   3.087  12.158  0.0373  1.2368 -1.9968
14337TIP3    H264503   5.523   3.088  12.254 -1.5689  0.1292  0.0595
14338TIP3   OH264504   3.843   2.833  16.431 -0.1491 -0.4178  0.0668
14338TIP3    H164505   3.880   2.746  16.440  0.3553 -0.0328  2.3212
14338TIP3    H264506   3.768   2.834  16.490 -2.1751 -0.3098 -2.3772
14339TIP3   OH264507   6.069   3.970  13.729  0.1112 -0.7895 -1.0695
14339TIP3    H164508   5.985   3.968  13.683 -0.9341  0.6145  0.6138
14339TIP3    H264509   6.135   3.971  13.660 -1.2939 -0.7526 -2.4635
14340TIP3   OH264510   4.340   6.259  15.704  0.5820 -0.6239  0.0100
14340TIP3    H164511   4.434   6.247  15.720  0.9050  1.6897  0.1174
14340TIP3    H264512   4.304   6.289  15.787 -0.6671 -3.2020  0.4994
14341TIP3   OH264513   2.915   1.461   6.597 -0.0235 -0.0422 -0.2759
14341TIP3    H164514   2.948   1.480   6.685  2.0467 -0.1350 -0.9914
14341TIP3    H264515   2.863   1.538   6.574 -1.1833 -0.3045  1.2468
14342TIP3   OH264516   1.999   4.483   0.118 -0.6483 -0.0050 -0.6778
14342TIP3    H164517   1.948   4.401   0.117 -0.0425 -0.4026  0.0317
14342TIP3    H264518   1.941   4.547   0.078 -1.3739 -0.6509 -0.6930
14343TIP3   OH264519   3.825   6.057  13.753  0.1489 -0.4940  0.2582
14343TIP3    H164520   3.873   6.005  13.690  1.2886 -0.0870  0.7545
14343TIP3    H264521   3.888   6.074  13.823 -1.0190 -0.7836  1.4216
14344TIP3   OH264522   3.974   3.866  12.476 -0.5818  0.0986  0.1692
14344TIP3    H164523   3.944   3.814  12.551 -1.0893  1.1545  0.7156
14344TIP3    H264524   4.054   3.821  12.446 -1.1676 -1.1578  0.4320
14345TIP3   OH264525   2.925   3.613   0.045 -0.2143  0.0306 -0.1717
14345TIP3    H164526   2.962   3.668  -0.024  0.5829 -0.2668  0.0027
14345TIP3    H264527   2.922   3.669   0.122  3.4986 -0.8934  0.8755
14346TIP3   OH264528   3.552   4.551   2.258 -0.6449 -0.2033 -0.5705
14346TIP3    H164529   3.581   4.460   2.258 -2.7456 -0.9508 -1.9725
14346TIP3    H264530   3.502   4.560   2.339  0.3214  0.0057  0.0199
14347TIP3   OH264531   0.318   1.889   4.741 -0.0560 -0.0316 -0.0608
14347TIP3    H164532   0.391   1.904   4.801 -1.2614  2.4555  0.9290
14347TIP3    H264533   0.253   1.842   4.793 -0.0950 -0.1642 -0.2271
14348TIP3   OH264534   4.813   6.263   6.117  0.4132  0.4618  0.2900
14348TIP3    H164535   4.765   6.319   6.056  1.2024  0.8378 -0.0007
14348TIP3    H264536   4.750   6.243   6.186 -0.3011  0.5441 -0.3326
14349TIP3   OH264537   1.681   3.041  14.724 -0.5016 -0.0333 -0.5783
14349TIP3    H164538   1.590   3.060  14.749  0.0950  3.1147 -0.3687
14349TIP3    H264539   1.681   3.043  14.629 -0.7057 -0.3777 -0.5865
14350TIP3   OH264540   6.678   3.279  14.550  0.1125  0.5183  0.2120
14350TIP3    H164541   6.633   3.347  14.499  0.2414  0.7473  0.4047
14350TIP3    H264542   6.622   3.265  14.626 -1.2740 -1.4261 -1.0645
14351TIP3   OH264543   5.367   0.347   5.598 -0.3442  0.1512  0.8036
14351TIP3    H164544   5.305   0.381   5.662 -0.0506 -0.2020  1.2862
14351TIP3    H264545   5.319   0.280   5.551 -1.2157  1.7908 -0.7691
14352TIP3   OH264546   0.872   5.945  17.412 -0.3316  0.2115 -0.4031
14352TIP3    H164547   0.851   5.994  17.491  0.0934 -0.0297 -0.1403
14352TIP3    H264548   0.925   5.872  17.442 -0.5451 -0.1357 -0.8540
14353TIP3   OH264549   6.347   0.367  15.473  0.1168  0.2379 -0.0359
14353TIP3    H164550   6.387   0.304  15.533 -1.7757 -2.8498 -1.7286
14353TIP3    H264551   6.394   0.353  15.390 -0.0467  1.4321 -0.3409
14354TIP3   OH264552   1.181   5.983   4.568 -0.1291  0.5857  0.0032
14354TIP3    H164553   1.106   6.037   4.541 -1.0427 -0.8588 -0.4794
14354TIP3    H264554   1.246   6.046   4.599 -1.0105  1.9780 -0.8583
14355TIP3   OH264555   1.621   4.886  11.915  0.3212 -0.3821  0.0120
14355TIP3    H164556   1.641   4.796  11.941  0.0779 -0.4276  0.0398
14355TIP3    H264557   1.695   4.937  11.948  0.9343 -0.6981 -0.8120
14356TIP3   OH264558   3.898   0.483   6.366 -0.1078 -0.3903  0.0213
14356TIP3    H164559   3.917   0.420   6.436 -0.3880  0.9468  1.3556
14356TIP3    H264560   3.845   0.550   6.408  0.6556  1.0377 -1.1980
14357TIP3   OH264561   1.660   4.137  12.197 -0.0579  0.0299  0.0680
14357TIP3    H164562   1.578   4.090  12.213 -0.2592  0.5239  0.5124
14357TIP3    H264563   1.704   4.086  12.129 -1.0029  0.0844 -0.6075
14358TIP3   OH264564   6.733   4.151   6.225 -0.1638 -0.7954  0.6719
14358TIP3    H164565   6.659   4.186   6.275  0.1138 -0.4955  0.8796
14358TIP3    H264566   6.744   4.061   6.257  0.3916 -0.4193  1.6057
14359TIP3   OH264567   4.937   1.580   6.038  0.2488 -0.1962 -0.1691
14359TIP3    H164568   4.940   1.602   6.131  0.3626 -0.2202 -0.1665
14359TIP3    H264569   4.845   1.562   6.020  0.4058 -1.4565  0.2319
14360TIP3   OH264570   5.012   3.795   3.013  0.2395 -0.1967  0.1157
14360TIP3    H164571   5.052   3.748   2.939  0.5848  2.9323 -1.9061
14360TIP3    H264572   4.918   3.792   2.995  0.3917  1.9520 -1.5820
14361TIP3   OH264573   6.547   1.344   5.793  0.1566  0.4088  0.3624
14361TIP3    H164574   6.487   1.287   5.841 -0.6127 -0.3652 -1.4324
14361TIP3    H264575   6.560   1.300   5.709  2.8260  0.8269  0.4587
14362TIP3   OH264576   4.973   5.154  14.414  0.0412  0.4678  0.1843
14362TIP3    H164577   4.960   5.187  14.324  0.4664 -1.4732 -0.6407
14362TIP3    H264578   5.061   5.183  14.437  0.9093 -1.0793 -1.0241
14363TIP3   OH264579   3.827   4.461  13.428 -0.3183  0.1849 -0.2869
14363TIP3    H164580   3.815   4.375  13.387 -2.1762  0.9091 -1.3727
14363TIP3    H264581   3.738   4.488  13.453 -0.1078  2.7722 -2.0322
14364TIP3   OH264582   4.000   4.541  15.829 -0.0101 -0.2114  0.1432
14364TIP3    H164583   3.985   4.477  15.760  0.4542 -1.4991  1.1899
14364TIP3    H264584   3.913   4.571  15.854 -0.4340 -2.0703  1.0954
14365TIP3   OH264585   2.854   4.701  12.848  0.8008  0.2972  0.3126
14365TIP3    H164586   2.783   4.709  12.785  0.8898  0.4998  0.2358
14365TIP3    H264587   2.854   4.784  12.896 -1.7489 -1.2243  3.2560
14366TIP3   OH264588   4.254   0.955  15.042  0.7400  0.3750 -0.2144
14366TIP3    H164589   4.168   0.996  15.032  0.4705 -0.2011 -0.3001
14366TIP3    H264590   4.283   0.980  15.130 -0.5804 -1.3421  0.7810
14367TIP3   OH264591   3.039   4.384   4.207 -0.2425  0.2324 -0.0713
14367TIP3    H164592   3.055   4.322   4.136  0.8797  1.5706 -1.0349
14367TIP3    H264593   3.120   4.435   4.214 -0.4754  0.4208  1.9056
14368TIP3   OH264594   4.925   2.355  12.081 -0.3183  0.2779  0.5058
14368TIP3    H164595   5.008   2.402  12.086  0.1302 -0.4395 -0.0620
14368TIP3    H264596   4.884   2.390  12.001  0.0398 -0.3204  0.0536
14369TIP3   OH264597   4.606   1.846   1.464 -0.1283 -0.7160  0.6002
14369TIP3    H164598   4.629   1.844   1.371  0.5168 -0.6738  0.7567
14369TIP3    H264599   4.586   1.755   1.485 -0.4573 -0.6983  0.3783
14370TIP3   OH264600   4.470   4.792   4.153  0.2698  0.1142 -0.0670
14370TIP3    H164601   4.497   4.758   4.067  1.6974 -0.8539  0.7395
14370TIP3    H264602   4.501   4.882   4.154  0.5595  0.0199 -0.4245
14371TIP3   OH264603   4.271   3.765   5.090 -0.0946  0.7549 -0.4181
14371TIP3    H164604   4.260   3.673   5.113 -0.1143  1.1188  1.1898
14371TIP3    H264605   4.186   3.806   5.108  1.1930  2.0121  4.0587
14372TIP3   OH264606   2.139   3.542  16.961 -0.2790  0.0308 -0.1410
14372TIP3    H164607   2.203   3.593  17.009 -0.1767 -0.0117 -0.2348
14372TIP3    H264608   2.181   3.519  16.879  0.2976 -1.5661  0.5416
14373TIP3   OH264609   0.394   2.110  16.809 -0.0332 -0.0857 -0.4038
14373TIP3    H164610   0.416   2.158  16.889 -0.7580  0.6246 -0.6115
14373TIP3    H264611   0.477   2.100  16.763  0.3966 -0.5403  0.4488
14374TIP3   OH264612   4.490   3.046   2.378  0.1942 -0.2076  0.1995
14374TIP3    H164613   4.477   3.056   2.472  0.1073  1.1954  0.0645
14374TIP3    H264614   4.406   3.070   2.339  0.4858  0.0589 -0.2724
14375TIP3   OH264615   0.371   4.601  16.745 -0.3243  0.2707 -0.7966
14375TIP3    H164616   0.293   4.550  16.766 -0.5690  0.8342 -0.3077
14375TIP3    H264617   0.345   4.653  16.669 -0.8761  1.4164  0.1374
14376TIP3   OH264618   5.981   4.708  14.230 -0.4884  0.1645  0.5468
14376TIP3    H164619   6.010   4.656  14.305 -0.7414  0.2344  0.6958
14376TIP3    H264620   6.055   4.766  14.211  0.1923 -0.9502 -0.2717
14377TIP3   OH264621   4.214   4.018  13.822  0.0833  0.0165  0.0428
14377TIP3    H164622   4.304   3.992  13.802  0.4847  1.5052 -0.1769
14377TIP3    H264623   4.180   3.946  13.876  0.9010 -1.2711 -1.0901
14378TIP3   OH264624   4.733   1.806  11.395  0.0750 -0.4063 -0.0473
14378TIP3    H164625   4.669   1.865  11.356  1.8711  1.1893 -0.7891
14378TIP3    H264626   4.758   1.848  11.477  2.4972  0.8216 -1.2989
14379TIP3   OH264627   4.770   4.828   6.512 -0.3062  0.1523 -0.1644
14379TIP3    H164628   4.677   4.807   6.525 -0.2115  0.0450  0.3526
14379TIP3    H264629   4.770   4.911   6.465 -0.6650  0.2272 -0.0352
14380TIP3   OH264630   2.549   0.812   2.714 -0.1834 -0.0034 -0.1553
14380TIP3    H164631   2.604   0.735   2.729 -2.0351 -1.0269  1.9294
14380TIP3    H264632   2.573   0.873   2.784 -0.4124  0.3311 -0.3623
14381TIP3   OH264633   4.886   5.067   2.727 -0.2111  0.2987  0.5242
14381TIP3    H164634   4.871   5.072   2.633  1.0104  0.4165  0.3225
14381TIP3    H264635   4.798   5.066   2.766 -0.7636 -1.0996 -0.6705
14382TIP3   OH264636   4.061   3.143  15.426  0.3314 -0.5223  0.1453
14382TIP3    H164637   4.092   3.232  15.409 -1.7499  0.1877 -0.1533
14382TIP3    H264638   4.078   3.129  15.519 -1.8607  1.2975  0.8919
14383TIP3   OH264639   3.429   5.468  13.224  0.1148 -0.2110 -0.3517
14383TIP3    H164640   3.489   5.464  13.150 -0.3027 -1.3864 -0.6434
14383TIP3    H264641   3.421   5.378  13.254  0.9535  0.3471  1.6962
14384TIP3   OH264642   5.025   0.584   3.591 -0.0260 -0.3608  0.3187
14384TIP3    H164643   5.115   0.576   3.622  0.1977 -1.0937 -0.4840
14384TIP3    H264644   5.002   0.496   3.560 -1.2750 -0.3697  1.1751
14385TIP3   OH264645   6.145   4.126  11.878 -0.4556 -0.7256  0.3407
14385TIP3    H164646   6.205   4.200  11.864 -0.4662 -0.6344  0.7808
14385TIP3    H264647   6.059   4.167  11.887 -0.5086 -0.8183  0.2566
14386TIP3   OH264648   5.932   5.881   1.707  0.1248  0.1439 -0.2977
14386TIP3    H164649   5.936   5.851   1.798 -1.5922 -1.5459 -0.7198
14386TIP3    H264650   6.014   5.850   1.668 -0.6556 -2.2466 -0.1627
14387TIP3   OH264651   5.544   1.157   2.819 -0.5145 -0.4226 -0.2344
14387TIP3    H164652   5.590   1.201   2.747  0.8028 -0.9858  0.2389
14387TIP3    H264653   5.515   1.228   2.876 -0.7773 -0.0244 -0.8519
14388TIP3   OH264654   2.831   0.999   5.365  0.2023  0.4938 -0.2124
14388TIP3    H164655   2.900   1.002   5.298  0.3658 -3.2998 -0.4657
14388TIP3    H264656   2.878   1.006   5.448  0.7840 -0.5245 -0.4256
14389TIP3   OH264657   1.492   0.079   1.733  0.3423  0.0274 -0.4214
14389TIP3    H164658   1.462   0.137   1.664  2.3358  0.9365 -0.5928
14389TIP3    H264659   1.547   0.134   1.789  1.3720 -1.4150  0.0653
14390TIP3   OH264660   1.452   4.517  11.717 -0.0108 -0.2538  0.3346
14390TIP3    H164661   1.448   4.565  11.634  1.8760 -0.5881  0.0165
14390TIP3    H264662   1.541   4.530  11.748  0.2621 -2.6742  0.7518
14391TIP3   OH264663   5.452   1.985   4.770 -0.5631  0.6332  0.3930
14391TIP3    H164664   5.405   2.068   4.774 -1.0366  0.3526  0.8923
14391TIP3    H264665   5.516   1.990   4.840 -1.1356  0.2686  0.9604
14392TIP3   OH264666   4.530   4.009  16.537  0.4335 -0.3278 -0.2059
14392TIP3    H164667   4.441   4.039  16.519 -0.6983 -0.4979  4.1394
14392TIP3    H264668   4.567   4.077  16.593  2.6843 -0.8219 -0.9997
14393TIP3   OH264669   2.127   4.802   2.462 -0.1307  0.1654  0.0237
14393TIP3    H164670   2.177   4.827   2.384 -2.1037  0.1668 -1.3337
14393TIP3    H264671   2.148   4.710   2.476  0.6652  0.3101 -0.1711
14394TIP3   OH264672   1.302   5.437  14.262 -0.4793 -0.7516 -0.3984
14394TIP3    H164673   1.272   5.510  14.315 -0.6663  0.2885 -1.8674
14394TIP3    H264674   1.222   5.397  14.228 -0.4511  1.7370 -3.9373
14395TIP3   OH264675   3.473   3.766  16.730 -0.2504 -0.3213  0.5452
14395TIP3    H164676   3.502   3.837  16.788  0.8917  0.1324 -0.5302
14395TIP3    H264677   3.540   3.763  16.662 -2.8617  1.0149 -2.3119
14396TIP3   OH264678   5.065   0.868   0.493  0.2421  0.2433 -0.2255
14396TIP3    H164679   5.048   0.949   0.444  0.1858  1.3455  1.5302
14396TIP3    H264680   5.151   0.880   0.532 -0.2183 -0.0620  0.9370
14397TIP3   OH264681   2.995   1.170  16.392 -0.2377  0.0616  0.0310
14397TIP3    H164682   2.991   1.178  16.487 -0.3735 -0.3363  0.0595
14397TIP3    H264683   3.042   1.089  16.376 -0.7334 -0.1835 -0.2309
14398TIP3   OH264684   1.020   1.994   1.936 -0.5372  0.3130  0.1537
14398TIP3    H164685   0.975   1.914   1.909 -1.3120  0.8440 -0.1924
14398TIP3    H264686   0.952   2.062   1.931  0.7267  1.5637 -2.3893
14399TIP3   OH264687   3.229   0.725   5.869 -0.2711  0.0391  0.2769
14399TIP3    H164688   3.195   0.706   5.781 -0.0020  1.0661 -0.0567
14399TIP3    H264689   3.161   0.777   5.911 -0.7313 -1.0852  0.9654
14400TIP3   OH264690   1.604   2.459  15.610  0.0967  0.1422  0.0563
14400TIP3    H164691   1.655   2.507  15.545  0.1259 -0.3145 -0.2680
14400TIP3    H264692   1.554   2.526  15.656 -1.4634  0.3259 -1.7592
14401TIP3   OH264693   6.118   6.008  16.876 -0.3728 -0.2262  0.0782
14401TIP3    H164694   6.181   5.957  16.927 -1.1608 -1.1380  0.1442
14401TIP3    H264695   6.034   5.965  16.890 -0.4593 -1.2270 -2.9161
14402TIP3   OH264696   3.897   2.726   3.879 -0.2519  0.2207  0.2099
14402TIP3    H164697   3.920   2.776   3.801  1.5509 -1.1225 -0.1889
14402TIP3    H264698   3.911   2.786   3.952 -1.2868  1.2754 -0.4470
14403TIP3   OH264699   5.666   3.484  17.317  0.5498  0.0627  0.1246
14403TIP3    H164700   5.643   3.507  17.407  1.2275  0.6452  0.1583
14403TIP3    H264701   5.762   3.489  17.315  0.8298 -3.2092  0.2529
14404TIP3   OH264702   1.481   1.367   1.822  0.0867  0.3893  0.2709
14404TIP3    H164703   1.437   1.386   1.904  0.3895  1.5086  0.1866
14404TIP3    H264704   1.425   1.407   1.755 -0.7175 -1.4160 -0.1927
14405TIP3   OH264705   6.511   5.777   6.410  0.6515 -0.0630 -0.2503
14405TIP3    H164706   6.526   5.696   6.458  1.1540 -0.7565 -1.5256
14405TIP3    H264707   6.416   5.779   6.396  0.3784  0.6025  1.4966
14406TIP3   OH264708   4.116   6.374   5.077  0.5331 -0.1703  0.1299
14406TIP3    H164709   4.088   6.290   5.114 -0.6658  0.4307  0.6551
14406TIP3    H264710   4.034   6.422   5.061  1.1872  0.8729 -0.2183
14407TIP3   OH264711   0.796   5.275  17.134  0.2486  0.7520  0.0132
14407TIP3    H164712   0.857   5.276  17.061 -0.1563 -0.3099 -0.3538
14407TIP3    H264713   0.710   5.279  17.094  0.0151 -0.0827  0.4118
14408TIP3   OH264714   0.179   0.169   0.442  0.4400  0.3456 -0.4663
14408TIP3    H164715   0.146   0.164   0.353  0.0006  1.5498 -0.3948
14408TIP3    H264716   0.204   0.079   0.464  0.9729  0.1101 -1.9414
14409TIP3   OH264717   1.225   5.103   4.981  0.2269  0.7718  0.9720
14409TIP3    H164718   1.134   5.111   4.952  0.1833 -0.6843  0.6324
14409TIP3    H264719   1.221   5.046   5.058  0.7962  1.2213  1.3423
14410TIP3   OH264720   6.331   5.507   5.021 -0.7625  0.1080  0.1634
14410TIP3    H164721   6.360   5.508   4.929  1.0395 -0.3141  0.6848
14410TIP3    H264722   6.375   5.431   5.059 -1.3798  0.3499  1.4170
14411TIP3   OH264723   2.708   2.804  15.157 -0.1726 -0.9539 -0.5986
14411TIP3    H164724   2.744   2.727  15.201  1.9145  0.1268 -0.3047
14411TIP3    H264725   2.749   2.805  15.071  2.3822  1.4470  0.4811
14412TIP3   OH264726   0.739   2.690   1.273 -0.1116 -0.2495 -0.1329
14412TIP3    H164727   0.646   2.710   1.266 -0.1605 -0.6424 -0.7392
14412TIP3    H264728   0.742   2.595   1.282  0.2238 -0.2181  0.1023
14413TIP3   OH264729   6.023   5.955  12.267  0.0208 -0.4552 -0.2789
14413TIP3    H164730   5.950   5.983  12.211 -0.7780 -1.3503  0.2788
14413TIP3    H264731   6.079   6.033  12.274 -0.6722  0.1348 -1.0398
14414TIP3   OH264732   2.024   2.387   3.558  0.3084 -0.1699  0.1147
14414TIP3    H164733   2.047   2.344   3.640 -0.4563 -0.7300  0.0448
14414TIP3    H264734   1.950   2.337   3.524  0.2918  0.3610 -0.6677
14415TIP3   OH264735   4.564   1.066  13.270 -0.0199  0.3568 -0.3393
14415TIP3    H164736   4.570   0.984  13.221 -0.5735  0.0170  0.1572
14415TIP3    H264737   4.565   1.040  13.362 -0.1528  0.9128 -0.1767
14416TIP3   OH264738   5.657   5.314  12.084  0.0747 -0.2458  0.0340
14416TIP3    H164739   5.689   5.385  12.140 -0.2501  0.4862 -0.6906
14416TIP3    H264740   5.632   5.244  12.145  0.1897  0.3481  0.7684
14417TIP3   OH264741   5.477   1.243  12.874 -0.1460 -0.0972 -0.3095
14417TIP3    H164742   5.432   1.160  12.860  1.8316 -0.8180 -3.5841
14417TIP3    H264743   5.538   1.226  12.946 -0.7025 -1.0462 -0.0508
14418TIP3   OH264744   5.209   0.617   1.609 -0.4788 -0.1588 -0.2653
14418TIP3    H164745   5.210   0.521   1.602  0.6308 -0.0769 -1.7448
14418TIP3    H264746   5.282   0.638   1.666 -1.2712 -0.2022  0.8050
14419TIP3   OH264747   3.717   0.778  13.415  0.4455  0.0520  0.2865
14419TIP3    H164748   3.751   0.862  13.385  2.2715 -1.2983 -1.6829
14419TIP3    H264749   3.643   0.759  13.357 -0.1046  0.3543  0.8696
14420TIP3   OH264750   5.381   4.644   1.936  0.2726 -0.0368 -0.2257
14420TIP3    H164751   5.460   4.597   1.962  0.2869 -0.2388 -0.6280
14420TIP3    H264752   5.350   4.686   2.016  0.9859  0.3377 -0.1344
14421TIP3   OH264753   6.127   3.351  17.467 -0.1948  0.0987 -0.7420
14421TIP3    H164754   6.111   3.391  17.552 -1.6428 -0.7336 -0.5971
14421TIP3    H264755   6.198   3.288  17.483  0.2055  0.6347 -0.3802
14422TIP3   OH264756   4.794   5.992   2.327 -0.5713  0.0698 -0.5072
14422TIP3    H164757   4.811   5.942   2.407 -0.9735 -1.2743 -1.2415
14422TIP3    H264758   4.718   5.951   2.287 -0.1474  0.4672 -1.7916
14423TIP3   OH264759   0.930   5.252  13.898 -0.1096 -0.0655 -0.0735
14423TIP3    H164760   0.966   5.293  13.819 -0.3962 -0.9629 -0.6890
14423TIP3    H264761   0.975   5.168  13.904 -1.6570 -0.9741 -0.5542
14424TIP3   OH264762   1.740   6.575  11.347  0.1924 -0.1083  0.4259
14424TIP3    H164763   1.815   6.514  11.344  0.5513  0.3295  0.3618
14424TIP3    H264764   1.777   6.659  11.321 -0.5957 -0.1548 -0.9488
14425TIP3   OH264765   4.393   4.338  14.289  0.2429  0.0002  0.0852
14425TIP3    H164766   4.307   4.311  14.256 -0.1047  1.1100  0.0488
14425TIP3    H264767   4.452   4.328  14.215  0.8697 -3.7760  0.8913
14426TIP3   OH264768   6.311   5.855  16.999  0.6074  0.3609  0.0386
14426TIP3    H164769   6.399   5.829  17.027 -0.4724 -2.1845  1.4781
14426TIP3    H264770   6.291   5.795  16.926 -1.0944 -1.5377  1.9125
14427TIP3   OH264771   4.183   5.445   1.659 -0.0729 -0.1392 -0.0795
14427TIP3    H164772   4.185   5.364   1.607  1.5434  0.6292 -1.2947
14427TIP3    H264773   4.173   5.515   1.595  1.3519  0.8030  0.6643
14428TIP3   OH264774   5.688   6.589   5.935 -0.0751 -0.0510  0.2168
14428TIP3    H164775   5.686   6.530   6.010 -0.7818  1.7394  1.6813
14428TIP3    H264776   5.596   6.608   5.916  0.1211  0.1469 -0.5961
14429TIP3   OH264777   1.113   2.698   4.134  0.2580 -0.1654  0.0642
14429TIP3    H164778   1.170   2.717   4.060 -0.4747 -0.2774 -0.5501
14429TIP3    H264779   1.159   2.731   4.211  1.5541 -1.0721 -0.2972
14430TIP3   OH264780   1.092   3.170   2.618 -0.1284 -0.0095  0.1865
14430TIP3    H164781   1.007   3.182   2.575 -0.2453 -0.1235  0.3831
14430TIP3    H264782   1.143   3.117   2.556  0.0817  0.7318 -0.2912
14431TIP3   OH264783   1.963   1.739  16.875  0.9603 -0.0324  0.5444
14431TIP3    H164784   1.977   1.785  16.792  1.2135 -0.8817  0.0938
14431TIP3    H264785   1.999   1.651  16.859  0.0397 -0.5470  1.1987
14432TIP3   OH264786   3.124   1.869   2.041  0.5851  0.1283 -0.2739
14432TIP3    H164787   3.159   1.825   2.118 -0.2253 -0.0950 -0.0237
14432TIP3    H264788   3.039   1.828   2.026  0.3995  0.6917 -0.8366
14433TIP3   OH264789   0.442   5.546  16.195  0.1717 -0.3254  0.1915
14433TIP3    H164790   0.480   5.550  16.108 -0.7908  1.4216 -0.1982
14433TIP3    H264791   0.406   5.634  16.210 -0.2706 -0.7746  2.0750
14434TIP3   OH264792   2.312   3.452   1.895  0.7640 -0.0850  0.3834
14434TIP3    H164793   2.270   3.366   1.887  0.5112  0.2108 -2.5130
14434TIP3    H264794   2.239   3.514   1.890  1.1782  0.3344 -0.8880
14435TIP3   OH264795   4.045   1.995   3.126  0.5814 -0.6340 -0.0285
14435TIP3    H164796   4.093   1.997   3.043  0.8309 -1.2628  0.0938
14435TIP3    H264797   4.113   1.985   3.192  0.4616  0.8564  0.3336
14436TIP3   OH264798   5.636   2.142  16.853 -0.4984  0.3731  0.4797
14436TIP3    H164799   5.578   2.216  16.835  0.5945  1.8823  2.7276
14436TIP3    H264800   5.580   2.079  16.899 -0.6964  1.2352  1.4512
14437TIP3   OH264801   6.591   6.382   1.635  0.2811  0.2229 -0.5604
14437TIP3    H164802   6.501   6.407   1.615 -0.0428 -2.2671 -2.7114
14437TIP3    H264803   6.645   6.441   1.583 -0.2345  0.2178 -1.1135
14438TIP3   OH264804   2.594   5.583   5.338 -0.6397 -0.5212 -0.4751
14438TIP3    H164805   2.631   5.638   5.270 -1.7097  0.4299 -0.3129
14438TIP3    H264806   2.512   5.550   5.301 -0.4763 -1.2435 -0.2157
14439TIP3   OH264807   4.391   4.595   0.420 -0.1268 -0.5629 -0.4306
14439TIP3    H164808   4.348   4.538   0.356 -1.9433  0.0639  0.1601
14439TIP3    H264809   4.362   4.561   0.505 -0.6393  0.7589 -0.0536
14440TIP3   OH264810   5.671   3.325  12.250 -0.0006  0.5643  0.1290
14440TIP3    H164811   5.756   3.321  12.205  0.4301 -0.9186  0.9865
14440TIP3    H264812   5.607   3.302  12.183  0.3995  0.5479 -0.2528
14441TIP3   OH264813   4.645   0.198   2.829  0.3163  0.2729  0.3604
14441TIP3    H164814   4.660   0.153   2.912 -3.2791 -2.1906 -0.1272
14441TIP3    H264815   4.668   0.134   2.762  0.1383  1.1046 -0.5219
14442TIP3   OH264816   3.645   1.813   5.917 -0.0439  0.2285 -0.1590
14442TIP3    H164817   3.594   1.883   5.959 -0.0055  0.5722 -0.6680
14442TIP3    H264818   3.612   1.811   5.827 -1.7446 -2.0331  0.4275
14443TIP3   OH264819   1.746   3.205   5.215 -0.1729 -0.1280 -0.7515
14443TIP3    H164820   1.756   3.112   5.192 -0.7134 -0.5053  0.4644
14443TIP3    H264821   1.658   3.228   5.185 -0.1716 -0.1091 -0.7409
14444TIP3   OH264822   0.338   6.084  13.872  0.1608  0.1453  0.3185
14444TIP3    H164823   0.284   6.064  13.796 -0.3383 -0.2286  0.7723
14444TIP3    H264824   0.290   6.153  13.918 -1.3231 -1.9805  2.1580
14445TIP3   OH264825   3.222   1.982  10.945  0.0387 -0.1255  0.8280
14445TIP3    H164826   3.211   1.904  10.890 -1.2960  1.8584 -1.9673
14445TIP3    H264827   3.299   2.026  10.909 -0.3642  0.8164  1.0900
14446TIP3   OH264828   1.013   1.661  14.899 -0.0861  0.2310  0.0802
14446TIP3    H164829   1.097   1.680  14.942 -0.3582 -0.3600  0.8929
14446TIP3    H264830   0.991   1.742  14.854  0.4903  0.6920  0.6004
14447TIP3   OH264831   0.464   6.714   0.345  0.2370  0.0846  0.0202
14447TIP3    H164832   0.453   6.621   0.323  2.1281 -0.2801  0.3921
14447TIP3    H264833   0.552   6.735   0.314 -1.0019  2.4517 -2.2485
14448TIP3   OH264834   2.254   3.647  13.502  0.3509  0.2931  0.2153
14448TIP3    H164835   2.276   3.708  13.432  0.3730  0.1909  0.1339
14448TIP3    H264836   2.263   3.698  13.582 -0.1760  0.5540  0.1135
14449TIP3   OH264837   1.774   0.649  13.139 -0.1930  0.0393  0.4353
14449TIP3    H164838   1.865   0.631  13.118  0.3286  0.2900  2.3074
14449TIP3    H264839   1.732   0.663  13.054  0.9118 -2.6450 -0.6726
14450TIP3   OH264840   6.166   6.426   2.154 -0.2290 -0.3220  0.5499
14450TIP3    H164841   6.196   6.468   2.074 -1.4971  0.3447  0.4111
14450TIP3    H264842   6.125   6.344   2.124 -0.1775 -0.3588  0.5792
14451TIP3   OH264843   4.814   4.849  14.190  0.4758 -0.2996 -0.6485
14451TIP3    H164844   4.773   4.798  14.260  1.0433 -1.2393 -0.9747
14451TIP3    H264845   4.748   4.913  14.165 -0.6694 -1.5464 -0.9211
14452TIP3   OH264846   1.005   1.086  11.025 -0.4248 -0.7951  0.1276
14452TIP3    H164847   1.063   1.077  10.949 -1.1831  0.9927 -0.7191
14452TIP3    H264848   1.064   1.102  11.099  0.2907 -1.9931 -0.1458
14453TIP3   OH264849   2.799   2.041  13.426 -0.3301  0.1374 -0.0829
14453TIP3    H164850   2.711   2.067  13.453  1.0195  2.1269  2.9041
14453TIP3    H264851   2.802   1.947  13.443 -1.5750  0.2149  0.7311
14454TIP3   OH264852   4.913   6.490   2.648  0.1100 -0.0012  0.3030
14454TIP3    H164853   4.821   6.466   2.657  0.0255  0.6761  1.4671
14454TIP3    H264854   4.914   6.585   2.660  1.1010 -0.1540  1.6028
14455TIP3   OH264855   2.709   1.165  16.318 -0.2793 -0.2130  0.0976
14455TIP3    H164856   2.695   1.117  16.236 -1.4748  1.3521 -0.6680
14455TIP3    H264857   2.796   1.139  16.346  0.3626 -0.4461 -1.9123
14456TIP3   OH264858   0.181   0.993   5.253 -0.4305 -0.3640  0.2428
14456TIP3    H164859   0.213   0.969   5.340 -0.6322  0.6419  0.6072
14456TIP3    H264860   0.087   1.006   5.264  0.0347  3.4712  0.7974
14457TIP3   OH264861   3.001   0.987   4.910  0.0254 -0.2550  0.2481
14457TIP3    H164862   3.007   0.921   4.979  0.8794  0.2444  0.6730
14457TIP3    H264863   2.920   1.034   4.929 -1.4287 -2.1574 -0.9778
14458TIP3   OH264864   1.565   3.662  13.245 -0.1965  0.2771 -0.0351
14458TIP3    H164865   1.607   3.607  13.311 -0.3741  0.2055  0.0214
14458TIP3    H264866   1.490   3.609  13.215  0.1632  0.0980 -0.6441
14459TIP3   OH264867   2.868   4.102   0.918  0.1461 -0.4099 -0.3811
14459TIP3    H164868   2.937   4.148   0.870 -1.1320  3.2613  0.9613
14459TIP3    H264869   2.903   4.092   1.006 -0.4654  0.1972 -0.0588
14460TIP3   OH264870   1.684   1.220  11.469 -0.1029  0.0257  0.4398
14460TIP3    H164871   1.716   1.309  11.454 -0.6495  0.8210  3.3674
14460TIP3    H264872   1.763   1.167  11.476  0.2858  0.5490  0.1058
14461TIP3   OH264873   6.244   3.903   4.468 -0.2807 -0.6066  0.0324
14461TIP3    H164874   6.201   3.978   4.427  0.9586  0.9713  1.4716
14461TIP3    H264875   6.183   3.830   4.455 -2.4410  1.0679  0.2003
14462TIP3   OH264876   4.786   5.631  13.644 -0.0514 -0.3702 -0.4693
14462TIP3    H164877   4.808   5.555  13.698 -1.1327 -0.5872 -0.3021
14462TIP3    H264878   4.690   5.633  13.645 -0.0619  0.1429 -1.6704
14463TIP3   OH264879   0.635   4.185   3.839  0.2113  0.4919  0.6008
14463TIP3    H164880   0.591   4.167   3.921 -0.7690 -1.3213 -0.2451
14463TIP3    H264881   0.725   4.205   3.863  0.2903 -1.3657  2.0677
14464TIP3   OH264882   4.123   5.171  16.071 -0.0967  0.3143 -0.5596
14464TIP3    H164883   4.050   5.111  16.058 -0.4698  1.0582 -2.1414
14464TIP3    H264884   4.137   5.211  15.985  0.9818  1.5273  0.1392
14465TIP3   OH264885   5.909   0.788  14.988  0.4718  0.1060 -0.3662
14465TIP3    H164886   5.924   0.866  15.041  2.0522 -0.4987  0.1354
14465TIP3    H264887   5.898   0.718  15.051  2.2755 -0.6058 -0.7711
14466TIP3   OH264888   2.710   3.801  14.449 -0.0796 -0.2668  0.1947
14466TIP3    H164889   2.764   3.851  14.387 -1.8410 -0.2501 -1.4446
14466TIP3    H264890   2.760   3.722  14.466  2.0838  1.2887  1.6574
14467TIP3   OH264891   0.143   3.977   0.791  0.0441 -0.6689 -0.0894
14467TIP3    H164892   0.093   3.925   0.728  1.5385 -1.2322 -0.8567
14467TIP3    H264893   0.081   4.044   0.821 -1.0268 -1.0682 -1.3081
14468TIP3   OH264894   4.811   3.676  12.117 -0.1882 -0.5401  0.2104
14468TIP3    H164895   4.852   3.685  12.031  0.2299 -0.8310  0.3785
14468TIP3    H264896   4.723   3.644  12.098 -0.3312  0.0558 -0.1498
14469TIP3   OH264897   5.116   4.491  13.331  0.1676 -0.0342 -0.1413
14469TIP3    H164898   5.181   4.421  13.326 -0.2906 -0.4139 -0.9267
14469TIP3    H264899   5.086   4.488  13.422  2.5863  1.4082  0.8107
14470TIP3   OH264900   0.340   0.049   4.303 -0.5435  0.2454  0.3764
14470TIP3    H164901   0.318   0.115   4.368 -0.5029 -0.7815  1.4540
14470TIP3    H264902   0.340  -0.033   4.351  2.9028 -0.1867 -0.0981
14471TIP3   OH264903   1.855   4.052  17.289 -0.1351 -0.1886 -0.3247
14471TIP3    H164904   1.925   3.991  17.313 -0.3458 -0.1869  0.3006
14471TIP3    H264905   1.777   3.997  17.282 -0.0318 -0.2420 -1.3220
14472TIP3   OH264906   3.199   6.052  15.799 -0.6933  0.4383 -0.6855
14472TIP3    H164907   3.265   6.099  15.747 -1.6667  0.8487 -1.6062
14472TIP3    H264908   3.249   6.006  15.866  0.4651  1.2623 -0.9495
14473TIP3   OH264909   1.626   3.443   3.751  0.1297  0.1083  0.2638
14473TIP3    H164910   1.545   3.434   3.801  0.7188 -0.7928  1.1159
14473TIP3    H264911   1.611   3.516   3.692 -1.4145 -0.2433  0.1801
14474TIP3   OH264912   3.064   1.997  11.925 -0.0342  0.7522  0.1643
14474TIP3    H164913   3.018   1.950  11.856  0.2990 -0.8862  1.0193
14474TIP3    H264914   3.040   1.951  12.005  1.2263  1.3418  0.8967
14475TIP3   OH264915   2.897   5.710   2.903  0.1364 -0.1186 -0.1002
14475TIP3    H164916   2.837   5.669   2.841  0.3721  1.1036 -1.1742
14475TIP3    H264917   2.984   5.697   2.865  0.3997 -0.3752  0.5739
14476TIP3   OH264918   5.712   4.177   2.360 -0.3683  0.2260 -0.6009
14476TIP3    H164919   5.727   4.171   2.455 -1.7329 -1.0116 -0.4289
14476TIP3    H264920   5.619   4.159   2.349 -0.1187 -0.2429 -2.2302
14477TIP3   OH264921   5.806   2.731  13.003 -0.1656  0.3934  0.2345
14477TIP3    H164922   5.819   2.811  13.053  1.1029 -0.7381  1.8595
14477TIP3    H264923   5.758   2.673  13.062 -2.1959  0.3275 -1.3681
14478TIP3   OH264924   0.444   4.794  13.448  0.0796  0.0864  0.3993
14478TIP3    H164925   0.375   4.820  13.387 -1.1321 -0.5842  1.4318
14478TIP3    H264926   0.411   4.819  13.534  2.1926  1.9562  0.7697
14479TIP3   OH264927   3.336   1.923   4.228  0.2066 -0.0743  0.0975
14479TIP3    H164928   3.394   1.997   4.209  1.0156 -0.5780  0.5435
14479TIP3    H264929   3.257   1.940   4.176  0.7980  0.5635 -0.6113
14480TIP3   OH264930   4.924   4.918   0.815  0.2015  0.5438 -0.2614
14480TIP3    H164931   5.009   4.956   0.835 -1.0594  2.8710  1.2574
14480TIP3    H264932   4.925   4.832   0.855  1.9123  0.4360 -0.4937
14481TIP3   OH264933   6.368   3.037   1.227 -0.2330  0.0920  0.3064
14481TIP3    H164934   6.309   3.061   1.155 -1.5396 -2.6240  0.3651
14481TIP3    H264935   6.430   2.975   1.187  0.6102  0.4769  0.9826
14482TIP3   OH264936   4.373   3.690  14.760 -0.4875 -0.4006 -0.1677
14482TIP3    H164937   4.315   3.766  14.758 -0.4376 -0.3579  0.0413
14482TIP3    H264938   4.314   3.615  14.769 -0.4323 -0.1713  4.9298
14483TIP3   OH264939   0.674   3.573   4.401  0.4114 -0.0691  0.7316
14483TIP3    H164940   0.664   3.508   4.331  0.3971  1.8150 -1.1223
14483TIP3    H264941   0.761   3.610   4.386 -0.3615  1.7307  0.4312
14484TIP3   OH264942   4.414   2.183   4.982  0.4024 -0.8155  0.4110
14484TIP3    H164943   4.434   2.163   5.074  0.9986  0.6252  0.6263
14484TIP3    H264944   4.483   2.244   4.955  0.3922 -1.4337 -1.0906
14485TIP3   OH264945   0.130   0.980   1.338 -0.3207 -0.1751  0.3837
14485TIP3    H164946   0.042   1.018   1.348 -1.0064 -1.4630 -0.4523
14485TIP3    H264947   0.124   0.895   1.381  0.1149 -0.8278 -0.7987
14486TIP3   OH264948   1.771   2.151   0.026  0.7086  0.0562  0.1562
14486TIP3    H164949   1.691   2.102   0.045 -0.1964  0.9010 -1.2906
14486TIP3    H264950   1.784   2.140  -0.068  1.1837  1.5407  0.0192
14487TIP3   OH264951   1.365   5.216   5.424  0.4512 -0.0556  0.1868
14487TIP3    H164952   1.419   5.280   5.470  0.8146  0.0534 -0.3772
14487TIP3    H264953   1.422   5.140   5.413 -0.3881 -1.0072  2.0149
14488TIP3   OH264954   5.599   3.789   0.179 -0.1954 -0.1189 -0.2564
14488TIP3    H164955   5.507   3.785   0.206 -0.3612  1.1048 -0.5896
14488TIP3    H264956   5.645   3.817   0.258  0.0502 -1.7582  0.2059
14489TIP3   OH264957   0.548   6.728   0.608 -0.0087  0.2270 -0.2546
14489TIP3    H164958   0.518   6.749   0.520 -1.3316 -0.9231 -0.1071
14489TIP3    H264959   0.554   6.633   0.609 -2.7077 -0.0207  1.6945
14490TIP3   OH264960   2.956   0.271  13.872 -0.0839  0.1423 -0.4043
14490TIP3    H164961   2.866   0.254  13.844 -1.2384  2.6353  1.4156
14490TIP3    H264962   2.975   0.360  13.841 -0.4191  1.9243  3.8259
14491TIP3   OH264963   2.183   4.345  12.935  0.0491 -0.8953  0.1930
14491TIP3    H164964   2.121   4.329  12.865  0.4061 -1.7153  0.0598
14491TIP3    H264965   2.196   4.260  12.978 -0.0734 -0.4380  1.1813
14492TIP3   OH264966   5.564   2.221  13.738 -0.1106  0.2324  0.1628
14492TIP3    H164967   5.524   2.283  13.799 -0.9484 -1.0554  0.9632
14492TIP3    H264968   5.657   2.220  13.763 -0.3609  0.0641  1.1240
14493TIP3   OH264969   3.260   5.725   6.361 -0.3547  0.2128 -0.0369
14493TIP3    H164970   3.273   5.632   6.342 -2.2954 -0.2943  0.8602
14493TIP3    H264971   3.312   5.741   6.441 -1.7239 -0.6856  1.0762
14494TIP3   OH264972   5.216   0.575  16.649  0.3126 -0.0987 -0.0767
14494TIP3    H164973   5.237   0.668  16.659  0.1976 -0.1683  0.8426
14494TIP3    H264974   5.300   0.530  16.656  0.3243 -0.0924 -0.1748
14495TIP3   OH264975   3.081   3.124   4.261 -0.1684  0.7630 -0.3472
14495TIP3    H164976   3.013   3.158   4.202 -0.0999  0.4784 -0.5944
14495TIP3    H264977   3.104   3.198   4.316 -0.3655  0.9848 -0.5581
14496TIP3   OH264978   5.416   5.432   3.056  0.5070 -0.0160 -0.6515
14496TIP3    H164979   5.505   5.447   3.087  0.0509  0.9915  0.1974
14496TIP3    H264980   5.426   5.418   2.962  1.5897 -0.2395 -0.5206
14497TIP3   OH264981   1.706   5.764   4.704 -0.1502 -0.1094  0.4330
14497TIP3    H164982   1.641   5.727   4.645  0.0818 -1.2557  0.8835
14497TIP3    H264983   1.669   5.753   4.791 -0.0031  0.5927  0.5964
14498TIP3   OH264984   3.579   4.382  14.254 -0.1347  0.0606 -0.2218
14498TIP3    H164985   3.603   4.331  14.176 -2.4647  0.0654 -1.0095
14498TIP3    H264986   3.506   4.334  14.293  0.3068  0.6325  1.4148
14499TIP3   OH264987   1.188   5.292  15.897 -0.9734  0.5120  0.3873
14499TIP3    H164988   1.188   5.225  15.964 -0.9565  1.8902  1.8293
14499TIP3    H264989   1.165   5.373  15.943 -2.3864  1.2876 -1.5047
14500TIP3   OH264990   3.731   5.245  16.560  0.0678  0.0480 -0.5029
14500TIP3    H164991   3.749   5.327  16.605  1.8059 -0.7823  0.4038
14500TIP3    H264992   3.685   5.271  16.480 -1.3956  1.6958  0.8024
14501TIP3   OH264993   4.964   1.286   2.670  0.1116  0.6821 -0.4356
14501TIP3    H164994   5.002   1.218   2.614  1.2264 -0.6136  1.7538
14501TIP3    H264995   4.913   1.237   2.735  0.8680  1.9229  1.1530
14502TIP3   OH264996   3.075   1.098  15.494  0.6714  0.3696 -0.5449
14502TIP3    H164997   3.052   1.050  15.574 -2.0281  1.9542 -0.2486
14502TIP3    H264998   3.061   1.036  15.423  0.6518 -0.3078  0.0417
14503TIP3   OH264999   5.236   1.938  15.067  0.4063 -0.1409  0.1397
14503TIP3    H165000   5.278   2.022  15.053  0.6784 -0.1452  0.8990
14503TIP3    H265001   5.174   1.930  14.994  1.9295 -0.2856 -1.1786
14504TIP3   OH265002   6.487   5.147  15.581 -0.0365 -0.3259 -0.1784
14504TIP3    H165003   6.425   5.076  15.565  0.6871 -0.5624 -2.3153
14504TIP3    H265004   6.438   5.227  15.563  0.0163 -0.4678 -0.9882
14505TIP3   OH265005   0.737   2.511   4.654  0.0455 -0.3815 -0.5893
14505TIP3    H165006   0.655   2.497   4.701 -0.1932 -0.3732 -0.9993
14505TIP3    H265007   0.791   2.435   4.677 -0.4333 -0.8780 -1.0692
14506TIP3   OH265008   6.354   6.216   0.839  0.0495 -0.0084 -0.3183
14506TIP3    H165009   6.263   6.216   0.811  0.1657  2.8054 -0.9569
14506TIP3    H265010   6.358   6.283   0.907  1.4346 -0.9173  0.5392
14507TIP3   OH265011   0.169   6.431   6.322  0.3272 -0.1857 -0.5544
14507TIP3    H165012   0.091   6.487   6.316  1.1384  0.8983 -1.4053
14507TIP3    H265013   0.238   6.490   6.354  0.9434 -0.9873 -0.3818
14508TIP3   OH265014   2.143   1.374   0.969  0.6167 -0.3572  0.0901
14508TIP3    H165015   2.095   1.449   1.001  0.9762 -0.6350  1.3376
14508TIP3    H265016   2.122   1.369   0.876 -1.3197 -0.1569  0.4793
14509TIP3   OH265017   1.539   1.232   4.627 -0.2230 -0.3679 -0.0383
14509TIP3    H165018   1.616   1.285   4.609 -0.6916  0.3652  0.0565
14509TIP3    H265019   1.559   1.146   4.590 -0.2341  0.4271 -1.9778
14510TIP3   OH265020   6.178   5.648   5.213 -0.4950 -0.6942 -0.3862
14510TIP3    H165021   6.205   5.613   5.128 -2.2451 -1.7577 -0.5450
14510TIP3    H265022   6.118   5.583   5.248 -1.5576  0.7765  0.6588
14511TIP3   OH265023   0.178   1.180   2.655 -0.4377  0.4040 -0.0954
14511TIP3    H165024   0.220   1.119   2.594  0.0408 -0.7174  1.3018
14511TIP3    H265025   0.085   1.158   2.650 -0.4648  0.6424 -0.7562
14512TIP3   OH265026   1.096   1.448   5.790  0.0965 -0.1133  0.1055
14512TIP3    H165027   1.074   1.540   5.777  0.1698 -0.0310  0.5550
14512TIP3    H265028   1.169   1.432   5.730  0.1062  0.1327  0.0518
14513TIP3   OH265029   5.284   6.321   1.852  0.2041 -0.0877  0.2864
14513TIP3    H165030   5.288   6.351   1.761  0.3973  0.8672  0.6018
14513TIP3    H265031   5.244   6.394   1.899 -3.0497 -1.7742  0.4635
14514TIP3   OH265032   4.037   0.841  11.398  0.2704  0.1996 -0.8635
14514TIP3    H165033   4.048   0.934  11.382 -0.4318  0.4962  0.3227
14514TIP3    H265034   3.975   0.835  11.470  0.5447 -1.1811 -0.7039
14515TIP3   OH265035   1.045   0.332  11.361  0.3442 -0.0231 -0.1282
14515TIP3    H165036   1.015   0.374  11.280 -1.0257 -0.4801  0.1276
14515TIP3    H265037   1.054   0.240  11.338  0.9832  0.0088 -0.0284
14516TIP3   OH265038   5.276   2.142   1.866  0.4666  0.5323  0.0360
14516TIP3    H165039   5.203   2.202   1.881 -1.2424 -1.9128  2.3217
14516TIP3    H265040   5.350   2.183   1.909 -0.4356  1.4242  0.7855
14517TIP3   OH265041   1.045   5.737   0.620  0.3874 -0.5546 -0.0799
14517TIP3    H165042   1.083   5.756   0.535 -1.1308  0.0531 -0.6638
14517TIP3    H265043   1.015   5.822   0.653 -1.3055 -1.0917 -0.1136
14518TIP3   OH265044   0.946   3.429  13.658  0.2572  0.1353 -0.5851
14518TIP3    H165045   1.026   3.416  13.709 -0.2833  1.1622  0.5634
14518TIP3    H265046   0.938   3.350  13.605  0.4682 -1.3181  1.4433
14519TIP3   OH265047   5.416   5.235  12.404 -0.4833  0.6987  0.7793
14519TIP3    H165048   5.492   5.238  12.462 -0.1044  0.9571  0.2687
14519TIP3    H265049   5.432   5.160  12.348  1.0285  2.5985 -1.5262
14520TIP3   OH265050   4.075   0.750   3.738 -0.0397  0.2317 -0.4782
14520TIP3    H165051   3.998   0.706   3.774 -0.1244  1.0567  0.4039
14520TIP3    H265052   4.091   0.707   3.654 -1.6850  0.2873 -0.8441
14521TIP3   OH265053   4.508   0.432   2.175 -0.1541 -0.8383 -0.1627
14521TIP3    H165054   4.531   0.371   2.246 -1.5204 -1.5304 -0.2806
14521TIP3    H265055   4.413   0.422   2.165 -0.5033  1.6576  0.1017
14522TIP3   OH265056   3.598   2.642   5.071 -0.9634  0.1967 -0.3262
14522TIP3    H165057   3.625   2.686   4.991 -1.8427  1.1231 -0.1312
14522TIP3    H265058   3.671   2.583   5.092 -0.3591  0.5648 -1.3286
14523TIP3   OH265059   0.816   0.551   0.516  0.4046  0.6040  0.1308
14523TIP3    H165060   0.735   0.512   0.483  1.6070 -2.3761  0.3069
14523TIP3    H265061   0.789   0.603   0.591 -1.5925  1.9478 -1.4151
14524TIP3   OH265062   6.076   4.508  14.394 -0.4753 -0.0564  0.1385
14524TIP3    H165063   6.041   4.420  14.407 -1.7865  0.2505 -1.1098
14524TIP3    H265064   6.167   4.494  14.366 -0.9753 -1.0659 -1.0670
14525TIP3   OH265065   6.751   4.530   2.653  0.0778  0.0573  0.3851
14525TIP3    H165066   6.668   4.491   2.683  0.2071  0.2716  1.0474
14525TIP3    H265067   6.784   4.578   2.730 -0.1469  1.6035 -0.4431
14526TIP3   OH265068   0.442   1.734  15.224  0.0437 -0.1907 -0.2630
14526TIP3    H165069   0.502   1.766  15.157  0.7667 -2.3169 -0.6974
14526TIP3    H265070   0.498   1.702  15.294 -0.7107  2.5649  1.7344
14527TIP3   OH265071   0.001   1.230   0.307 -0.1113  0.4068  0.3847
14527TIP3    H165072   0.051   1.219   0.226 -1.3997 -0.0261 -0.3837
14527TIP3    H265073  -0.066   1.294   0.285 -0.3116  0.4820  1.1999
14528TIP3   OH265074   0.956   6.506  15.180  0.7337 -0.1448 -0.1024
14528TIP3    H165075   0.952   6.582  15.123 -0.1296  0.6036  0.9097
14528TIP3    H265076   0.866   6.493  15.210  0.8268 -1.6913 -0.4037
14529TIP3   OH265077   6.366   4.132  14.276  0.2609  0.3253  0.2788
14529TIP3    H165078   6.409   4.070  14.216  1.6053 -0.0934  1.6155
14529TIP3    H265079   6.296   4.171  14.223 -2.3149 -4.0181 -0.0503
14530TIP3   OH265080   5.673   2.782  14.365  0.0338 -0.4943 -0.4604
14530TIP3    H165081   5.699   2.871  14.339  2.0222 -1.6218 -2.8733
14530TIP3    H265082   5.734   2.759  14.435  0.1986 -0.3057 -0.5400
14531TIP3   OH265083   3.578   0.241  15.256  0.0959 -0.4915 -0.3933
14531TIP3    H165084   3.621   0.272  15.177 -0.1866 -0.9492 -0.7311
14531TIP3    H265085   3.485   0.263  15.243  0.2317  0.6950  0.4254
14532TIP3   OH265086   3.580   1.413   0.810  0.1152 -0.0657 -0.3128
14532TIP3    H165087   3.659   1.400   0.758 -0.0302  1.3196 -0.9244
14532TIP3    H265088   3.562   1.507   0.803 -0.4986 -0.0193  1.3937
14533TIP3   OH265089   5.461   0.327  15.759  0.2439 -0.6672 -0.8700
14533TIP3    H165090   5.418   0.396  15.809 -1.2930 -2.0083 -0.2346
14533TIP3    H265091   5.514   0.280  15.823  0.6938 -0.5421 -1.1433
14534TIP3   OH265092   3.486   5.517  14.669 -0.2486  0.0863  0.3678
14534TIP3    H165093   3.429   5.577  14.718  0.3918 -0.6881  2.1646
14534TIP3    H265094   3.439   5.499  14.588 -1.8998  0.5510  1.1835
14535TIP3   OH265095   0.248   4.007  14.521 -0.1402 -0.1376  0.1248
14535TIP3    H165096   0.180   4.073  14.512 -0.4079 -0.6035 -1.5950
14535TIP3    H265097   0.244   3.980  14.613 -1.7687  0.3603  0.2213
14536TIP3   OH265098   0.631   1.484   3.082 -0.3951  0.4907 -0.0307
14536TIP3    H165099   0.592   1.557   3.130 -2.2672 -0.8099  0.5121
14536TIP3    H265100   0.705   1.456   3.136  0.5082  2.0973 -0.3679
14537TIP3   OH265101   3.955   1.853  12.858  0.6952  0.1058  0.1650
14537TIP3    H165102   4.004   1.822  12.782  1.2329  0.6420  0.2897
14537TIP3    H265103   3.884   1.905  12.821  1.6748  1.4010  0.0521
14538TIP3   OH265104   0.981   4.446  15.419 -0.1290 -0.0211  0.5218
14538TIP3    H165105   0.897   4.406  15.440 -0.9623  0.3756 -1.7264
14538TIP3    H265106   1.040   4.372  15.406 -0.8238 -0.4383 -0.4093
14539TIP3   OH265107   3.916   1.124   0.377 -0.3715 -0.3889  0.2093
14539TIP3    H165108   4.008   1.139   0.399 -0.3357  1.7374 -1.0396
14539TIP3    H265109   3.878   1.085   0.455  1.5067 -0.9898  0.8797
14540TIP3   OH265110   3.248   6.707  16.682  0.0721  0.0736  0.5331
14540TIP3    H165111   3.192   6.654  16.738  0.4180  0.6676  1.4866
14540TIP3    H265112   3.262   6.788  16.733  2.0905 -0.2100  0.5188
14541TIP3   OH265113   0.557   6.389   4.701 -0.0463 -0.1229  0.8609
14541TIP3    H165114   0.589   6.379   4.791  0.1730 -0.8034  0.7165
14541TIP3    H265115   0.567   6.482   4.682  0.4517 -0.0688  1.3462
14542TIP3   OH265116   2.627   5.115   3.694 -0.4772  0.5645  0.0948
14542TIP3    H165117   2.661   5.043   3.748 -2.2667  0.1844  0.7938
14542TIP3    H265118   2.548   5.143   3.740 -1.0215  1.5019 -1.3700
14543TIP3   OH265119   5.507   1.768  13.365 -0.2951 -0.1566 -0.1680
14543TIP3    H165120   5.420   1.729  13.370 -0.1389 -0.5401 -0.4232
14543TIP3    H265121   5.562   1.699  13.329 -0.0329  0.3289 -0.7110
14544TIP3   OH265122   0.421   4.919  14.023 -0.2450  0.0347 -0.6327
14544TIP3    H165123   0.417   4.948  13.932  2.6346 -1.7590 -1.4832
14544TIP3    H265124   0.411   4.824  14.018  0.3516 -0.1378  0.8599
14545TIP3   OH265125   2.083   1.528  14.070 -0.2633  0.3473 -0.0458
14545TIP3    H165126   2.092   1.535  13.975 -0.9939 -0.6306 -0.1987
14545TIP3    H265127   1.990   1.541  14.087 -0.1114  0.6758  0.5514
14546TIP3   OH265128   5.726   2.363  13.504 -0.4214  0.0385 -0.1857
14546TIP3    H165129   5.762   2.338  13.420  0.6268  1.0928 -0.0735
14546TIP3    H265130   5.734   2.284  13.558 -0.3527 -0.3989 -0.8232
14547TIP3   OH265131   5.012   3.634   6.652 -0.0199 -0.1927 -0.1928
14547TIP3    H165132   5.054   3.652   6.568 -0.4196 -0.9122 -0.5601
14547TIP3    H265133   4.918   3.640   6.634 -0.1528 -1.8084 -0.1629
14548TIP3   OH265134   1.440   5.218  16.601 -0.1758  0.1414  0.0226
14548TIP3    H165135   1.492   5.299  16.604  1.4283 -0.8431  2.5158
14548TIP3    H265136   1.503   5.150  16.580 -1.2057 -0.6845 -0.4922
14549TIP3   OH265137   0.287   3.658  13.469 -0.6514  0.0102  0.0624
14549TIP3    H165138   0.294   3.722  13.540 -2.4215 -0.3258  0.6078
14549TIP3    H265139   0.362   3.676  13.413  0.4963  0.6462  1.7204
14550TIP3   OH265140   2.657   2.399   5.904 -0.4395 -0.1271 -0.3884
14550TIP3    H165141   2.613   2.437   5.980 -0.0804  0.6731 -0.5666
14550TIP3    H265142   2.610   2.435   5.829 -0.6887 -0.7851 -0.5494
14551TIP3   OH265143   1.572   6.324  13.388 -0.0270 -0.2004 -0.5883
14551TIP3    H165144   1.546   6.340  13.298 -0.7407  1.2579 -0.1510
14551TIP3    H265145   1.640   6.389  13.406  0.7903 -1.0895 -0.3354
14552TIP3   OH265146   5.705   2.346  11.032  0.2512 -0.1993  0.3190
14552TIP3    H165147   5.706   2.350  10.936  1.9084  2.1246  0.3584
14552TIP3    H265148   5.679   2.255  11.051  2.1044 -1.4275 -2.3427
14553TIP3   OH265149   3.601   0.696  13.699 -0.1846 -0.1646 -0.3316
14553TIP3    H165150   3.514   0.703  13.660  0.2971  0.7917 -1.2853
14553TIP3    H265151   3.661   0.722  13.628  0.8435 -0.3050  0.4630
14554TIP3   OH265152   0.757   2.552  14.381 -0.4595  0.1770  0.1765
14554TIP3    H165153   0.849   2.552  14.406 -0.1810 -1.2448 -0.6879
14554TIP3    H265154   0.757   2.573  14.288 -1.3100  3.4290  0.8021
14555TIP3   OH265155   5.754   1.089  12.140 -0.6723  0.8851 -0.4321
14555TIP3    H165156   5.833   1.145  12.142 -0.6405  0.8889 -1.5161
14555TIP3    H265157   5.708   1.111  12.221  0.2956  1.1038  0.0744
14556TIP3   OH265158   0.830   0.981  15.793 -0.2510 -0.0318  0.1609
14556TIP3    H165159   0.909   0.945  15.834 -1.0904 -1.3492  0.7069
14556TIP3    H265160   0.828   0.942  15.706 -0.8285 -0.8673  0.5278
14557TIP3   OH265161   6.414   4.257   0.741 -0.5346 -0.3090  0.0086
14557TIP3    H165162   6.463   4.201   0.681 -0.0588 -0.4569  0.5292
14557TIP3    H265163   6.383   4.330   0.687  0.0428 -0.3455 -0.3731
14558TIP3   OH265164   1.422   5.887  16.623 -0.9387  0.2506 -0.5908
14558TIP3    H165165   1.344   5.838  16.647  0.1687 -0.2851  2.2220
14558TIP3    H265166   1.421   5.964  16.680 -0.9231  1.8731 -2.6448
14559TIP3   OH265167   6.127   3.326   3.560 -0.1554 -0.0919 -0.1525
14559TIP3    H165168   6.107   3.411   3.600  0.4505  0.1597 -0.3667
14559TIP3    H265169   6.100   3.262   3.626 -0.6050  0.2633  0.0199
14560TIP3   OH265170   3.633   0.445  11.474 -0.0761  0.3390  0.0646
14560TIP3    H165171   3.610   0.412  11.387  2.1780 -2.0878  0.2475
14560TIP3    H265172   3.550   0.447  11.522 -0.7807 -3.2196 -0.6920
14561TIP3   OH265173   2.519   0.574  12.882  0.4587  0.7836  0.0710
14561TIP3    H165174   2.441   0.533  12.845  0.8680  1.5966 -1.8230
14561TIP3    H265175   2.491   0.608  12.966 -0.9132  0.0495 -0.0630
14562TIP3   OH265176   6.053   1.071  16.441 -0.3213 -0.1679  0.1374
14562TIP3    H165177   5.965   1.107  16.433 -0.9012 -1.2476  1.3547
14562TIP3    H265178   6.084   1.103  16.526  0.1132 -0.4959  0.1052
14563TIP3   OH265179   5.630   4.857   0.849 -0.1311  0.1564  0.0794
14563TIP3    H165180   5.702   4.803   0.816 -1.5617 -1.2202 -0.9462
14563TIP3    H265181   5.599   4.812   0.927 -0.1552  0.5244  0.2867
14564TIP3   OH265182   1.416   4.064   2.195  0.2266 -0.2237 -0.2987
14564TIP3    H165183   1.363   4.015   2.133  0.6070 -1.7973  0.5684
14564TIP3    H265184   1.505   4.057   2.161 -0.1045  3.6013 -2.5371
14565TIP3   OH265185   0.514   5.784   1.566 -0.4242 -0.0892  0.5648
14565TIP3    H165186   0.510   5.816   1.475 -1.9216 -1.1050  0.2326
14565TIP3    H265187   0.422   5.766   1.589  0.0149 -0.6003  2.0017
14566TIP3   OH265188   0.674   0.955  14.749 -0.2838 -0.3090 -0.2644
14566TIP3    H165189   0.768   0.942  14.742 -0.2090 -0.2602  0.5638
14566TIP3    H265190   0.654   1.021  14.682  0.2922 -0.2018 -0.3357
14567TIP3   OH265191   0.958   2.635  14.536  0.7944  0.2509 -0.5122
14567TIP3    H165192   1.033   2.597  14.490  1.7337 -0.6488  1.5812
14567TIP3    H265193   0.969   2.605  14.626 -0.2295  2.8978  0.5987
14568TIP3   OH265194   3.497   4.023  13.594  0.3617 -0.6671  0.6298
14568TIP3    H165195   3.588   4.033  13.620  0.7407 -0.2028 -0.7798
14568TIP3    H265196   3.452   4.096  13.637  1.0904  0.4854 -0.4894
14569TIP3   OH265197   6.010   3.403  15.964  0.0372  0.2250 -0.3616
14569TIP3    H165198   5.929   3.403  15.911 -0.6567  0.9077  0.6633
14569TIP3    H265199   5.986   3.452  16.043  0.7924 -1.5213  0.9909
14570TIP3   OH265200   5.349   6.673   4.841 -0.3141  0.1068  0.2895
14570TIP3    H165201   5.339   6.758   4.797  0.3699  0.3705  0.6425
14570TIP3    H265202   5.327   6.609   4.773 -1.2594  0.5710  0.1419
14571TIP3   OH265203   3.832   3.053   5.110  0.5046 -0.1893 -0.6361
14571TIP3    H165204   3.869   3.139   5.131 -1.4344  0.5732 -0.0599
14571TIP3    H265205   3.816   3.013   5.195 -2.0804  0.5206 -0.6825
14572TIP3   OH265206   6.312   0.054  12.532 -0.4583  0.3020  0.5837
14572TIP3    H165207   6.379  -0.014  12.522 -2.0032 -1.6191  2.3287
14572TIP3    H265208   6.277   0.040  12.620 -2.1285  2.2074  0.2853
14573TIP3   OH265209   0.758   2.632   1.852  0.4232 -0.0678 -0.2996
14573TIP3    H165210   0.734   2.595   1.767 -0.8182  0.4176 -0.1774
14573TIP3    H265211   0.675   2.655   1.893  1.0338  0.2259  0.8166
14574TIP3   OH265212   5.493   6.018  11.866  0.4148  0.8231  0.4878
14574TIP3    H165213   5.439   5.981  11.935 -0.3285 -1.0872 -1.0339
14574TIP3    H265214   5.561   5.952  11.850  1.6665  2.0268  0.5747
14575TIP3   OH265215   0.139   3.068   5.469 -0.2813 -0.4327 -0.2585
14575TIP3    H165216   0.048   3.095   5.463 -0.3190 -0.5225 -0.1193
14575TIP3    H265217   0.172   3.072   5.380 -0.5187 -0.7316 -0.3602
14576TIP3   OH265218   4.521   3.092  17.249  0.0703 -0.6716 -0.0962
14576TIP3    H165219   4.587   3.098  17.181  0.7746 -0.0499  0.6245
14576TIP3    H265220   4.451   3.151  17.220  0.1169 -0.8268 -0.5372
14577TIP3   OH265221   0.413   3.890  14.791  0.1305 -0.0505  0.4121
14577TIP3    H165222   0.435   3.824  14.858 -1.7240 -1.6831 -0.4860
14577TIP3    H265223   0.333   3.932  14.824  0.3390  0.5568  0.1558
14578TIP3   OH265224   6.637   1.867   4.213 -0.1333 -0.0525  0.0117
14578TIP3    H165225   6.604   1.794   4.161 -0.7425  0.5077 -0.4037
14578TIP3    H265226   6.633   1.943   4.154  2.5788 -0.0608 -0.3084
14579TIP3   OH265227   2.406   4.048  14.043 -0.3233  0.6479  0.1068
14579TIP3    H165228   2.460   3.969  14.039  1.3941  1.6701  1.6674
14579TIP3    H265229   2.329   4.027  13.989  1.3339 -1.0849 -1.7656
14580TIP3   OH265230   0.187   2.700   2.429 -0.0673 -0.2227 -0.1842
14580TIP3    H165231   0.227   2.624   2.473 -2.7397 -2.4375 -1.2778
14580TIP3    H265232   0.126   2.662   2.366 -1.9457  2.8732 -0.4393
14581TIP3   OH265233   2.594   0.395  15.399  0.4207  0.2572  0.5241
14581TIP3    H165234   2.671   0.387  15.343  0.6665  0.6552  0.8056
14581TIP3    H265235   2.574   0.305  15.425 -1.0243 -0.2161 -1.9671
14582TIP3   OH265236   5.579   0.700  13.776  0.5605  0.3542  0.5121
14582TIP3    H165237   5.630   0.625  13.805  1.4633  0.3734 -0.9379
14582TIP3    H265238   5.546   0.675  13.690 -0.4561  1.0204  0.6849
14583TIP3   OH265239   6.644   1.430  15.937 -0.2134  0.1056  0.6271
14583TIP3    H165240   6.603   1.360  15.988  2.3381 -2.3937 -0.4824
14583TIP3    H265241   6.718   1.458  15.991 -0.2866  0.8314  0.3557
14584TIP3   OH265242   1.751   4.810  12.526  0.3432 -0.2224 -0.5171
14584TIP3    H165243   1.762   4.718  12.549 -0.0382 -0.1458 -0.0184
14584TIP3    H265244   1.736   4.809  12.431  2.8051 -0.4642 -0.9607
14585TIP3   OH265245   1.022   2.769   5.602 -0.0387  0.6791  0.4233
14585TIP3    H165246   0.949   2.794   5.657  1.2096 -0.1348  2.5653
14585TIP3    H265247   1.075   2.711   5.657  2.2228  1.2400 -1.0347
14586TIP3   OH265248   5.210   3.755   0.525 -0.4098 -0.7012 -0.2283
14586TIP3    H165249   5.255   3.819   0.580  0.7678 -1.3400 -0.4246
14586TIP3    H265250   5.125   3.743   0.568 -0.2011  0.1307  0.4502
14587TIP3   OH265251   0.340   5.217   1.441  0.0895  0.5742  0.3349
14587TIP3    H165252   0.336   5.207   1.346 -0.6759  2.7475  0.0636
14587TIP3    H265253   0.418   5.170   1.467  1.3405  1.4121 -1.6267
14588TIP3   OH265254   1.016   2.348  15.070  0.0244 -0.2039 -0.0881
14588TIP3    H165255   0.988   2.437  15.049  0.3306 -0.3594 -1.2142
14588TIP3    H265256   0.999   2.298  14.990  0.5670 -0.9955  0.2795
14589TIP3   OH265257   0.484   1.874  11.593  0.2218 -0.0379  0.3851
14589TIP3    H165258   0.518   1.909  11.675  2.8614  0.1716 -0.6858
14589TIP3    H265259   0.460   1.951  11.541 -1.3600 -0.1664  0.8802
14590TIP3   OH265260   5.530   0.705   2.083  0.1888 -0.5220 -0.3316
14590TIP3    H165261   5.504   0.785   2.128 -0.3800 -0.6140 -0.4913
14590TIP3    H265262   5.623   0.694   2.106  0.2780  0.1850 -0.3222
14591TIP3   OH265263   4.465   6.081  12.289 -0.2786  0.5316 -0.3664
14591TIP3    H165264   4.402   6.130  12.237 -0.8459 -0.8380 -1.0433
14591TIP3    H265265   4.426   5.994  12.298  1.1104 -0.0941 -0.0645
14592TIP3   OH265266   1.677   3.653   6.124 -0.4770  1.0502  0.1292
14592TIP3    H165267   1.762   3.610   6.118 -0.1345  1.5794  0.9739
14592TIP3    H265268   1.697   3.746   6.121 -1.2296  1.1944 -1.9191
14593TIP3   OH265269   4.794   0.219  16.375 -0.2577 -0.1822  0.3095
14593TIP3    H165270   4.740   0.283  16.423  0.1145  0.1441  0.2934
14593TIP3    H265271   4.844   0.174  16.443  0.5206  0.5114  0.2141
14594TIP3   OH265272   6.101   6.514   4.240 -0.0427  0.0761 -0.7694
14594TIP3    H165273   6.189   6.480   4.257 -0.1745  0.1656  0.1812
14594TIP3    H265274   6.114   6.586   4.178  0.2875 -1.3663 -2.4419
14595TIP3   OH265275   2.410   3.858   3.486  0.3329  0.2243  0.1309
14595TIP3    H165276   2.395   3.851   3.580  2.1264  4.9639  1.0054
14595TIP3    H265277   2.323   3.850   3.448 -0.8378  0.9734  2.4579
14596TIP3   OH265278   4.403   3.890  16.897 -0.1057 -0.5314 -0.7017
14596TIP3    H165279   4.395   3.955  16.967 -1.2272 -1.6070  0.2163
14596TIP3    H265280   4.363   3.932  16.821  0.2735  0.3004 -0.4552
14597TIP3   OH265281   1.632   5.936   1.242  0.3175 -0.1654 -0.1425
14597TIP3    H165282   1.655   5.851   1.279  0.7892 -0.5532 -1.2898
14597TIP3    H265283   1.539   5.947   1.263 -0.0146 -1.4352 -0.8539
14598TIP3   OH265284   4.557   4.298   2.997 -0.0725 -0.1329 -0.2261
14598TIP3    H165285   4.482   4.345   3.032  0.9645  1.6017 -0.2309
14598TIP3    H265286   4.604   4.363   2.944  1.8022 -0.9579  0.3389
14599TIP3   OH265287   0.199   4.646   4.891  0.1590 -0.3201  0.1637
14599TIP3    H165288   0.131   4.602   4.840 -0.0342  0.3202 -0.1368
14599TIP3    H265289   0.199   4.600   4.975  1.2448 -2.1358 -0.7568
14600TIP3   OH265290   5.187   4.552  17.030 -0.0569  0.3576  0.0348
14600TIP3    H165291   5.114   4.615  17.032  0.3395  0.8124  0.6827
14600TIP3    H265292   5.149   4.472  16.994 -1.0918  0.3237  1.1632
14601TIP3   OH265293   6.713   1.378   1.225  0.1015 -0.4393  0.0011
14601TIP3    H165294   6.664   1.456   1.199 -0.1082 -1.1505 -1.9148
14601TIP3    H265295   6.805   1.403   1.218  0.0342 -0.3289 -0.5439
14602TIP3   OH265296   4.594   2.604  11.528  0.4224 -0.2233  0.4370
14602TIP3    H165297   4.534   2.651  11.586 -0.0762 -0.7190  0.3318
14602TIP3    H265298   4.616   2.667  11.460 -1.0937 -0.4613 -0.3094
14603TIP3   OH265299   5.047   0.104  10.649  0.0109  0.5726 -0.1993
14603TIP3    H165300   5.138   0.075  10.643  0.3652  1.5684  0.1572
14603TIP3    H265301   5.016   0.103  10.559  0.2339 -0.1818 -0.2774
14604TIP3   OH265302   4.011   6.668  17.041 -0.5447 -0.2759 -0.4576
14604TIP3    H165303   4.079   6.679  17.108  0.0069 -2.3640 -0.6051
14604TIP3    H265304   4.009   6.752  16.995  3.4161 -0.6752 -1.7445
14605TIP3   OH265305   1.746   1.970  13.696 -0.2708  0.0629  0.1044
14605TIP3    H165306   1.788   1.978  13.611 -1.1406 -0.0022 -0.3371
14605TIP3    H265307   1.771   1.883  13.727 -1.7475 -0.8398 -1.0921
14606TIP3   OH265308   6.750   4.716  17.236 -0.6162 -0.3904 -0.8074
14606TIP3    H165309   6.778   4.630  17.266 -0.3976  0.1716  0.6896
14606TIP3    H265310   6.655   4.714  17.244 -0.6599 -0.6526 -1.2960
14607TIP3   OH265311   0.548   4.051  10.240 -0.2742 -0.8262 -0.0810
14607TIP3    H165312   0.573   4.102  10.317 -0.5439  0.5123 -0.8437
14607TIP3    H265313   0.588   4.098  10.166 -0.5670 -1.7057 -0.8166
14608TIP3   OH265314   1.215   2.740   4.400 -0.5320 -0.6056  0.1051
14608TIP3    H165315   1.122   2.762   4.408 -0.1972  2.0694 -1.7380
14608TIP3    H265316   1.256   2.785   4.474 -0.5099 -0.0417 -0.2425
14609TIP3   OH265317   0.984   1.319  16.514  0.4342  0.5979  0.2336
14609TIP3    H165318   0.937   1.259  16.573  1.4868  0.4033  0.9019
14609TIP3    H265319   1.076   1.309  16.538  0.8118  1.1231 -0.9090
14610TIP3   OH265320   0.511   5.193  15.907  0.5414  0.5461  0.4975
14610TIP3    H165321   0.447   5.197  15.979  0.2431 -0.8290  0.3350
14610TIP3    H265322   0.474   5.248  15.839 -0.3388  0.0087  0.5233
14611TIP3   OH265323   2.365   1.816   0.215 -0.2059  0.6155 -0.4519
14611TIP3    H165324   2.290   1.796   0.159 -1.4845  0.1465  1.3373
14611TIP3    H265325   2.424   1.741   0.203 -1.3299 -0.4107  0.2144
14612TIP3   OH265326   3.362   6.260   4.520 -0.2449  0.2225  0.3899
14612TIP3    H165327   3.335   6.316   4.593  0.2661  0.7125  0.2159
14612TIP3    H265328   3.449   6.228   4.545  0.0443  0.5952 -0.1005
14613TIP3   OH265329   2.299   3.611  16.450  0.1495  0.0197 -0.0489
14613TIP3    H165330   2.301   3.553  16.374  2.0142 -1.5139  1.0695
14613TIP3    H265331   2.255   3.560  16.518  1.4280  0.0375  0.8290
14614TIP3   OH265332   0.916   1.839   2.805  0.0921  0.2596  0.2527
14614TIP3    H165333   0.998   1.815   2.848 -0.3148 -2.0525 -0.1239
14614TIP3    H265334   0.934   1.830   2.712 -0.5233 -0.0062  0.1579
14615TIP3   OH265335   1.562   0.102  15.710 -0.3660 -0.0048 -0.6958
14615TIP3    H165336   1.622   0.063  15.774  1.0017 -2.1254 -3.0672
14615TIP3    H265337   1.476   0.067  15.734  0.1226 -0.8271 -0.0643
14616TIP3   OH265338   2.968   5.838   4.487 -0.8811  0.0958 -0.0238
14616TIP3    H165339   2.913   5.774   4.442 -0.7001 -0.3792  0.4320
14616TIP3    H265340   2.988   5.799   4.571  0.2788  0.2005 -0.2305
14617TIP3   OH265341   5.430   4.201  12.445 -0.4370 -0.4840  0.0364
14617TIP3    H165342   5.335   4.208  12.434 -0.6608 -1.1185  1.3062
14617TIP3    H265343   5.440   4.158  12.530  0.9964 -0.2044  0.0203
14618TIP3   OH265344   2.655   4.684  17.042 -0.3855 -0.4166 -0.3543
14618TIP3    H165345   2.577   4.737  17.058 -0.6824 -1.0561  0.3654
14618TIP3    H265346   2.655   4.668  16.948 -0.0712  1.1892 -0.6695
14619TIP3   OH265347   0.488   6.688  13.060 -0.2097  0.3977 -0.0327
14619TIP3    H165348   0.531   6.616  13.105  0.2419 -0.3903 -1.6391
14619TIP3    H265349   0.447   6.739  13.130  0.2111 -0.9020  1.2192
14620TIP3   OH265350   2.214   4.965  11.767  0.1411  0.3597  0.5405
14620TIP3    H165351   2.261   4.965  11.850 -0.5198  1.5027  0.9450
14620TIP3    H265352   2.126   4.933  11.789 -0.0143  0.5967  0.2764
14621TIP3   OH265353   3.080   0.368  11.768 -0.0173 -0.2513 -0.1967
14621TIP3    H165354   3.015   0.436  11.751  0.4549  0.2012 -0.2398
14621TIP3    H265355   3.102   0.334  11.681 -0.2240 -0.4327 -0.1787
14622TIP3   OH265356   5.110   0.771  16.417 -0.1454 -0.3958  0.3303
14622TIP3    H165357   5.136   0.707  16.352 -0.5736 -0.3823  0.1408
14622TIP3    H265358   5.050   0.724  16.474 -0.4476 -0.1706  0.1998
14623TIP3   OH265359   5.426   5.198  14.729 -0.0392 -0.8423  0.3213
14623TIP3    H165360   5.376   5.138  14.784 -0.0584  0.2051  1.5006
14623TIP3    H265361   5.503   5.148  14.702 -1.4793 -2.3499 -1.2138
14624TIP3   OH265362   0.312   1.950   2.808  0.3036  0.2651  0.0776
14624TIP3    H165363   0.364   1.941   2.888  0.8787 -0.0082 -0.3193
14624TIP3    H265364   0.232   1.994   2.837  0.1062 -0.6450  0.9623
14625TIP3   OH265365   0.633   2.925  12.063  0.6491  0.0912  0.5686
14625TIP3    H165366   0.713   2.972  12.041  0.4280  1.0183  1.6309
14625TIP3    H265367   0.657   2.868  12.135  0.7008 -0.7825 -0.1265
14626TIP3   OH265368   5.273   3.506   5.012 -0.8922 -0.2032  0.1035
14626TIP3    H165369   5.195   3.512   5.066 -0.5795 -0.1347  0.5558
14626TIP3    H265370   5.328   3.579   5.042 -0.3370 -0.7004  0.3125
14627TIP3   OH265371   0.304   4.815  12.037 -0.5263 -0.0015  0.1930
14627TIP3    H165372   0.354   4.796  11.957  2.3131 -0.4513  1.9235
14627TIP3    H265373   0.301   4.731  12.084 -0.2154  0.6901  1.5015
14628TIP3   OH265374   5.484   1.017   1.603 -0.3372 -0.1927 -0.0717
14628TIP3    H165375   5.403   0.969   1.622  0.1552 -1.8329 -1.7748
14628TIP3    H265376   5.554   0.956   1.627  0.3281  0.2066 -0.9425
14629TIP3   OH265377   6.139   1.067  15.768 -0.2629  0.7400 -0.3192
14629TIP3    H165378   6.209   1.125  15.798 -0.4564  0.6182  0.3703
14629TIP3    H265379   6.178   1.018  15.696  0.5121  0.3504  0.3516
14630TIP3   OH265380   3.955   1.358   0.246  0.2273  0.2668  0.4991
14630TIP3    H165381   3.868   1.362   0.286 -0.0213  0.8488 -0.0711
14630TIP3    H265382   3.977   1.265   0.246 -2.1001 -0.4512 -2.8738
14631TIP3   OH265383   2.560   5.056   0.979 -0.4294  0.3382 -0.1698
14631TIP3    H165384   2.504   5.130   0.956 -0.4585 -0.2676 -2.2603
14631TIP3    H265385   2.501   4.995   1.025 -1.0856  0.4248 -0.8877
14632TIP3   OH265386   4.480   6.419  12.370 -0.5298 -0.6030 -0.6413
14632TIP3    H165387   4.552   6.379  12.321 -0.8652 -0.0312 -1.6280
14632TIP3    H265388   4.509   6.508  12.387 -0.8767 -0.4535 -0.8071
14633TIP3   OH265389   4.199   1.651  16.245 -0.0758 -0.3533  0.4082
14633TIP3    H165390   4.223   1.687  16.159  0.3942  0.5622  0.9013
14633TIP3    H265391   4.185   1.558  16.229  0.2357 -0.2418 -0.6169
14634TIP3   OH265392   2.589   5.278  11.019 -0.0786  0.1288  0.2540
14634TIP3    H165393   2.652   5.238  11.079 -0.4638  0.8795  1.1706
14634TIP3    H265394   2.595   5.225  10.940  2.9654  1.1461 -0.3414
14635TIP3   OH265395   5.159   6.625  15.861 -0.2066 -0.3576  0.1038
14635TIP3    H165396   5.123   6.626  15.772 -0.4400 -2.2136  0.1406
14635TIP3    H265397   5.231   6.562  15.858  2.1997  2.2046  0.4053
14636TIP3   OH265398   5.853   2.104  12.643  0.7011  0.1885  0.3280
14636TIP3    H165399   5.924   2.148  12.690  0.0794 -0.1721  1.6759
14636TIP3    H265400   5.776   2.119  12.698  0.6029 -3.2729  1.3852
14637TIP3   OH265401   5.144   5.882  16.431 -0.3496  0.7225  0.3328
14637TIP3    H165402   5.179   5.933  16.359 -0.1293 -0.8809 -0.7616
14637TIP3    H265403   5.115   5.947  16.496  0.8985  2.1623 -0.4918
14638TIP3   OH265404   4.882   4.812  12.708 -0.0469  0.2435  0.5211
14638TIP3    H165405   4.902   4.719  12.697  1.8907  0.7442 -0.6310
14638TIP3    H265406   4.966   4.856  12.694 -1.0041  2.2032  0.6617
14639TIP3   OH265407   0.596   2.876  11.031  0.5517 -0.6787 -0.4941
14639TIP3    H165408   0.558   2.963  11.017  1.7089 -0.0294  0.2822
14639TIP3    H265409   0.577   2.829  10.949  0.5533  0.5366 -1.2257
14640TIP3   OH265410   0.269   5.575   5.349  0.3272 -0.0284 -0.3200
14640TIP3    H165411   0.216   5.612   5.419  2.3567  1.1261  0.6835
14640TIP3    H265412   0.235   5.486   5.338  0.5083 -0.5706  2.7766
14641TIP3   OH265413   0.605   2.067   1.582  0.1681 -0.2985  0.3925
14641TIP3    H165414   0.673   2.128   1.607 -1.8078  1.2692  2.3262
14641TIP3    H265415   0.580   2.022   1.663 -0.7496 -1.1996 -0.3458
14642TIP3   OH265416   5.583   1.811  12.525 -0.1759  0.4186  0.0611
14642TIP3    H165417   5.545   1.797  12.438 -0.4720  0.6510  0.1491
14642TIP3    H265418   5.568   1.904  12.543 -1.4929  0.0574  0.9985
14643TIP3   OH265419   5.776   2.867  13.648  0.4349  0.3944  0.4287
14643TIP3    H165420   5.711   2.824  13.593 -0.1521  0.9467  0.6751
14643TIP3    H265421   5.759   2.834  13.736  1.5397 -0.6863  0.2581
14644TIP3   OH265422   0.031   5.282  12.631  0.0013 -0.1152 -0.3980
14644TIP3    H165423   0.016   5.204  12.684  2.3370 -0.9133 -0.8017
14644TIP3    H265424   0.053   5.249  12.544 -0.4129  1.0574 -0.9713
14645TIP3   OH265425   2.263   6.506  16.832 -0.5780  0.3234  0.3000
14645TIP3    H165426   2.228   6.528  16.745 -1.4412  2.1402  1.0538
14645TIP3    H265427   2.275   6.411  16.830 -1.2465  0.2436 -1.5619
14646TIP3   OH265428   4.097   5.832   2.807 -0.1584  0.2845  0.3274
14646TIP3    H165429   4.091   5.746   2.850  1.2105  0.3202  0.6255
14646TIP3    H265430   4.189   5.842   2.785  0.0437  2.3798  1.7905
14647TIP3   OH265431   4.007   3.712  16.823  0.2160  0.3951  0.6238
14647TIP3    H165432   4.089   3.709  16.872  0.3761 -0.6696  0.3188
14647TIP3    H265433   4.035   3.722  16.732  0.0739 -1.1414  0.3901
14648TIP3   OH265434   3.575   6.360   3.619 -0.3527 -0.8936  0.1581
14648TIP3    H165435   3.541   6.326   3.536  0.0833 -1.4534  0.2007
14648TIP3    H265436   3.614   6.283   3.662  2.8758  0.0174 -0.8263
14649TIP3   OH265437   6.068   1.875  16.112  0.6410  0.2101  0.5920
14649TIP3    H165438   6.014   1.800  16.138  0.4681  0.4438  0.9152
14649TIP3    H265439   6.031   1.903  16.028  1.4881 -0.8323 -0.1641
14650TIP3   OH265440   3.837   2.857  15.493 -0.2567 -0.0214  0.3285
14650TIP3    H165441   3.889   2.862  15.574  0.2388  0.9858 -0.0245
14650TIP3    H265442   3.817   2.949  15.473 -0.3726 -0.2615 -0.6911
14651TIP3   OH265443   6.283   1.109  14.311  0.8171 -0.4152 -0.4520
14651TIP3    H165444   6.346   1.128  14.381 -0.8396  1.1920  0.7058
14651TIP3    H265445   6.226   1.041  14.348  0.1086  0.2397 -0.3109
14652TIP3   OH265446   4.801   1.350  16.135  0.7199 -0.4971 -0.5568
14652TIP3    H165447   4.790   1.434  16.180  0.3343 -0.0911 -1.3790
14652TIP3    H265448   4.749   1.288  16.185  0.5873 -0.1310 -0.2347
14653TIP3   OH265449   6.334   4.440  15.891  0.0221 -0.3223 -0.3495
14653TIP3    H165450   6.352   4.451  15.798  1.2045  3.1375  0.1556
14653TIP3    H265451   6.416   4.406  15.928 -0.6698 -2.3972 -0.5692
14654TIP3   OH265452   5.058   6.474  14.591  0.2345 -0.4339  0.5129
14654TIP3    H165453   4.997   6.506  14.658 -0.2572  2.0389 -0.9730
14654TIP3    H265454   5.080   6.385  14.619 -2.0759 -0.5091  2.4478
14655TIP3   OH265455   6.520   1.188  16.896 -0.0564 -0.3414  0.3432
14655TIP3    H165456   6.535   1.274  16.934  0.9447  0.5939 -1.9720
14655TIP3    H265457   6.570   1.128  16.953 -0.6647  0.5790  1.9121
14656TIP3   OH265458   4.270   3.393   1.840  0.0528 -0.3876 -0.7107
14656TIP3    H165459   4.326   3.433   1.774 -0.2897 -1.5842 -1.7486
14656TIP3    H265460   4.314   3.312   1.864 -1.1485 -1.2746 -1.4439
14657TIP3   OH265461   3.540   5.008  13.547 -0.1063  0.0414 -0.2182
14657TIP3    H165462   3.458   4.960  13.560 -0.5676  1.0951  0.9739
14657TIP3    H265463   3.537   5.037  13.456 -0.7747 -0.4569 -0.3554
14658TIP3   OH265464   5.841   3.030  12.123 -0.3493 -0.0904  0.7576
14658TIP3    H165465   5.841   3.126  12.116 -1.3440 -0.1676 -0.9927
14658TIP3    H265466   5.802   3.012  12.208  0.9006  1.0592  1.6194
14659TIP3   OH265467   0.178   4.660   4.526  0.1638  0.1799  0.3590
14659TIP3    H165468   0.207   4.595   4.462 -0.1464  0.5380 -0.1501
14659TIP3    H265469   0.130   4.609   4.591 -0.2826 -0.0759 -0.1600
14660TIP3   OH265470   6.379   0.811  10.992 -0.2437  0.1019  0.1715
14660TIP3    H165471   6.362   0.777  10.904  0.9377 -2.0444  0.6902
14660TIP3    H265472   6.472   0.833  10.992 -0.0434 -0.6752  1.0994
14661TIP3   OH265473   3.056   3.478   4.360 -0.0751 -0.2716 -0.2466
14661TIP3    H165474   3.140   3.515   4.333 -0.3582 -0.9955 -2.3008
14661TIP3    H265475   3.079   3.397   4.405  0.3676  0.0782  0.1614
14662TIP3   OH265476   4.943   1.857  13.451 -0.0004  0.1744  0.1892
14662TIP3    H165477   4.929   1.930  13.511 -2.1029  1.1825 -1.3766
14662TIP3    H265478   4.862   1.807  13.454  0.7359 -1.0903 -0.0951
14663TIP3   OH265479   3.687   5.477   1.043 -0.3940 -0.0463  0.6172
14663TIP3    H165480   3.701   5.431   0.960 -0.8011  1.9645 -0.6461
14663TIP3    H265481   3.598   5.511   1.037 -0.5215 -0.0728  1.9972
14664TIP3   OH265482   1.433   1.472  12.826 -0.3050  0.1484 -0.2121
14664TIP3    H165483   1.351   1.434  12.860  0.1756  0.1222  0.9877
14664TIP3    H265484   1.425   1.465  12.731 -1.0039 -1.3336 -0.0836
14665TIP3   OH265485   3.012   0.843  16.915  0.0437 -0.3414 -0.2038
14665TIP3    H165486   3.050   0.872  16.998  0.2618  0.4057 -0.5594
14665TIP3    H265487   2.993   0.924  16.867  0.0439 -0.7616 -0.9368
14666TIP3   OH265488   0.989   1.902   1.566  0.1337  0.3723  0.0638
14666TIP3    H165489   0.940   1.858   1.496  1.0920 -1.1963  0.3190
14666TIP3    H265490   0.935   1.889   1.644 -0.6530  1.6213 -0.2363
14667TIP3   OH265491   4.772   4.793   4.023 -0.0465 -0.2938 -0.0439
14667TIP3    H165492   4.700   4.749   3.979  0.4157  0.5292 -1.6788
14667TIP3    H265493   4.765   4.764   4.115 -2.0110 -0.7614 -0.3024
14668TIP3   OH265494   0.653   3.718  16.875  0.0765  0.0819 -0.1557
14668TIP3    H165495   0.595   3.725  16.799 -1.5578 -2.8412  0.6917
14668TIP3    H265496   0.739   3.702  16.837 -0.0283  2.0737 -1.4001
14669TIP3   OH265497   5.455   5.077   0.943 -0.9097  0.6207  0.0978
14669TIP3    H165498   5.511   5.013   0.899 -1.0622  0.5646 -0.0155
14669TIP3    H265499   5.515   5.131   0.994 -0.6733  0.9934 -0.5551
14670TIP3   OH265500   4.481   5.497  16.127 -0.3871 -0.0800  0.3520
14670TIP3    H165501   4.507   5.500  16.219  2.0864 -0.5827 -0.2563
14670TIP3    H265502   4.517   5.577  16.090 -1.9676  0.4645 -0.0879
14671TIP3   OH265503   4.162   2.528  13.699 -0.0985  0.3597  0.4137
14671TIP3    H165504   4.094   2.557  13.759 -0.6698 -2.2255  1.1374
14671TIP3    H265505   4.115   2.496  13.622  0.5020  1.3467 -0.3918
14672TIP3   OH265506   1.941   4.609   0.917  0.1432 -0.4611 -0.7745
14672TIP3    H165507   1.939   4.630   0.824 -1.1726  0.2692 -0.5971
14672TIP3    H265508   1.856   4.569   0.935  0.1903 -0.1608  0.2037
14673TIP3   OH265509   0.297   6.014  15.734 -0.4868 -0.0065 -0.7014
14673TIP3    H165510   0.369   5.981  15.680  0.3842 -2.5259  1.7855
14673TIP3    H265511   0.339   6.069  15.800 -1.0404 -0.0461 -0.3091
14674TIP3   OH265512   1.977   3.891   3.156  0.3201 -0.4496 -0.2210
14674TIP3    H165513   2.014   3.927   3.237  1.0832 -2.1749  0.2471
14674TIP3    H265514   2.053   3.880   3.099 -0.2709  1.2198 -1.4249
14675TIP3   OH265515   1.332   0.256   2.114  0.1929  0.4830 -0.0672
14675TIP3    H165516   1.369   0.265   2.202 -0.6113 -0.2259  0.3535
14675TIP3    H265517   1.269   0.329   2.107 -2.2399 -1.3476  1.2601
14676TIP3   OH265518   1.645   3.495  16.737 -0.3549 -0.1999 -0.2434
14676TIP3    H165519   1.649   3.435  16.811 -2.2671 -0.7199 -0.5087
14676TIP3    H265520   1.606   3.444  16.666 -1.8817  1.2532 -0.5276
14677TIP3   OH265521   5.593   4.306   2.800 -0.0241  0.1760 -0.3518
14677TIP3    H165522   5.557   4.377   2.853 -1.6336 -2.1341  1.8856
14677TIP3    H265523   5.558   4.321   2.712 -0.7924  1.7857  0.2020
14678TIP3   OH265524   0.446   0.847  10.778  0.1180 -0.0367  0.0457
14678TIP3    H165525   0.373   0.832  10.719 -1.0366 -0.7065  1.5699
14678TIP3    H265526   0.446   0.942  10.793  0.9472  0.2570 -1.6188
14679TIP3   OH265527   3.440   6.246   3.436  0.6418  0.2320  0.1793
14679TIP3    H165528   3.393   6.163   3.441 -0.1084  0.6830  0.7653
14679TIP3    H265529   3.453   6.260   3.342 -1.3773  0.6197 -0.0814
14680TIP3   OH265530   6.163   0.828  11.157 -0.0090 -0.2932 -0.3520
14680TIP3    H165531   6.190   0.881  11.232 -2.7768 -0.2612  0.7182
14680TIP3    H265532   6.232   0.843  11.092 -0.3386  4.3076  0.0160
14681TIP3   OH265533   2.094   3.812  12.610  0.6049 -0.0042  0.0722
14681TIP3    H165534   2.171   3.762  12.585 -0.8773 -2.1645 -0.4855
14681TIP3    H265535   2.029   3.746  12.635 -1.7967  1.5468 -1.5455
14682TIP3   OH265536   3.176   2.276  11.514  0.6394 -0.1023 -0.3390
14682TIP3    H165537   3.203   2.325  11.436  1.0927  0.5235  0.2069
14682TIP3    H265538   3.217   2.190  11.503  1.3864  0.2530 -0.3981
14683TIP3   OH265539   3.517   4.819  15.526 -0.2923 -0.5629  0.7628
14683TIP3    H165540   3.501   4.910  15.548  0.6874 -0.1942 -0.0181
14683TIP3    H265541   3.446   4.771  15.570 -0.2634  0.4612  1.9575
14684TIP3   OH265542   3.839   0.200  16.118  0.3132  0.4320 -0.3312
14684TIP3    H165543   3.775   0.245  16.063 -0.6280  0.2423  0.5652
14684TIP3    H265544   3.918   0.196  16.065  0.3844  2.9635 -0.5433
14685TIP3   OH265545   5.430   5.551  12.886 -0.3431  0.3153  0.4470
14685TIP3    H165546   5.421   5.456  12.893 -0.1291  0.3879  2.4511
14685TIP3    H265547   5.461   5.566  12.797 -3.5291 -1.2000 -1.0753
14686TIP3   OH265548   4.997   0.052   4.423  0.1440  0.3740  0.1151
14686TIP3    H165549   5.072   0.108   4.445  0.8666  0.1678 -1.6986
14686TIP3    H265550   5.024  -0.036   4.451  0.8668  0.1902 -1.1097
14687TIP3   OH265551   3.416   1.390   5.356 -0.0962  0.2489 -0.0604
14687TIP3    H165552   3.471   1.455   5.400 -0.5471  0.0545  0.8163
14687TIP3    H265553   3.352   1.364   5.423 -1.1279  0.3288 -0.9897
14688TIP3   OH265554   1.002   0.714   6.363 -0.2485 -0.2319  0.1144
14688TIP3    H165555   1.015   0.688   6.454 -1.0119  0.8784  0.5650
14688TIP3    H265556   0.910   0.693   6.345  0.0025 -0.8164 -0.5336
14689TIP3   OH265557   1.163   3.451  13.271  0.3053 -0.6343  0.2806
14689TIP3    H165558   1.129   3.540  13.276  0.8880 -0.4716  1.7123
14689TIP3    H265559   1.098   3.398  13.317  0.4033 -0.8151  0.2135
14690TIP3   OH265560   2.774   3.018  15.887 -0.1870 -0.4089 -0.0128
14690TIP3    H165561   2.818   3.099  15.912 -0.7046 -0.1782  0.1429
14690TIP3    H265562   2.810   2.997  15.801 -0.8565  0.5719 -0.5494
14691TIP3   OH265563   6.615   4.557  13.008  0.1519 -0.2036  0.6178
14691TIP3    H165564   6.683   4.492  13.030  1.8780  1.8287  1.6729
14691TIP3    H265565   6.649   4.639  13.042 -1.7454  1.3776 -1.0691
14692TIP3   OH265566   0.852   0.005   1.746  0.1871  0.3541 -0.0057
14692TIP3    H165567   0.774  -0.028   1.700  1.0064 -0.9949 -0.4771
14692TIP3    H265568   0.909   0.036   1.676  0.1736  1.1400  0.3257
14693TIP3   OH265569   4.980   6.548  17.021 -0.6519  0.1427 -0.3834
14693TIP3    H165570   5.029   6.618  17.064 -0.1707 -0.2319 -0.3125
14693TIP3    H265571   4.891   6.581  17.014 -0.9227 -0.0815  1.5920
14694TIP3   OH265572   5.820   2.625  10.363 -0.2319  1.2365 -0.2824
14694TIP3    H165573   5.729   2.594  10.364  0.4703 -1.0421 -1.1931
14694TIP3    H265574   5.863   2.572  10.430  1.7414 -2.5662 -4.0822
14695TIP3   OH265575   6.090   4.072  12.187 -0.2908  0.0557 -0.1801
14695TIP3    H165576   6.094   4.073  12.282  0.6079  1.4171 -0.1947
14695TIP3    H265577   5.997   4.086  12.167 -0.8520 -2.2940  0.4375
14696TIP3   OH265578   2.555   4.731   3.725  0.1368  0.0525  0.0322
14696TIP3    H165579   2.531   4.670   3.795 -1.2044 -0.1205 -0.5680
14696TIP3    H265580   2.651   4.727   3.723  0.1025 -2.1157 -0.0536
14697TIP3   OH265581   0.509   3.889   2.816 -0.2938 -0.0829 -0.4115
14697TIP3    H165582   0.459   3.902   2.896  0.5887  1.6256 -0.0918
14697TIP3    H265583   0.520   3.794   2.810 -3.0452 -0.4888 -0.2344
14698TIP3   OH265584   3.082   6.052  17.292  0.5839  0.1345 -0.0136
14698TIP3    H165585   3.035   6.039  17.210 -1.2209 -1.2061  1.1766
14698TIP3    H265586   3.134   5.972  17.303  1.1546  0.4945 -0.0392
14699TIP3   OH265587   0.976   4.004  13.819  0.2365  0.2153 -0.5820
14699TIP3    H165588   0.914   3.931  13.818 -0.6609  0.9549 -1.5300
14699TIP3    H265589   1.052   3.971  13.771 -0.5890  0.2147 -1.9670
14700TIP3   OH265590   3.401   1.892  11.230 -0.2303  0.2950  0.3129
14700TIP3    H165591   3.402   1.949  11.154 -0.2969  1.0565  0.8704
14700TIP3    H265592   3.309   1.866  11.240 -0.0898 -0.5225 -0.3713
14701TIP3   OH265593   1.215   3.221   6.085 -0.1566 -0.0127 -0.0633
14701TIP3    H165594   1.296   3.188   6.123 -0.4365  0.6721  1.1829
14701TIP3    H265595   1.169   3.263   6.158 -1.5575 -0.2336 -0.7732
14702TIP3   OH265596   5.817   4.336   5.332 -0.2145  0.4903  0.4504
14702TIP3    H165597   5.872   4.393   5.386 -1.2254  1.1361  0.8125
14702TIP3    H265598   5.754   4.395   5.291 -0.9718 -0.3106  0.4397
14703TIP3   OH265599   5.738   5.217  15.594 -0.4737 -0.1096 -0.3388
14703TIP3    H165600   5.726   5.256  15.681  0.3695 -1.1962  0.2844
14703TIP3    H265601   5.774   5.288  15.541 -2.6858  1.1078 -0.3267
14704TIP3   OH265602   4.859   1.798   2.534 -0.3913 -0.0945 -0.5128
14704TIP3    H165603   4.887   1.838   2.616  0.7976 -3.3362  0.8442
14704TIP3    H265604   4.935   1.747   2.505 -1.7436 -1.3638 -2.0603
14705TIP3   OH265605   2.960   6.280   6.252 -0.1743 -0.4419 -0.0253
14705TIP3    H165606   3.036   6.306   6.200 -0.4411  0.4787  0.0196
14705TIP3    H265607   2.996   6.227   6.322  0.5594  0.7303  0.5189
14706TIP3   OH265608   2.677   4.015  12.505 -0.0245  0.2549  0.7602
14706TIP3    H165609   2.638   3.954  12.442 -2.0353  1.3668  0.8220
14706TIP3    H265610   2.612   4.085  12.514  0.5473  0.5630  3.4687
14707TIP3   OH265611   5.226   4.670   4.599 -0.3201  0.0252  0.3209
14707TIP3    H165612   5.307   4.627   4.626 -0.1543  0.5716  0.7040
14707TIP3    H265613   5.157   4.608   4.624  0.0847 -1.5993 -2.2850
14708TIP3   OH265614   4.053   1.220   5.067  0.3431 -0.0393  0.1911
14708TIP3    H165615   4.024   1.277   5.138 -1.4843  0.5135 -0.9419
14708TIP3    H265616   4.101   1.149   5.111  0.8677  1.2544  1.7908
14709TIP3   OH265617   1.555   6.494  11.514  0.2675  0.0447  0.0059
14709TIP3    H165618   1.601   6.510  11.597  1.6774 -0.2035 -0.7081
14709TIP3    H265619   1.614   6.528  11.447 -2.0536  2.8604 -0.8188
14710TIP3   OH265620   4.459   1.892   1.902  0.4094 -0.6626 -0.2402
14710TIP3    H165621   4.545   1.921   1.931  1.1014 -2.1737 -0.6475
14710TIP3    H265622   4.469   1.797   1.891 -2.1518 -1.4118  2.6686
14711TIP3   OH265623   0.826   5.876  13.020 -0.5423  0.0791  0.3231
14711TIP3    H165624   0.913   5.912  13.004 -1.3347  1.4091 -1.2913
14711TIP3    H265625   0.840   5.804  13.082  1.7224  0.0360 -0.1863
14712TIP3   OH265626   5.355   3.065  11.921 -0.1817 -0.4676 -0.1547
14712TIP3    H165627   5.304   3.010  11.863  1.6546 -0.0941 -2.2567
14712TIP3    H265628   5.311   3.150  11.919 -1.1627 -0.9394  0.5138
14713TIP3   OH265629   0.449   5.453   2.162  0.4141 -0.1224  0.4573
14713TIP3    H165630   0.356   5.442   2.184 -0.0487  0.6061 -0.9898
14713TIP3    H265631   0.494   5.388   2.216 -1.1817 -2.2110 -0.5354
14714TIP3   OH265632   4.729   1.204  17.373 -0.2188  0.3799 -0.3560
14714TIP3    H165633   4.669   1.141  17.334  0.5463 -0.4529 -0.2224
14714TIP3    H265634   4.673   1.275  17.404 -1.2119 -0.6912  0.3789
14715TIP3   OH265635   3.002   0.498   0.183 -0.5909 -0.2475  0.1275
14715TIP3    H165636   3.070   0.509   0.116 -0.4275 -2.0337 -0.0325
14715TIP3    H265637   2.922   0.479   0.133 -1.3620  2.1814  0.2935
14716TIP3   OH265638   4.226   5.682   0.589  0.1283 -0.6414 -0.2464
14716TIP3    H165639   4.224   5.654   0.498  0.4080 -2.7159  0.3169
14716TIP3    H265640   4.245   5.602   0.638  1.9652  0.7460  1.4976
14717TIP3   OH265641   1.206   0.451  14.640 -0.2857 -0.3635  0.7833
14717TIP3    H165642   1.283   0.402  14.609  0.5795  1.9381 -0.9789
14717TIP3    H265643   1.201   0.430  14.733 -0.3541 -4.1980  0.1001
14718TIP3   OH265644   2.768   5.249   2.473  0.6299 -0.2133  0.3979
14718TIP3    H165645   2.678   5.278   2.462  0.7138  0.1814  0.7269
14718TIP3    H265646   2.767   5.156   2.451  0.3820  0.0637 -0.8028
14719TIP3   OH265647   4.383   1.565  12.782 -0.2465  0.2173 -0.0817
14719TIP3    H165648   4.303   1.538  12.737 -0.5022 -1.4391  1.2908
14719TIP3    H265649   4.383   1.517  12.864  1.9864  0.4429  0.1309
14720TIP3   OH265650   1.555   4.941  10.810 -0.2882 -0.0953  0.2689
14720TIP3    H165651   1.471   4.938  10.765 -0.1148 -0.2484 -0.0506
14720TIP3    H265652   1.576   5.035  10.814 -0.7840 -0.0110  0.9399
14721TIP3   OH265653   0.494   3.794  13.628 -0.1195  0.6621 -1.1455
14721TIP3    H165654   0.534   3.773  13.543  0.5541  1.0846 -0.9447
14721TIP3    H265655   0.518   3.885  13.643  0.8808  0.2119  0.0992
14722TIP3   OH265656   0.849   4.808  16.023 -0.5789  0.8681 -0.0470
14722TIP3    H165657   0.916   4.876  16.036  0.7776 -0.2151 -1.0910
14722TIP3    H265658   0.821   4.819  15.932 -1.6356  1.1231  0.2983
14723TIP3   OH265659   0.693   3.455   5.080 -0.8793 -0.2935  0.2654
14723TIP3    H165660   0.774   3.403   5.088 -1.0206 -0.2878  2.4018
14723TIP3    H265661   0.724   3.542   5.057 -0.4173 -0.6721 -0.6019
14724TIP3   OH265662   1.130   1.917   5.389  0.3428 -0.1706  0.2654
14724TIP3    H165663   1.119   1.954   5.302 -1.1825 -1.3131 -0.0691
14724TIP3    H265664   1.204   1.966   5.427  0.1639  1.2686 -1.1391
14725TIP3   OH265665   2.212   0.106  13.766 -0.4893  0.6595  0.0339
14725TIP3    H165666   2.196   0.093  13.673 -0.6408  0.0328  0.1432
14725TIP3    H265667   2.300   0.072  13.781  0.0305  1.8922 -0.1063
14726TIP3   OH265668   5.564   3.608   1.269 -0.1154 -0.2673 -0.0792
14726TIP3    H165669   5.550   3.618   1.175  1.7089  0.2634 -0.3309
14726TIP3    H265670   5.480   3.577   1.303 -0.6086 -1.1307 -1.9723
14727TIP3   OH265671   4.018   5.700   1.319 -0.1442 -0.1980  0.2583
14727TIP3    H165672   4.085   5.720   1.253 -1.4231  1.7702 -0.5116
14727TIP3    H265673   4.040   5.756   1.393  0.4874 -1.4072  1.0193
14728TIP3   OH265674   1.556   4.400  16.610  0.4538  0.3268  0.7131
14728TIP3    H165675   1.608   4.364  16.682  1.7170 -3.3540 -1.7382
14728TIP3    H265676   1.603   4.479  16.584  1.2705  0.4430  2.4104
14729TIP3   OH265677   4.958   4.228  14.208  0.3530 -0.0111  0.5488
14729TIP3    H165678   5.050   4.243  14.231  1.2677 -1.1310 -2.0350
14729TIP3    H265679   4.921   4.316  14.198  1.1867  0.4548  1.4141
14730TIP3   OH265680   2.047   1.421   5.485 -0.1471 -0.5530  0.2357
14730TIP3    H165681   2.017   1.330   5.498 -0.4498 -0.4545  0.2291
14730TIP3    H265682   2.091   1.420   5.400 -2.5717 -0.0897 -1.1117
14731TIP3   OH265683   1.909   3.509  15.267 -0.0892  0.3975 -0.1203
14731TIP3    H165684   1.899   3.420  15.233  0.9829  0.5271 -0.8061
14731TIP3    H265685   1.872   3.565  15.199  0.4768  0.5569 -0.2964
14732TIP3   OH265686   6.141   3.890   5.307  0.0931 -0.2664  0.3234
14732TIP3    H165687   6.199   3.862   5.236  0.6059 -0.1495  0.6857
14732TIP3    H265688   6.053   3.880   5.272  0.3544  0.8225 -0.7228
14733TIP3   OH265689   1.986   6.363   2.831 -0.4303 -0.3144  0.1136
14733TIP3    H165690   2.018   6.297   2.769 -0.9531 -3.3045  2.7743
14733TIP3    H265691   2.065   6.406   2.864  0.2162 -1.8023  0.5769
14734TIP3   OH265692   6.450   0.152  17.248  0.1459 -0.0579  0.5986
14734TIP3    H165693   6.490   0.067  17.262 -0.0147 -0.1465  0.5170
14734TIP3    H265694   6.514   0.215  17.282  0.5541 -0.1718  0.0509
14735TIP3   OH265695   5.153   6.536   2.816 -0.1206 -0.8502  0.6377
14735TIP3    H165696   5.180   6.451   2.852 -1.8887 -0.7251  2.4200
14735TIP3    H265697   5.077   6.515   2.762  0.5650 -0.5953 -0.4630
14736TIP3   OH265698   0.079   6.749  15.839 -0.5767  0.3868 -0.0901
14736TIP3    H165699   0.020   6.680  15.870  0.1021 -0.1828 -0.0532
14736TIP3    H265700   0.071   6.818  15.905 -0.3199 -0.1731  0.5461
14737TIP3   OH265701   6.323   4.328  15.438 -0.1826  0.2831  0.0448
14737TIP3    H165702   6.240   4.296  15.472  1.1148  0.7451  4.3171
14737TIP3    H265703   6.314   4.423  15.440  0.1338  0.3202 -0.3480
14738TIP3   OH265704   4.964   1.564  15.925  0.7104  0.7046 -0.0875
14738TIP3    H165705   4.900   1.494  15.939 -1.5169  2.3340 -1.4329
14738TIP3    H265706   4.956   1.618  16.004 -1.1602  2.0030 -1.0982
14739TIP3   OH265707   1.943   2.589  12.141 -0.0198 -0.5432 -0.3736
14739TIP3    H165708   1.858   2.569  12.102  0.5446 -0.4814 -1.6531
14739TIP3    H265709   1.935   2.681  12.169 -0.4971 -0.6578 -0.1085
14740TIP3   OH265710   6.348   4.691   3.814  0.1032 -0.0772  0.2775
14740TIP3    H165711   6.414   4.732   3.870 -0.2157  1.3874 -0.3628
14740TIP3    H265712   6.398   4.634   3.756  0.4905 -1.1925  1.6554
14741TIP3   OH265713   1.454   6.182   2.645  0.5763 -0.2478  0.2865
14741TIP3    H165714   1.472   6.107   2.703  2.0011  1.2578  1.8791
14741TIP3    H265715   1.529   6.239   2.655 -1.2220  2.2335  0.4471
14742TIP3   OH265716   4.641   2.960   0.645 -0.3301  0.2395 -0.2504
14742TIP3    H165717   4.720   2.999   0.682  0.3139 -1.0267 -0.2291
14742TIP3    H265718   4.613   3.022   0.578  0.9623  0.4989 -0.5825
14743TIP3   OH265719   0.537   2.707  16.653  0.0586  0.3756  0.3385
14743TIP3    H165720   0.465   2.763  16.681 -0.1039 -0.1189  0.9260
14743TIP3    H265721   0.515   2.620  16.687  0.3709 -0.0220 -0.4527
14744TIP3   OH265722   6.695   3.456   2.996 -0.1756 -0.0660  0.6121
14744TIP3    H165723   6.786   3.481   3.013 -0.6554  1.1195  1.5351
14744TIP3    H265724   6.681   3.480   2.904  1.0102 -2.1009 -0.1569
14745TIP3   OH265725   3.291   0.701  14.893  0.0409  0.1778 -0.0938
14745TIP3    H165726   3.304   0.606  14.888  0.4128  0.0305  2.3296
14745TIP3    H265727   3.201   0.712  14.924  0.2775  0.5648  0.4789
14746TIP3   OH265728   2.912   2.024   3.115  0.0001 -0.8759  0.0524
14746TIP3    H165729   2.872   1.948   3.074 -2.4311 -0.3661  1.2885
14746TIP3    H265730   2.924   1.999   3.206  0.6754 -0.3070  0.1342
14747TIP3   OH265731   2.572   0.284  14.486  0.1803  0.4549 -0.2151
14747TIP3    H165732   2.569   0.349  14.556  0.0664 -0.3359  0.5243
14747TIP3    H265733   2.526   0.326  14.413 -1.3276  0.6014  0.7689
14748TIP3   OH265734   5.523   4.695  13.406 -0.3402 -0.5893  0.3851
14748TIP3    H165735   5.604   4.704  13.457  1.5666 -0.9295 -2.3259
14748TIP3    H265736   5.541   4.623  13.346 -2.2221  0.1302 -1.1358
14749TIP3   OH265737   0.143   0.173   3.903 -0.5771 -0.2863 -0.1097
14749TIP3    H165738   0.088   0.247   3.928  0.5919  0.9420 -1.0722
14749TIP3    H265739   0.224   0.183   3.952 -0.7052 -1.3991  0.3688
14750TIP3   OH265740   6.739   5.600   1.738 -0.0022 -0.0751 -0.0867
14750TIP3    H165741   6.758   5.524   1.683  2.8835 -1.3302  2.3466
14750TIP3    H265742   6.675   5.568   1.801  0.2609 -0.1437  0.1520
14751TIP3   OH265743   4.480   6.446   1.859  0.1933 -0.1604 -0.0503
14751TIP3    H165744   4.395   6.405   1.844 -0.1024  0.0448  0.9777
14751TIP3    H265745   4.504   6.419   1.948  1.9246 -1.4585 -0.8669
14752TIP3   OH265746   6.473   0.470  11.684  0.2842 -0.1170 -0.0421
14752TIP3    H165747   6.477   0.375  11.696  1.1451 -0.0115  0.6062
14752TIP3    H265748   6.418   0.482  11.606  0.3037 -1.1493 -0.2326
14753TIP3   OH265749   3.185   1.938   3.521  0.1072 -0.1176  0.1223
14753TIP3    H165750   3.198   1.933   3.615 -1.1358 -0.3998  0.2917
14753TIP3    H265751   3.268   1.908   3.484  0.7881  0.4831  1.1104
14754TIP3   OH265752   5.442   0.445  14.034 -0.1208 -0.1905 -0.2610
14754TIP3    H165753   5.496   0.461  13.957 -2.1383 -1.7509 -2.1265
14754TIP3    H265754   5.504   0.413  14.100  1.2413 -2.4062 -2.4382
14755TIP3   OH265755   5.939   4.352  17.045 -0.0713 -0.3972  0.0714
14755TIP3    H165756   5.898   4.267  17.062 -1.3793  0.3779  0.9397
14755TIP3    H265757   5.937   4.360  16.950 -3.3953  0.2473  0.0923
14756TIP3   OH265758   4.382   0.173  11.381 -0.4689  0.4824 -0.5720
14756TIP3    H165759   4.342   0.143  11.299 -1.4075  0.2882 -0.0643
14756TIP3    H265760   4.341   0.258  11.398 -0.5477  0.3573 -0.1267
14757TIP3   OH265761   5.788   3.258   1.047  0.3522 -0.3460  0.3500
14757TIP3    H165762   5.725   3.268   1.119  0.0259  0.3759 -0.0303
14757TIP3    H265763   5.735   3.233   0.972  0.5265  0.2064  0.0420
14758TIP3   OH265764   4.541   4.143  12.859  0.2171  0.2393  0.1705
14758TIP3    H165765   4.505   4.216  12.809 -2.3927 -1.6321 -0.8672
14758TIP3    H265766   4.468   4.110  12.911  1.5722 -1.0493  1.3865
14759TIP3   OH265767   4.903   6.474   0.698 -0.2037 -0.7772 -0.1932
14759TIP3    H165768   4.863   6.449   0.615 -0.1093  1.2773 -0.9229
14759TIP3    H265769   4.997   6.464   0.684 -0.2254 -1.2733 -0.0142
14760TIP3   OH265770   5.541   3.414   6.374 -0.1921  0.1562  0.1659
14760TIP3    H165771   5.482   3.340   6.361  0.8526 -0.4423 -1.4937
14760TIP3    H265772   5.489   3.477   6.424 -1.4489 -1.2610  0.7413
14761TIP3   OH265773   2.395   1.223   4.031 -0.4756 -0.3133 -0.0299
14761TIP3    H165774   2.357   1.209   4.118 -1.3046 -1.9400 -0.6236
14761TIP3    H265775   2.327   1.270   3.983 -0.0753  0.4536  0.1410
14762TIP3   OH265776   5.676   5.082   4.559  0.4032 -0.0611  0.4407
14762TIP3    H165777   5.705   5.122   4.642  1.1431 -0.7186  0.5194
14762TIP3    H265778   5.601   5.134   4.531  0.7454  0.7656  1.0371
14763TIP3   OH265779   1.277   4.547   2.041 -0.2729 -0.1463  0.0560
14763TIP3    H165780   1.280   4.642   2.050 -1.1964 -0.2197  1.3704
14763TIP3    H265781   1.331   4.514   2.112  1.0948 -0.6164 -1.1484
14764TIP3   OH265782   2.475   5.241  13.127 -0.0519  0.3527  0.4543
14764TIP3    H165783   2.536   5.167  13.124 -0.6259 -0.1082 -0.3410
14764TIP3    H265784   2.399   5.208  13.175 -0.9725 -0.1228 -1.2464
14765TIP3   OH265785   1.042   1.516  17.264 -0.0269 -0.0473  0.4037
14765TIP3    H165786   1.019   1.554  17.349 -0.3075 -0.2600  0.4276
14765TIP3    H265787   1.134   1.491  17.272  0.2029  0.7642  0.3367
14766TIP3   OH265788   5.750   5.253   2.824  0.6775 -0.4115 -0.5114
14766TIP3    H165789   5.844   5.270   2.817  0.5121  1.6192  1.0074
14766TIP3    H265790   5.730   5.271   2.916 -1.3882  0.3738 -1.0650
14767TIP3   OH265791   6.538   6.079  16.833  0.2016  0.0759  0.2191
14767TIP3    H165792   6.581   6.152  16.788  1.3027 -0.6390  0.0512
14767TIP3    H265793   6.552   6.004  16.774 -3.2809  0.2081 -0.9786
14768TIP3   OH265794   5.378   2.100  11.301 -0.6676 -0.0149 -0.5241
14768TIP3    H165795   5.347   2.145  11.223 -1.7626  0.2207  0.0283
14768TIP3    H265796   5.472   2.088  11.286 -0.2702  2.6541 -0.6301
14769TIP3   OH265797   4.668   0.491   4.065  0.1346 -0.0214  0.2673
14769TIP3    H165798   4.720   0.462   3.991 -0.1053  0.6134 -0.1605
14769TIP3    H265799   4.715   0.567   4.099  0.6587 -0.7592  1.2605
14770TIP3   OH265800   5.665   1.993   4.568  0.5483  0.6200 -0.2599
14770TIP3    H165801   5.602   1.960   4.632  1.1928  2.1379  1.2333
14770TIP3    H265802   5.617   1.992   4.485 -1.0490  0.5964  0.6112
14771TIP3   OH265803   4.762   5.917  13.876 -0.8796 -0.1814 -0.0606
14771TIP3    H165804   4.852   5.894  13.854 -1.7283 -3.0572 -0.9681
14771TIP3    H265805   4.768   5.956  13.963  1.2156 -0.6486  0.0550
14772TIP3   OH265806   1.345   0.993   4.487  0.1896  0.6764  0.7315
14772TIP3    H165807   1.374   1.039   4.407  0.1782 -2.3758 -1.2065
14772TIP3    H265808   1.425   0.982   4.538  0.2301  2.5176  1.1396
14773TIP3   OH265809   5.126   3.631  16.173 -0.4663 -0.4777  0.5191
14773TIP3    H165810   5.177   3.679  16.107 -1.6534 -1.5464 -1.2721
14773TIP3    H265811   5.053   3.593  16.123 -2.1695 -0.2593  2.6927
14774TIP3   OH265812   0.859   1.036   0.805  0.0732  0.0694  0.0371
14774TIP3    H165813   0.840   0.950   0.766  0.1421 -0.9783  2.1805
14774TIP3    H265814   0.793   1.094   0.767  0.3042 -0.7864 -1.8106
14775TIP3   OH265815   3.345   2.784  15.145 -0.1860  0.4793 -0.2034
14775TIP3    H165816   3.311   2.700  15.114  0.9530 -1.1157  2.4826
14775TIP3    H265817   3.440   2.778  15.132  0.1203  0.4879  1.7165
14776TIP3   OH265818   0.575   2.470  15.812 -0.0556  0.0111  0.3007
14776TIP3    H165819   0.577   2.376  15.796  0.7559  0.4101 -2.4248
14776TIP3    H265820   0.660   2.489  15.851 -0.0016 -0.3084  0.3410
14777TIP3   OH265821   4.709   0.859  16.450  0.2921  0.2945  0.2464
14777TIP3    H165822   4.753   0.944  16.453  1.1079 -0.0709 -0.7701
14777TIP3    H265823   4.774   0.800  16.411 -0.3294 -0.7539  0.7619
14778TIP3   OH265824   2.763   4.632   2.771  0.4462 -0.2197 -0.0878
14778TIP3    H165825   2.829   4.581   2.818  0.8789 -0.5750 -1.0472
14778TIP3    H265826   2.688   4.635   2.830  1.4299  0.4594  1.1525
14779TIP3   OH265827   5.287   0.673  15.307 -0.6877 -0.2041  0.0965
14779TIP3    H165828   5.243   0.588  15.304  1.1117 -1.2081  0.5681
14779TIP3    H265829   5.349   0.666  15.380 -1.1867  1.8868  0.7925
14780TIP3   OH265830   4.740   0.234   2.029  0.2246  0.5861 -0.6703
14780TIP3    H165831   4.777   0.296   1.967  0.0592 -0.2711 -1.6463
14780TIP3    H265832   4.673   0.187   1.980  1.2869 -1.3214 -0.3802
14781TIP3   OH265833   5.868   6.611   3.777 -0.2939  0.3095 -0.4872
14781TIP3    H165834   5.838   6.530   3.736  0.9379 -0.4456  0.0208
14781TIP3    H265835   5.953   6.628   3.736  0.1210  0.5371  0.4518
14782TIP3   OH265836   5.871   3.031   2.349  0.0429 -0.0591  0.4379
14782TIP3    H165837   5.795   2.972   2.344  0.8859 -1.2267  0.9938
14782TIP3    H265838   5.923   2.997   2.421  0.2071  1.8282  1.2623
14783TIP3   OH265839   4.646   1.712   3.765 -0.3108  0.5751 -0.0185
14783TIP3    H165840   4.626   1.634   3.816  2.9096  0.1378  0.8383
14783TIP3    H265841   4.606   1.697   3.680 -2.1959 -0.6434  1.0245
14784TIP3   OH265842   1.302   5.694  12.407  0.1318  0.2021  0.1804
14784TIP3    H165843   1.225   5.638  12.393 -1.7689  2.3165  1.3867
14784TIP3    H265844   1.333   5.716  12.319 -1.2024 -0.0090 -0.3660
14785TIP3   OH265845   6.278   6.529  15.068 -0.0945  0.0671 -0.0433
14785TIP3    H165846   6.302   6.587  14.995  1.5682  1.4604  1.5323
14785TIP3    H265847   6.361   6.507  15.109 -0.9451 -1.3109  1.0032
14786TIP3   OH265848   0.497   6.074   1.043  0.1461  0.2153  1.0525
14786TIP3    H165849   0.462   6.130   0.973 -1.6783 -1.7705  0.2857
14786TIP3    H265850   0.481   6.123   1.123  2.8844  2.8627  0.1867
14787TIP3   OH265851   2.588   2.149   2.546 -0.0756 -0.0818  0.7641
14787TIP3    H165852   2.575   2.148   2.640 -0.5683 -0.0227  0.7004
14787TIP3    H265853   2.681   2.167   2.534 -0.1198  0.4595  1.2278
14788TIP3   OH265854   6.608   6.499  15.115  0.4729 -0.1132  0.6208
14788TIP3    H165855   6.677   6.444  15.152  2.1094 -0.7899 -2.9426
14788TIP3    H265856   6.640   6.588  15.126 -0.1847 -0.0864  2.7026
14789TIP3   OH265857   0.478   4.374  10.945  0.0377 -0.1400  0.0229
14789TIP3    H165858   0.554   4.430  10.956  1.5903 -2.1432  0.1551
14789TIP3    H265859   0.423   4.393  11.021 -0.1290  2.0255 -0.5679
14790TIP3   OH265860   2.422   1.231   5.823  0.0183  0.8785 -0.3863
14790TIP3    H165861   2.384   1.285   5.892  0.2018  1.5299 -0.7855
14790TIP3    H265862   2.515   1.224   5.846 -0.2244 -0.2918  0.3171
14791TIP3   OH265863   2.180   3.709  15.296  0.1342 -0.5288  0.3841
14791TIP3    H165864   2.118   3.740  15.230 -0.0346  0.1473  0.8523
14791TIP3    H265865   2.265   3.742  15.266 -0.0211  0.2817  0.7907
14792TIP3   OH265866   1.676   2.562   5.730  0.0348  0.0932 -0.0405
14792TIP3    H165867   1.716   2.508   5.799  2.3816  1.2465 -0.3999
14792TIP3    H265868   1.698   2.517   5.649 -0.9387 -0.1556 -0.1833
14793TIP3   OH265869   2.824   0.932   0.517 -0.5246 -0.5749  0.1582
14793TIP3    H165870   2.739   0.975   0.512 -0.9494 -1.4672 -0.3981
14793TIP3    H265871   2.811   0.846   0.478  0.5377 -0.8777  0.4226
14794TIP3   OH265872   4.193   3.769   5.690 -0.2702  0.0334  0.1479
14794TIP3    H165873   4.207   3.741   5.781 -0.6954  1.2119  0.5911
14794TIP3    H265874   4.242   3.705   5.638  0.6727 -0.1714  1.2454
14795TIP3   OH265875   5.837   6.157  16.539  0.1105 -0.4538 -0.0964
14795TIP3    H165876   5.833   6.253  16.530 -3.2278 -0.4045  0.6997
14795TIP3    H265877   5.812   6.124  16.453  0.7970 -0.6216 -0.2358
14796TIP3   OH265878   2.604   2.528   2.856  0.4579 -0.4203  0.2862
14796TIP3    H165879   2.598   2.624   2.854 -0.3366 -0.4490  0.8715
14796TIP3    H265880   2.670   2.507   2.789  1.6640  0.6065  1.0956
14797TIP3   OH265881   4.685   3.878   1.380  0.6548  0.0803 -0.5077
14797TIP3    H165882   4.648   3.909   1.297 -1.1370 -1.3318 -0.3107
14797TIP3    H265883   4.612   3.885   1.442  1.7737  0.5040  0.8163
14798TIP3   OH265884   1.482   1.039   4.266  0.0057  0.2827 -0.4110
14798TIP3    H165885   1.546   1.108   4.281 -0.8626  1.1746 -0.6962
14798TIP3    H265886   1.511   0.997   4.185  0.5067  0.3406 -0.2664
14799TIP3   OH265887   2.013   0.482  13.075  0.2618  0.3127  0.1518
14799TIP3    H165888   2.020   0.461  12.981 -0.3148  0.4301  0.0773
14799TIP3    H265889   2.027   0.398  13.119 -1.7852 -0.2415 -0.1391
14800TIP3   OH265890   0.198   1.516  16.487  0.0141  0.4577 -0.8221
14800TIP3    H165891   0.102   1.519  16.489 -0.0324 -0.1616 -1.6992
14800TIP3    H265892   0.222   1.477  16.572 -0.5688 -0.3585 -1.0182
14801TIP3   OH265893   5.788   4.460   2.322 -0.1392 -0.6843 -0.7093
14801TIP3    H165894   5.767   4.368   2.311  1.1882 -0.8699 -1.8417
14801TIP3    H265895   5.842   4.483   2.246 -0.3377  0.9937 -0.3950
14802TIP3   OH265896   4.516   4.508   5.103 -0.5480 -0.1456  0.8404
14802TIP3    H165897   4.454   4.435   5.111 -2.0396  0.8527 -0.7861
14802TIP3    H265898   4.486   4.571   5.170 -1.4250  0.3782 -0.0084
14803TIP3   OH265899   5.285   1.949   6.539 -0.3454 -0.3515  0.5087
14803TIP3    H165900   5.276   1.977   6.448  0.5762 -0.4015  0.3904
14803TIP3    H265901   5.204   1.978   6.581  0.4327  2.2936  0.3458
14804TIP3   OH265902   0.982   3.446  16.606 -0.2539  0.7086  0.1819
14804TIP3    H165903   1.018   3.359  16.621 -0.8860  0.5465  0.8212
14804TIP3    H265904   1.002   3.466  16.515  0.3982  0.1328  0.1971
14805TIP3   OH265905   5.054   4.866   2.346  0.1744 -0.1299  0.1380
14805TIP3    H165906   5.089   4.825   2.425  1.6852  0.8274  0.0088
14805TIP3    H265907   4.959   4.860   2.356  0.3398 -1.5147  1.2149
14806TIP3   OH265908   0.953   5.055  15.067  0.2660 -0.2058 -0.1048
14806TIP3    H165909   1.039   5.025  15.096 -0.0711  0.0067  1.1784
14806TIP3    H265910   0.951   5.035  14.974  0.8260 -2.3240  0.2797
14807TIP3   OH265911   4.174   1.217  14.437 -0.6640 -0.2784  0.0468
14807TIP3    H165912   4.098   1.223  14.378  0.9020  0.7390 -1.9751
14807TIP3    H265913   4.145   1.263  14.516 -1.8750  0.8813 -1.0092
14808TIP3   OH265914   5.183   6.699  16.443 -0.0195  0.0305 -0.1652
14808TIP3    H165915   5.237   6.622  16.426  0.2245  0.4696 -1.5382
14808TIP3    H265916   5.221   6.767  16.388 -0.6330  0.9536  0.5265
14809TIP3   OH265917   1.723   6.544  13.724 -0.1288 -0.6702  0.2066
14809TIP3    H165918   1.640   6.522  13.766  0.7130 -2.4567  1.0240
14809TIP3    H265919   1.721   6.640  13.717 -1.0796 -0.4231  2.7388
14810TIP3   OH265920   3.369   5.056   5.443 -0.1260 -0.0877 -0.1690
14810TIP3    H165921   3.424   5.030   5.517  0.5724  1.5285 -0.0751
14810TIP3    H265922   3.425   5.113   5.390 -0.8392 -0.6526 -1.5836
14811TIP3   OH265923   5.835   4.583  17.220  0.1621 -0.0899 -0.6903
14811TIP3    H165924   5.853   4.658  17.165  1.0966 -0.2386 -0.6122
14811TIP3    H265925   5.866   4.508  17.169 -0.3854 -0.3806 -0.6008
14812TIP3   OH265926   6.683   2.590  11.373 -0.0692 -0.2761 -0.6809
14812TIP3    H165927   6.624   2.516  11.389 -2.6385  1.7669 -0.1649
14812TIP3    H265928   6.708   2.620  11.461  0.9458 -0.4611 -0.8889
14813TIP3   OH265929   5.319   1.624   3.100 -1.0028  0.2002 -0.2602
14813TIP3    H165930   5.303   1.632   3.195 -0.2890 -1.2141  0.0120
14813TIP3    H265931   5.241   1.662   3.060 -1.7979 -0.1026  0.9241
14814TIP3   OH265932   5.233   2.940  10.620  0.5273 -0.6387  0.2135
14814TIP3    H165933   5.241   3.033  10.643  1.6361 -1.0855  1.8297
14814TIP3    H265934   5.322   2.906  10.630 -0.0195 -2.0385  0.4662
14815TIP3   OH265935   2.866   3.578  12.677  0.6487 -0.3947 -0.6681
14815TIP3    H165936   2.880   3.668  12.647  1.3842  0.4022  1.7966
14815TIP3    H265937   2.917   3.524  12.617 -0.0423  0.7812 -2.3686
14816TIP3   OH265938   5.759   3.903   4.195 -0.2000  0.3780 -0.1045
14816TIP3    H165939   5.830   3.944   4.244  1.6676 -0.1034 -2.2518
14816TIP3    H265940   5.724   3.974   4.140 -0.5426  0.3155  0.0318
14817TIP3   OH265941   4.915   2.778   5.933 -0.0826  0.1203  0.5252
14817TIP3    H165942   4.882   2.726   6.005 -1.5143  1.7028  1.0567
14817TIP3    H265943   5.005   2.799   5.958  0.3940 -1.6968  0.4768
14818TIP3   OH265944   0.483   3.945   3.515 -0.0415 -0.1312  0.5301
14818TIP3    H165945   0.524   4.001   3.449  1.4608 -0.4048  1.1951
14818TIP3    H265946   0.443   4.007   3.576 -0.9692  0.1344 -0.3174
14819TIP3   OH265947   4.328   4.748   0.977 -0.2442 -0.7533 -0.1573
14819TIP3    H165948   4.261   4.769   0.913 -0.1410  1.1769  0.3161
14819TIP3    H265949   4.398   4.706   0.927  0.0726  1.1833 -1.4434
14820TIP3   OH265950   3.235   0.168   0.237  0.2327  0.1169  0.2441
14820TIP3    H165951   3.312   0.223   0.248  0.1795  0.3448 -0.4752
14820TIP3    H265952   3.214   0.139   0.326  0.7191  0.6264  0.5364
14821TIP3   OH265953   0.478   0.921  12.012 -0.4868 -0.3226  0.0230
14821TIP3    H165954   0.518   1.006  12.000 -0.7998 -0.4192 -2.0953
14821TIP3    H265955   0.405   0.937  12.071  0.2307  0.6153  0.6792
14822TIP3   OH265956   0.026   2.012   1.070  0.3353 -0.0598  0.1979
14822TIP3    H165957   0.121   2.023   1.066  0.5169 -0.9485  1.3555
14822TIP3    H265958   0.008   1.939   1.010  0.2514  0.7047 -0.7252
14823TIP3   OH265959   6.183   3.262   0.418  0.1174  0.0146 -0.0992
14823TIP3    H165960   6.204   3.276   0.510 -1.8554 -0.5282  0.4886
14823TIP3    H265961   6.233   3.183   0.394  0.9207  0.3621  0.3855
14824TIP3   OH265962   1.415   4.980   2.332 -0.2475 -0.1677 -0.0024
14824TIP3    H165963   1.510   4.966   2.337 -0.0450  1.1919  0.4699
14824TIP3    H265964   1.401   5.063   2.378 -1.8896 -1.2373  1.5550
14825TIP3   OH265965   0.133   4.815  11.067  0.0216  0.0092 -0.3452
14825TIP3    H165966   0.059   4.783  11.119  1.1028 -0.9944  0.6268
14825TIP3    H265967   0.176   4.879  11.123  1.4317 -1.3721  0.2117
14826TIP3   OH265968   1.529   5.688   5.257 -0.1970 -0.3622  0.2298
14826TIP3    H165969   1.440   5.723   5.254 -0.3168 -0.7286 -0.9927
14826TIP3    H265970   1.520   5.596   5.231  0.5114 -0.4619  0.3080
14827TIP3   OH265971   1.221   5.171   3.306  0.0515  0.0937 -0.1037
14827TIP3    H165972   1.290   5.237   3.313 -0.7788  1.6843 -4.0213
14827TIP3    H265973   1.139   5.221   3.306 -1.0473 -1.5190  1.9408
14828TIP3   OH265974   1.259   5.202  16.829 -0.2189  0.6393  0.3055
14828TIP3    H165975   1.316   5.146  16.881 -0.7643  0.1339  0.3616
14828TIP3    H265976   1.305   5.212  16.745 -0.5611 -0.6876 -0.0582
14829TIP3   OH265977   2.528   3.803   0.361  0.6948  0.1222 -0.0078
14829TIP3    H165978   2.486   3.880   0.322  0.0589  0.9162  2.0991
14829TIP3    H265979   2.458   3.762   0.412  2.0862  0.8321  2.6574
14830TIP3   OH265980   4.216   3.393  15.455 -0.0052  0.1628 -0.3970
14830TIP3    H165981   4.188   3.471  15.408  0.0810  1.7989  2.0291
14830TIP3    H265982   4.301   3.371  15.416 -0.0266  1.3150 -1.1521
14831TIP3   OH265983   2.105   3.969  14.348 -0.0125  0.4874  0.2366
14831TIP3    H165984   2.191   3.927  14.341  0.6477  2.0125 -2.1213
14831TIP3    H265985   2.101   4.000  14.438  1.6926 -0.1279  0.5697
14832TIP3   OH265986   0.048   1.678  16.724 -0.9781 -0.4603  0.5423
14832TIP3    H165987  -0.001   1.655  16.644  0.2045 -1.9691  0.1950
14832TIP3    H265988   0.085   1.764  16.705 -1.8506 -0.1789  0.0256
14833TIP3   OH265989   4.572   6.349   6.304  0.0028  0.5932  0.5570
14833TIP3    H165990   4.614   6.433   6.320  1.1411  0.1311  0.1065
14833TIP3    H265991   4.479   6.365   6.322  0.0965  2.1065 -0.0910
14834TIP3   OH265992   6.486   2.294  14.940 -0.0203  0.1760 -0.1291
14834TIP3    H165993   6.512   2.259  15.025  1.5003  0.7077 -0.3450
14834TIP3    H265994   6.416   2.235  14.910 -0.0753 -0.4424  1.1518
14835TIP3   OH265995   0.654   6.594   2.401 -0.8653 -0.6294 -0.4876
14835TIP3    H165996   0.668   6.623   2.311 -0.2042 -1.9381 -0.8335
14835TIP3    H265997   0.714   6.648   2.453 -0.2119 -0.8217 -1.0161
14836TIP3   OH265998   5.423   6.777  13.422  0.5300 -0.2558 -0.0251
14836TIP3    H165999   5.408   6.829  13.500 -0.6645  0.1032 -0.4691
14836TIP3    H266000   5.494   6.822  13.376 -0.5352  1.0516 -0.4442
14837TIP3   OH266001   3.838   1.764  14.441 -0.2337 -0.5714 -0.3877
14837TIP3    H166002   3.748   1.739  14.462 -0.5656 -0.5446 -1.6845
14837TIP3    H266003   3.892   1.692  14.475 -0.7689 -0.7484  0.1009
14838TIP3   OH266004   2.142   4.786   3.385 -0.3948 -0.1905 -0.0810
14838TIP3    H166005   2.143   4.848   3.457  1.9889 -1.0075  0.6980
14838TIP3    H266006   2.079   4.719   3.411 -0.7562  0.3483  0.4625
14839TIP3   OH266007   3.162   4.113   1.015  0.8336 -0.0517 -0.0859
14839TIP3    H166008   3.159   4.041   0.952 -0.5851  0.7712 -0.9960
14839TIP3    H266009   3.105   4.084   1.087 -0.8166  0.6875 -1.0614
14840TIP3   OH266010   0.332   3.035   0.873 -0.0602  0.1312 -0.2195
14840TIP3    H166011   0.240   3.062   0.875  0.1918  1.0070 -0.0912
14840TIP3    H266012   0.329   2.941   0.893 -0.8927  0.2363  0.2397
14841TIP3   OH266013   1.494   5.022   1.398  0.1625 -0.3849  0.1355
14841TIP3    H166014   1.530   5.007   1.485  1.3969  0.6307 -0.1768
14841TIP3    H266015   1.410   5.065   1.414  1.1587  1.3850  0.8164
14842TIP3   OH266016   0.892   1.585  16.523  0.1758 -0.3544  0.2086
14842TIP3    H166017   0.919   1.496  16.501 -0.4094 -0.4298 -0.2149
14842TIP3    H266018   0.886   1.585  16.619  1.1823 -0.4690  0.2807
14843TIP3   OH266019   3.087   5.233   1.132  0.2427  0.3622 -0.0110
14843TIP3    H166020   3.067   5.264   1.220 -1.1733 -1.7261  0.4744
14843TIP3    H266021   3.003   5.209   1.094  1.1253 -3.3343 -0.0616
14844TIP3   OH266022   2.342   6.450  12.209 -0.1094  0.2541 -0.3003
14844TIP3    H166023   2.402   6.524  12.201  2.9351 -2.0770 -0.9568
14844TIP3    H266024   2.345   6.426  12.302 -0.3020  0.3508 -0.2692
14845TIP3   OH266025   0.707   2.083  12.011 -0.2458  0.0441 -0.2977
14845TIP3    H166026   0.789   2.100  12.057  0.7224 -1.3439 -1.4340
14845TIP3    H266027   0.671   2.170  11.993  1.5795  0.7232 -0.8393
14846TIP3   OH266028   6.327   5.906  12.143  0.1715 -0.1432  0.7806
14846TIP3    H166029   6.403   5.910  12.084 -0.1335  0.0494  0.3947
14846TIP3    H266030   6.351   5.962  12.217 -0.4001  1.5772 -0.2920
14847TIP3   OH266031   3.094   2.787  12.571  0.0448 -0.3396  0.2407
14847TIP3    H166032   3.161   2.760  12.509 -0.6879 -1.4776 -0.0929
14847TIP3    H266033   3.015   2.796  12.518 -0.3130 -0.0924  0.8014
14848TIP3   OH266034   3.882   1.634   5.018 -0.0995  0.3449  0.0168
14848TIP3    H166035   3.856   1.725   5.008 -1.0719 -0.0150 -0.9976
14848TIP3    H266036   3.963   1.637   5.068  0.1050  1.7875 -0.3575
14849TIP3   OH266037   6.223   3.121   1.018  0.3048  0.4337  0.4667
14849TIP3    H166038   6.138   3.160   0.996  1.2391  1.6932 -1.1006
14849TIP3    H266039   6.230   3.045   0.961  0.0322  0.0511  0.9395
14850TIP3   OH266040   2.196   0.723   0.104  0.4408  0.0879  0.1988
14850TIP3    H166041   2.168   0.704   0.193  2.0086  1.1845  0.9741
14850TIP3    H266042   2.204   0.637   0.062 -0.7165 -0.4096  0.9668
14851TIP3   OH266043   4.929   5.421  17.362  0.2774  0.1820 -0.2224
14851TIP3    H166044   4.863   5.481  17.396  0.3003  0.1852 -0.1836
14851TIP3    H266045   4.900   5.402  17.273 -1.1230 -1.7807  0.6034
14852TIP3   OH266046   4.035   3.759   0.427  0.1768  0.0722 -0.6253
14852TIP3    H166047   4.115   3.809   0.442 -0.0377  0.1648  0.3149
14852TIP3    H266048   3.982   3.775   0.505 -0.5508 -0.3817 -1.0138
14853TIP3   OH266049   5.522   4.325  13.967  0.2422 -0.7645 -0.2033
14853TIP3    H166050   5.524   4.327  13.871  0.8709  0.4185 -0.1814
14853TIP3    H266051   5.488   4.238  13.988  0.3883 -1.1591 -1.4936
14854TIP3   OH266052   0.088   2.715   1.982  0.1224 -0.1355 -0.1973
14854TIP3    H166053   0.087   2.702   2.077  1.0818 -1.3510 -0.3336
14854TIP3    H266054   0.119   2.805   1.970 -0.5634  0.2301  0.6377
14855TIP3   OH266055   4.715   4.683   4.653  0.4279 -0.2337  0.7640
14855TIP3    H166056   4.653   4.732   4.707 -0.1750 -1.4558  1.2307
14855TIP3    H266057   4.697   4.591   4.673  1.3488 -0.6678 -0.2613
14856TIP3   OH266058   6.060   2.223  12.797  0.8110  0.0103 -0.3687
14856TIP3    H166059   6.014   2.286  12.853  2.0403 -1.3324  2.3527
14856TIP3    H266060   6.138   2.269  12.768  0.2211  0.6869 -0.9120
14857TIP3   OH266061   3.029   4.425   2.673  0.0645  0.1200  0.3039
14857TIP3    H166062   3.111   4.401   2.715 -0.0800 -0.5650  0.2044
14857TIP3    H266063   3.054   4.486   2.604  0.6760 -1.2589 -0.7330
14858TIP3   OH266064   2.273   1.937   3.881  0.7026 -0.9166 -0.0558
14858TIP3    H166065   2.297   1.892   3.962 -0.3865 -1.0494  0.2067
14858TIP3    H266066   2.319   2.020   3.886 -1.7782  0.4798  2.2684
14859TIP3   OH266067   5.584   3.544   2.591  0.4436 -0.2088  0.0215
14859TIP3    H166068   5.611   3.511   2.677  0.4188  0.1222  0.1546
14859TIP3    H266069   5.501   3.590   2.607  0.6785  0.2604 -0.0988
14860TIP3   OH266070   0.027   2.496   5.789  0.2140  0.0886  0.3294
14860TIP3    H166071   0.121   2.485   5.778 -0.0200  0.4509 -2.8164
14860TIP3    H266072   0.018   2.584   5.825  1.0533  1.0632 -1.6989
14861TIP3   OH266073   6.776   0.409   3.998  0.4258  0.0479  0.3469
14861TIP3    H166074   6.777   0.480   4.063  2.1188 -0.5167  1.0094
14861TIP3    H266075   6.734   0.447   3.921  1.5499  1.9012  0.5768
14862TIP3   OH266076   3.176   5.251   3.867  0.2980 -1.2651  0.1707
14862TIP3    H166077   3.263   5.282   3.842 -0.5449  1.4428  0.3021
14862TIP3    H266078   3.135   5.226   3.784  0.7271 -1.2593 -0.0459
14863TIP3   OH266079   5.865   5.963  14.867  0.6701 -0.2488  0.5579
14863TIP3    H166080   5.886   5.885  14.919  0.1849 -0.4771  0.4202
14863TIP3    H266081   5.909   5.949  14.783 -0.7253 -1.1630 -0.0733
14864TIP3   OH266082   5.084   1.236  12.909  0.1233  0.7387  0.4677
14864TIP3    H166083   5.082   1.266  12.818  1.0817 -2.6911 -0.8363
14864TIP3    H266084   5.092   1.317  12.960  1.5640  2.7089 -2.5497
14865TIP3   OH266085   0.296   5.188  14.935  0.0416  0.5924  0.4380
14865TIP3    H166086   0.364   5.205  15.000  1.9190 -0.1621 -1.2362
14865TIP3    H266087   0.324   5.236  14.857  0.2170 -2.0054 -1.1935
14866TIP3   OH266088   5.858   5.478  14.619  0.0362 -0.4135  0.0390
14866TIP3    H166089   5.798   5.410  14.586  0.6660  0.0413 -2.1686
14866TIP3    H266090   5.804   5.557  14.624 -0.0252 -0.4511 -0.0326
14867TIP3   OH266091   3.647   3.283  12.418  0.2870  0.4945  0.0519
14867TIP3    H166092   3.579   3.245  12.363 -2.0913  0.7015  2.6156
14867TIP3    H266093   3.675   3.210  12.475  1.4665  0.6850 -0.2559
14868TIP3   OH266094   3.809   1.612  10.691  0.2146 -0.2414 -0.1096
14868TIP3    H166095   3.776   1.628  10.779  0.4056  1.4037 -0.3003
14868TIP3    H266096   3.893   1.658  10.688 -0.4307  0.9519 -1.5371
14869TIP3   OH266097   0.291   3.094  10.430 -0.4424 -0.0567 -0.1256
14869TIP3    H166098   0.245   3.030  10.375 -1.2777 -1.3879  2.0217
14869TIP3    H266099   0.228   3.119  10.497  1.1478 -0.0980  1.4835
14870TIP3   OH266100   1.645   6.657   6.181  0.0699 -0.1238 -0.5217
14870TIP3    H166101   1.636   6.726   6.246  1.2894  0.7680 -1.2469
14870TIP3    H266102   1.557   6.643   6.148 -0.4178  0.0658  0.6473
14871TIP3   OH266103   3.495   1.975   1.282 -0.0642  0.5439 -0.1586
14871TIP3    H166104   3.547   2.022   1.348 -1.0487 -2.2469  2.8752
14871TIP3    H266105   3.409   2.017   1.284 -0.4516 -0.2642  1.3189
14872TIP3   OH266106   0.268   2.959  17.438  1.0402 -0.4399  0.1386
14872TIP3    H166107   0.309   2.953  17.352  1.7658 -1.6038  0.5447
14872TIP3    H266108   0.328   3.014  17.489  0.2135  0.9190 -0.2908
14873TIP3   OH266109   2.371   0.440  12.502  0.5921 -0.2269 -0.0833
14873TIP3    H166110   2.327   0.505  12.558 -0.2896 -0.5940 -0.3440
14873TIP3    H266111   2.384   0.485  12.419  0.6632 -0.1311 -0.0200
14874TIP3   OH266112   0.472   5.815   0.332  0.0102  0.1438  0.0402
14874TIP3    H166113   0.477   5.879   0.262  0.7234  1.5629  1.3278
14874TIP3    H266114   0.385   5.829   0.371 -0.5517 -0.9207 -0.7755
14875TIP3   OH266115   4.790   6.064  14.771 -0.3101  0.5755  0.0520
14875TIP3    H166116   4.720   6.004  14.797  0.0126  0.3099  0.3018
14875TIP3    H266117   4.802   6.047  14.678 -1.5285  1.5889 -0.3280
14876TIP3   OH266118   2.370   5.030  13.650 -0.0749 -0.8295 -0.0122
14876TIP3    H166119   2.279   5.008  13.669  0.2215 -2.5598 -0.4407
14876TIP3    H266120   2.365   5.113  13.602 -1.2388  0.2388  1.8390
14877TIP3   OH266121   4.308   2.517   0.004 -0.2743  0.2842  0.6908
14877TIP3    H166122   4.248   2.591   0.005  0.4491  0.8863  2.0595
14877TIP3    H266123   4.394   2.554   0.024  0.1368 -0.8899  1.2205
14878TIP3   OH266124   2.243   5.342  12.026  0.1244 -0.6588  0.1336
14878TIP3    H166125   2.199   5.307  11.948 -0.4409  1.6085 -0.6432
14878TIP3    H266126   2.172   5.352  12.090 -0.0015  0.3477 -0.1473
14879TIP3   OH266127   1.002   5.469  16.796  0.5774  0.3606  0.2881
14879TIP3    H166128   1.077   5.509  16.839  1.4690 -1.7450  0.8050
14879TIP3    H266129   1.038   5.425  16.719  0.1544 -1.7373  1.2143
14880TIP3   OH266130   2.108   3.441  12.784  0.1959 -0.1364  0.5263
14880TIP3    H166131   2.196   3.428  12.749  0.1503  0.5530  0.1373
14880TIP3    H266132   2.074   3.352  12.797  1.4525 -0.4493  2.0142
14881TIP3   OH266133   4.339   5.516   6.611 -0.2369  0.0278 -0.1959
14881TIP3    H166134   4.391   5.439   6.587 -0.7454 -0.8077  1.2575
14881TIP3    H266135   4.396   5.590   6.593 -0.0798 -0.6011 -2.5292
14882TIP3   OH266136   0.344   0.623   1.329 -0.4188 -0.4145 -0.6560
14882TIP3    H166137   0.334   0.604   1.236  0.0285 -0.2889 -0.7328
14882TIP3    H266138   0.370   0.539   1.367 -1.1906 -0.6083 -0.5455
14883TIP3   OH266139   6.656   0.868  16.817 -0.5606  0.3095  0.0100
14883TIP3    H166140   6.575   0.824  16.841 -1.4095  0.2904 -2.6116
14883TIP3    H266141   6.657   0.947  16.871 -1.2078 -0.7365  1.6230
14884TIP3   OH266142   4.991   0.424   2.973 -0.4498 -0.3240  0.3029
14884TIP3    H166143   4.898   0.447   2.981 -0.5562 -0.5330 -0.2970
14884TIP3    H266144   4.992   0.329   2.986 -0.4328 -0.4469 -0.5320
14885TIP3   OH266145   4.261   6.089   2.319 -0.2655  0.6111  0.6530
14885TIP3    H166146   4.206   6.142   2.262  0.2191  0.2865 -0.1292
14885TIP3    H266147   4.293   6.150   2.385 -0.9361  0.9619  0.6645
14886TIP3   OH266148   2.261   2.408  13.453  0.3512  0.2005  0.2078
14886TIP3    H166149   2.239   2.407  13.359  2.3898  0.5255 -0.3126
14886TIP3    H266150   2.232   2.494  13.484 -1.8417 -0.5055  0.3223
14887TIP3   OH266151   0.076   5.802  14.852 -0.3981 -0.1942  0.9273
14887TIP3    H166152  -0.004   5.799  14.905  0.7475  0.2910  2.7907
14887TIP3    H266153   0.147   5.796  14.916  1.0795  0.2437 -0.6005
14888TIP3   OH266154   3.942   3.770   3.334 -0.3165 -0.2194 -0.2988
14888TIP3    H166155   3.908   3.726   3.412  0.1036 -0.0519 -0.0160
14888TIP3    H266156   4.015   3.715   3.305  0.7203  0.6788  0.5189
14889TIP3   OH266157   0.492   5.674   5.717  0.0959 -0.0345 -0.2713
14889TIP3    H166158   0.499   5.589   5.760 -0.1785  0.7875  1.4942
14889TIP3    H266159   0.513   5.738   5.786 -0.8403  1.3738 -1.2301
14890TIP3   OH266160   6.083   5.139   5.018  0.5917 -0.0568 -0.1307
14890TIP3    H166161   6.001   5.093   5.033  1.0191 -0.8805 -0.2783
14890TIP3    H266162   6.148   5.070   5.005  0.7062  0.4905 -3.5291
14891TIP3   OH266163   5.958   6.470   4.651  0.2499  0.2059  0.1294
14891TIP3    H166164   6.034   6.485   4.595  0.6588 -2.6369 -0.2337
14891TIP3    H266165   5.981   6.511   4.734  1.4860  0.7392 -0.4546
14892TIP3   OH266166   6.092   1.321  14.335 -0.5771  0.3326 -0.0591
14892TIP3    H166167   6.164   1.265  14.306 -1.6574 -0.2505 -1.8037
14892TIP3    H266168   6.030   1.260  14.376 -1.5466  0.2570 -1.5541
14893TIP3   OH266169   4.477   3.748  10.796 -0.0533 -0.2186  0.2017
14893TIP3    H166170   4.487   3.677  10.859 -1.9829  0.4905  1.3764
14893TIP3    H266171   4.435   3.707  10.720 -1.4391 -0.3202  0.9903
14894TIP3   OH266172   5.063   0.021  11.450 -0.4495  0.2022  0.1386
14894TIP3    H166173   5.036  -0.062  11.410 -0.5633  0.0336  0.5554
14894TIP3    H266174   5.088   0.076  11.376 -2.0202  0.4010 -0.3006
14895TIP3   OH266175   4.969   3.593  14.367  0.0246  0.3929  0.0895
14895TIP3    H166176   5.003   3.510  14.334 -0.0201  0.1289  0.6820
14895TIP3    H266177   5.047   3.649  14.375  0.3041 -0.1207  1.1867
14896TIP3   OH266178   1.640   2.092  12.059 -0.2533 -0.2585  0.0383
14896TIP3    H166179   1.611   2.161  11.999 -0.2031 -0.4891 -0.2471
14896TIP3    H266180   1.619   2.127  12.146 -1.2692 -0.3684 -0.1566
14897TIP3   OH266181   5.615   1.513   4.430 -0.1664  0.1164 -0.4352
14897TIP3    H166182   5.692   1.479   4.384 -0.0185  1.4281 -1.2086
14897TIP3    H266183   5.645   1.527   4.520 -0.2602 -1.8259 -0.0626
14898TIP3   OH266184   1.346   4.357   3.315 -0.3132  0.3425  0.0834
14898TIP3    H166185   1.439   4.344   3.297 -0.2844 -1.7499  1.3375
14898TIP3    H266186   1.343   4.429   3.377  0.5242  0.1694  0.3390
14899TIP3   OH266187   6.188   5.724  12.929 -0.2661 -0.6278 -0.0937
14899TIP3    H166188   6.141   5.661  12.984  0.2326 -0.6038  0.3747
14899TIP3    H266189   6.280   5.710  12.951 -0.0254 -0.8823 -1.2252
14900TIP3   OH266190   6.238   1.004   5.099 -0.1092  0.5250  0.4636
14900TIP3    H166191   6.228   1.015   5.004 -1.0934  1.7301  0.6778
14900TIP3    H266192   6.241   1.093   5.133 -0.8420  0.1166  1.6586
14901TIP3   OH266193   2.087   1.797   1.083  0.1786 -0.0866 -0.3378
14901TIP3    H166194   2.140   1.726   1.121  1.3176  0.2864 -1.1816
14901TIP3    H266195   2.044   1.756   1.007 -1.6504 -0.6780  0.9386
14902TIP3   OH266196   4.061   3.040   3.822 -0.0021  0.4912  0.3414
14902TIP3    H166197   3.991   3.099   3.850 -0.2216  0.5893 -0.3925
14902TIP3    H266198   4.018   2.976   3.765  0.1561 -0.6719  1.4892
14903TIP3   OH266199   2.718   3.745   2.979 -0.2458  0.1242 -0.3422
14903TIP3    H166200   2.723   3.737   2.883 -2.0856 -0.3576 -0.4482
14903TIP3    H266201   2.639   3.696   3.002  0.2621  0.0982  1.4572
14904TIP3   OH266202   3.856   0.541   4.756  0.1213  0.0597  0.4703
14904TIP3    H166203   3.804   0.522   4.678 -0.1918  0.0254  0.6836
14904TIP3    H266204   3.941   0.500   4.739 -0.5502 -1.6299  0.9508
14905TIP3   OH266205   3.886   4.847   6.371 -0.1353  0.1815  0.2105
14905TIP3    H166206   3.892   4.752   6.386  1.3245  0.4501  1.6914
14905TIP3    H266207   3.973   4.880   6.396 -1.0798  2.0745  1.1922
14906TIP3   OH266208   3.968   5.458  11.442 -0.6923  0.0694  0.2545
14906TIP3    H166209   3.984   5.548  11.414 -2.0922  0.2065 -0.1762
14906TIP3    H266210   3.930   5.467  11.530 -1.9819 -0.0123 -0.2763
14907TIP3   OH266211   4.038   1.889   1.873 -1.1043 -0.1781  0.3626
14907TIP3    H166212   3.974   1.865   1.806 -0.4095  2.0582 -1.2168
14907TIP3    H266213   4.044   1.984   1.867  0.7102 -0.1289  2.0410
14908TIP3   OH266214   5.128   0.351  14.518  0.4753  0.0801 -0.3644
14908TIP3    H166215   5.178   0.418  14.565 -1.4253 -0.6610  3.0464
14908TIP3    H266216   5.048   0.395  14.491  0.6427 -0.0382 -1.0710
14909TIP3   OH266217   6.031   2.092  16.669  0.1289  0.3135 -0.0790
14909TIP3    H166218   6.097   2.161  16.664 -1.6568  2.1195 -0.5680
14909TIP3    H266219   5.988   2.094  16.583 -0.0279 -1.3906 -0.0769
14910TIP3   OH266220   0.324   0.013  11.287 -0.6875  0.2139 -0.2712
14910TIP3    H166221   0.288  -0.074  11.302  0.8152 -0.3811  0.0690
14910TIP3    H266222   0.379   0.003  11.209  0.2512  0.6051  0.3214
14911TIP3   OH266223   6.336   5.398  13.510  0.8664 -0.1266  0.0746
14911TIP3    H166224   6.281   5.321  13.493  1.9773 -0.7521 -0.8548
14911TIP3    H266225   6.305   5.431  13.594 -1.4827  0.0550 -0.7839
14912TIP3   OH266226   6.702   4.692  13.892 -0.4591  0.5841 -0.1927
14912TIP3    H166227   6.674   4.605  13.863  2.9756 -0.1293 -1.8370
14912TIP3    H266228   6.694   4.747  13.814  0.0558  1.0170  0.0553
14913TIP3   OH266229   1.791   0.221   5.497  0.5097  0.3822  0.7828
14913TIP3    H166230   1.708   0.267   5.502 -0.5793 -1.5768  1.7384
14913TIP3    H266231   1.824   0.221   5.587 -0.1226 -1.6665  1.0658
14914TIP3   OH266232   5.709   0.858   0.966  0.2595  0.1176  0.7699
14914TIP3    H166233   5.729   0.765   0.971 -1.2001 -0.2451  0.4170
14914TIP3    H266234   5.792   0.900   0.944  0.1517 -1.5737 -3.8751
14915TIP3   OH266235   6.594   5.554  13.854  0.1617 -0.6135 -0.1918
14915TIP3    H166236   6.629   5.467  13.874 -0.3219 -1.0260 -1.0883
14915TIP3    H266237   6.639   5.581  13.774 -1.1648 -0.9384 -1.0768
14916TIP3   OH266238   4.538   5.288   4.281  0.1611 -1.1747  0.7532
14916TIP3    H166239   4.506   5.232   4.352  1.6534 -0.3540  2.1407
14916TIP3    H266240   4.499   5.374   4.300  0.1579 -1.0705  0.2765
14917TIP3   OH266241   1.451   0.321  17.241  0.3176 -0.1009 -0.4900
14917TIP3    H166242   1.401   0.393  17.281  0.6097  0.6251 -1.3805
14917TIP3    H266243   1.539   0.329  17.278  0.3903  0.1011 -0.7033
14918TIP3   OH266244   1.747   1.450  16.606  0.3378 -0.0985 -0.2196
14918TIP3    H166245   1.662   1.469  16.566 -0.8297  1.6407  2.7757
14918TIP3    H266246   1.807   1.511  16.563 -0.3968  0.2219 -0.8290
14919TIP3   OH266247   6.763   0.974   4.223  0.0554 -0.0280  0.0617
14919TIP3    H166248   6.805   1.030   4.288 -0.7196  0.0121  0.5500
14919TIP3    H266249   6.731   0.899   4.274  1.8674 -1.3854 -0.7150
14920TIP3   OH266250   0.956   1.792  15.544 -0.0957  0.0699  0.2262
14920TIP3    H166251   1.028   1.780  15.482  0.7361  3.0944  0.4222
14920TIP3    H266252   0.879   1.810  15.489 -0.1709 -0.8128  0.0413
14921TIP3   OH266253   1.006   4.178   0.035 -0.1429 -0.0372 -0.4661
14921TIP3    H166254   1.025   4.094  -0.006  0.0501  0.7679 -2.1025
14921TIP3    H266255   0.965   4.230  -0.034 -0.9368  0.9809  0.7208
14922TIP3   OH266256   4.835   0.418   3.290  0.3705  0.1332 -0.2054
14922TIP3    H166257   4.833   0.383   3.379  1.2171 -0.3470 -0.3589
14922TIP3    H266258   4.928   0.432   3.272  0.1332  1.2893 -0.6123
14923TIP3   OH266259   2.115   3.066  11.636  0.5872  0.0601 -0.5204
14923TIP3    H166260   2.138   2.983  11.677  1.8443  0.1400 -1.0139
14923TIP3    H266261   2.102   3.045  11.544  1.4509  0.4744 -0.7525
14924TIP3   OH266262   4.732   2.869  11.006 -0.1645  0.5078 -0.1610
14924TIP3    H166263   4.812   2.922  11.009 -0.0280  0.2698  1.4013
14924TIP3    H266264   4.662   2.932  10.990  0.0680  1.0927  0.9981
14925TIP3   OH266265   3.500   3.886  15.301 -0.1274  0.4296  0.2315
14925TIP3    H166266   3.534   3.900  15.390 -0.1039  0.2290  0.2567
14925TIP3    H266267   3.416   3.931  15.300 -0.3019  0.1158  0.4792
14926TIP3   OH266268   4.655   0.605   5.079  0.2235 -0.9133  0.4762
14926TIP3    H166269   4.667   0.538   5.012  0.0510  0.1844 -0.6800
14926TIP3    H266270   4.567   0.640   5.063  0.4328 -0.1955  0.8563
14927TIP3   OH266271   0.705   2.517  15.533 -0.0890  0.2499  1.0744
14927TIP3    H166272   0.760   2.534  15.609 -1.2283  2.5753  1.4601
14927TIP3    H266273   0.616   2.522  15.566 -0.5920  0.0945 -0.2083
14928TIP3   OH266274   2.841   4.242  11.586 -0.5942 -0.5328  0.5149
14928TIP3    H166275   2.904   4.265  11.518 -0.1610 -0.1358  1.0414
14928TIP3    H266276   2.866   4.296  11.661 -1.9951  0.1966  0.5109
14929TIP3   OH266277   6.609   5.559   6.126  0.2449 -0.0633 -0.0776
14929TIP3    H166278   6.631   5.534   6.036  1.3272  0.1320  0.1161
14929TIP3    H266279   6.555   5.637   6.116  2.3284  1.3940 -0.5300
14930TIP3   OH266280   5.608   4.767  12.815  0.3645 -0.1455  0.6927
14930TIP3    H166281   5.565   4.697  12.766  1.1756 -1.1047  1.3047
14930TIP3    H266282   5.550   4.784  12.889 -1.7129  2.4606 -1.3455
14931TIP3   OH266283   5.949   3.229   0.648 -0.9498 -0.8838 -0.3226
14931TIP3    H166284   5.949   3.292   0.720 -1.3210 -1.0046 -0.2132
14931TIP3    H266285   5.934   3.282   0.569  0.1234 -0.6680 -0.3959
14932TIP3   OH266286   5.676   4.125   3.349 -0.4834  0.2870  0.3793
14932TIP3    H166287   5.691   4.167   3.265  0.1282 -1.9762 -0.7118
14932TIP3    H266288   5.587   4.090   3.344 -0.5371  0.3663  0.7596
14933TIP3   OH266289   2.358   4.675  11.906 -0.0026 -0.2061  0.3891
14933TIP3    H166290   2.426   4.609  11.914 -0.7771 -1.0764  0.0053
14933TIP3    H266291   2.367   4.708  11.817 -2.4091 -3.0451 -1.0866
14934TIP3   OH266292   4.125   4.740   4.710 -0.6159 -0.2566 -0.1021
14934TIP3    H166293   4.035   4.773   4.714 -0.7961 -0.5899 -1.1512
14934TIP3    H266294   4.153   4.736   4.802 -1.2907  0.8600  0.1735
14935TIP3   OH266295   5.142   2.636   2.032 -0.2671 -0.0077  0.3562
14935TIP3    H166296   5.169   2.698   1.965 -3.4182 -0.4714 -1.4939
14935TIP3    H266297   5.204   2.650   2.104  1.7876  2.1507 -1.6827
14936TIP3   OH266298   1.262   1.570   4.759 -0.0103  0.3148  0.3030
14936TIP3    H166299   1.323   1.629   4.803  0.6931 -0.5244  0.4842
14936TIP3    H266300   1.289   1.483   4.786 -0.2651 -0.1642 -0.8979
14937TIP3   OH266301   4.690   6.340  12.220 -0.2579 -0.6460 -0.0556
14937TIP3    H166302   4.699   6.376  12.132 -2.3372 -0.7018 -0.3210
14937TIP3    H266303   4.698   6.246  12.208  0.7252 -0.5895  0.0262
14938TIP3   OH266304   4.699   3.249   2.429  0.1398  0.8595  0.3497
14938TIP3    H166305   4.625   3.191   2.409  0.6198  0.4129 -0.1552
14938TIP3    H266306   4.678   3.284   2.516 -1.4222  1.9565 -0.4186
14939TIP3   OH266307   0.330   4.831  14.886  0.3787  0.0720 -0.0012
14939TIP3    H166308   0.399   4.882  14.928  0.0469  0.7591 -0.2862
14939TIP3    H266309   0.377   4.762  14.839  0.9456  1.1581 -1.0714
14940TIP3   OH266310   4.296   5.932  11.848 -0.0385 -0.1071 -0.6893
14940TIP3    H166311   4.262   5.958  11.934  0.2367  0.6283 -0.7917
14940TIP3    H266312   4.298   5.836  11.850 -1.2023 -0.1284 -0.3360
14941TIP3   OH266313   4.668   0.483  16.121  0.7945  0.3357  0.3288
14941TIP3    H166314   4.654   0.449  16.210  0.6002 -0.3270  0.0514
14941TIP3    H266315   4.736   0.549  16.131  0.7721  0.2671  0.9739
14942TIP3   OH266316   3.176   0.690   5.266  0.6528  0.2479 -0.4594
14942TIP3    H166317   3.134   0.604   5.259 -0.0146  0.5450 -0.1215
14942TIP3    H266318   3.255   0.674   5.318 -0.3150  0.1322  1.0106
14943TIP3   OH266319   4.576   0.317  14.600  0.4100  0.5279 -0.5995
14943TIP3    H166320   4.596   0.406  14.629  0.3281  0.9336 -1.7416
14943TIP3    H266321   4.485   0.303  14.627  0.9498  0.1159  1.1420
14944TIP3   OH266322   0.274   0.208  14.036  0.4743 -0.2633  0.6312
14944TIP3    H166323   0.282   0.271  13.964  0.2798  0.1098  0.9340
14944TIP3    H266324   0.262   0.124  13.992  0.2642 -0.0287  0.2251
14945TIP3   OH266325   0.692   0.295  13.325 -0.2274  0.6064 -0.0374
14945TIP3    H166326   0.655   0.383  13.326  0.7637  1.0658 -1.2372
14945TIP3    H266327   0.739   0.290  13.242  0.4618 -0.7576  0.4120
14946TIP3   OH266328   2.318   0.195  14.136  0.1586 -0.2064  0.1688
14946TIP3    H166329   2.413   0.201  14.133  0.0882  1.7933  0.4802
14946TIP3    H266330   2.296   0.202  14.229 -0.3397  0.7146 -0.0105
14947TIP3   OH266331   5.500   0.642  13.524 -0.2102 -0.4905  0.0037
14947TIP3    H166332   5.548   0.642  13.441  0.4445  0.0673  0.3729
14947TIP3    H266333   5.410   0.620  13.499 -0.3268  0.9859 -1.0618
14948TIP3   OH266334   0.458   6.752  16.206 -0.0370 -0.4903 -0.5023
14948TIP3    H166335   0.541   6.727  16.165  0.1078  0.8200 -1.0716
14948TIP3    H266336   0.396   6.757  16.133 -0.1911  0.2175 -0.3314
14949TIP3   OH266337   6.505   0.164  16.304 -0.0460  0.4368 -0.2483
14949TIP3    H166338   6.533   0.171  16.395  0.7421 -0.5755 -0.3927
14949TIP3    H266339   6.569   0.215  16.255 -1.0373  1.8165 -0.1636
14950TIP3   OH266340   6.167   4.261  12.559  0.3249  0.2919  0.3257
14950TIP3    H166341   6.173   4.349  12.520  0.0216  1.0827  1.9579
14950TIP3    H266342   6.124   4.276  12.643  0.2247 -1.4516  0.6080
14951TIP3   OH266343   2.125   1.548  12.994 -0.0700  0.5883 -0.3598
14951TIP3    H166344   2.132   1.457  13.022  0.0580  0.1291 -1.8240
14951TIP3    H266345   2.063   1.587  13.056 -1.4841 -0.9406 -0.7299
14952TIP3   OH266346   3.250   4.818   5.260  0.5220 -0.1707  0.7429
14952TIP3    H166347   3.272   4.725   5.261  0.1658 -0.2558  0.7291
14952TIP3    H266348   3.290   4.853   5.340  1.2419 -0.1963  0.3989
14953TIP3   OH266349   5.801   5.513  16.527  0.0743  0.1080 -0.6118
14953TIP3    H166350   5.709   5.525  16.549  0.0710 -1.1020  0.1455
14953TIP3    H266351   5.804   5.510  16.432 -0.8162 -0.8445 -0.6212
14954TIP3   OH266352   4.512   4.149  15.868  0.4945 -0.0419 -0.3852
14954TIP3    H166353   4.599   4.154  15.828  0.9619  0.6113  0.6952
14954TIP3    H266354   4.527   4.160  15.961 -0.7614  0.1161 -0.1867
14955TIP3   OH266355   5.075   1.450   3.653  0.3483  0.2061  0.0091
14955TIP3    H166356   5.069   1.501   3.572  0.0863 -0.6093 -0.5039
14955TIP3    H266357   4.984   1.429   3.674  0.2765  1.6863  1.3766
14956TIP3   OH266358   6.528   4.957  16.225 -0.3137 -0.4080  0.0645
14956TIP3    H166359   6.495   4.891  16.286 -1.3455  0.2366  0.2434
14956TIP3    H266360   6.510   4.921  16.138  1.2324 -1.3647  0.1164
14957TIP3   OH266361   2.764   1.641  12.307  0.4285  0.2599 -0.7046
14957TIP3    H166362   2.730   1.661  12.220 -0.5603 -2.1683 -0.9312
14957TIP3    H266363   2.853   1.608  12.291  0.6435  0.8085 -0.6728
14958TIP3   OH266364   6.461   0.706  16.945  0.2612  0.2922  0.2244
14958TIP3    H166365   6.381   0.712  16.894 -0.5266  0.6277  1.4364
14958TIP3    H266366   6.438   0.747  17.029  2.4281  2.7195 -0.2312
14959TIP3   OH266367   1.268   2.936  12.739 -0.0516 -0.6342 -0.3357
14959TIP3    H166368   1.239   3.010  12.792  0.3994 -0.6450 -0.0695
14959TIP3    H266369   1.224   2.948  12.655 -2.0624 -1.4876  0.5270
14960TIP3   OH266370   5.593   3.330  13.244  0.0973  0.5179  0.0317
14960TIP3    H166371   5.584   3.235  13.241  0.6112  0.4207  1.0895
14960TIP3    H266372   5.506   3.363  13.223 -0.4620 -0.2155  1.1137
14961TIP3   OH266373   5.843   4.255   4.089 -0.3136 -0.4091  0.0969
14961TIP3    H166374   5.850   4.350   4.101 -1.7378 -0.3190  0.4406
14961TIP3    H266375   5.930   4.228   4.060  0.3698  0.8771  0.8236
14962TIP3   OH266376   3.386   5.461  14.273  0.2832  0.1643 -0.1169
14962TIP3    H166377   3.302   5.501  14.250 -1.9034 -0.9486  4.6487
14962TIP3    H266378   3.432   5.530  14.322  1.4604  0.1863 -1.2009
14963TIP3   OH266379   1.747   5.231  16.114  0.6961 -0.7347  0.3247
14963TIP3    H166380   1.764   5.142  16.145  0.6321 -0.8397  0.0583
14963TIP3    H266381   1.677   5.263  16.171  0.1240 -1.1604 -0.1155
14964TIP3   OH266382   0.629   1.172  13.031  0.3543 -0.0572  0.4672
14964TIP3    H166383   0.642   1.128  13.115  1.0607  1.5704  1.2715
14964TIP3    H266384   0.706   1.150  12.980  0.0945 -0.7644  0.3709
14965TIP3   OH266385   5.253   4.127  11.806  0.3500 -0.1154 -0.1224
14965TIP3    H166386   5.259   4.191  11.734  1.1997 -1.5254 -1.3692
14965TIP3    H266387   5.161   4.104  11.810  0.4418 -0.8417 -1.5582
14966TIP3   OH266388   2.093   4.772  12.454  0.3954  0.1811  0.3735
14966TIP3    H166389   2.128   4.737  12.536  0.8326 -1.0573 -0.3034
14966TIP3    H266390   2.167   4.814  12.412  0.6636 -0.9065 -0.2650
14967TIP3   OH266391   4.363   5.655   4.096  0.1130  0.0500  0.2817
14967TIP3    H166392   4.340   5.719   4.029  0.5010  0.6261  0.6895
14967TIP3    H266393   4.347   5.700   4.179  0.5901 -0.3051  0.5697
14968TIP3   OH266394   3.030   5.493   4.329 -0.0651 -0.2615 -0.0807
14968TIP3    H166395   2.939   5.501   4.302 -0.1057  3.9851  0.6975
14968TIP3    H266396   3.026   5.473   4.422 -0.1547 -0.8960 -0.2162
14969TIP3   OH266397   4.548   4.946  12.430  0.0150  0.2451  0.4788
14969TIP3    H166398   4.587   4.922  12.345  0.4428  0.2947  0.6562
14969TIP3    H266399   4.620   4.987  12.478 -0.6607  1.8388  0.2188
14970TIP3   OH266400   0.355   0.726  11.052  0.5310 -0.0608 -0.2656
14970TIP3    H166401   0.389   0.672  10.982 -0.5046  0.1392 -0.9451
14970TIP3    H266402   0.283   0.775  11.012 -0.2524 -0.1331  0.9818
14971TIP3   OH266403   0.644   2.069   3.617 -0.3511  0.0783  0.8391
14971TIP3    H166404   0.689   2.148   3.649 -0.6092  0.6268 -0.1137
14971TIP3    H266405   0.715   2.007   3.599 -0.0460  0.5409  0.4069
14972TIP3   OH266406   1.860   4.372   6.040 -0.3611 -0.2458  0.2866
14972TIP3    H166407   1.828   4.308   5.977 -1.2898  0.2753  0.2131
14972TIP3    H266408   1.894   4.319   6.112 -0.2753 -0.8293 -0.1767
14973TIP3   OH266409   3.966   5.044  14.532  0.0499 -0.8007 -0.0707
14973TIP3    H166410   3.883   5.035  14.579 -0.6404 -0.0783 -1.1016
14973TIP3    H266411   4.005   5.125  14.567  0.7193 -1.5556  0.9772
14974TIP3   OH266412   3.161   5.406  14.897 -0.7964 -0.3092 -0.0305
14974TIP3    H166413   3.104   5.395  14.821 -0.2853  1.2504 -0.6854
14974TIP3    H266414   3.145   5.496  14.925  0.9000 -0.0261  0.1164
14975TIP3   OH266415   2.519   1.482  15.280 -0.6875  0.2892 -0.2022
14975TIP3    H166416   2.520   1.531  15.363 -1.9576  1.3139 -0.7566
14975TIP3    H266417   2.601   1.505  15.237 -0.3551  0.3285  0.4455
14976TIP3   OH266418   3.971   5.905  16.787  0.3072 -0.2239 -0.0483
14976TIP3    H166419   4.060   5.893  16.819 -0.3907 -2.2781  1.3842
14976TIP3    H266420   3.940   5.985  16.830  0.9219 -0.4299  0.8067
14977TIP3   OH266421   1.311   3.380   0.874 -0.2538  0.3377  0.1300
14977TIP3    H166422   1.381   3.444   0.864  0.5193 -0.5794 -0.5271
14977TIP3    H266423   1.325   3.343   0.962  0.9150 -0.7617 -0.4888
14978TIP3   OH266424   1.534   1.227  17.231  0.1417 -0.4559  0.5117
14978TIP3    H166425   1.535   1.177  17.312  1.9312  0.5670  1.1811
14978TIP3    H266426   1.598   1.183  17.175  1.1970  0.6040  0.8423
14979TIP3   OH266427   1.146   4.692  13.520  0.2000 -0.0823  0.3081
14979TIP3    H166428   1.051   4.691  13.534  0.2933 -0.1400  0.9727
14979TIP3    H266429   1.157   4.724  13.431 -0.4418  0.0385  0.2699
14980TIP3   OH266430   5.677   2.749  17.020 -0.7937 -0.0247 -0.2299
14980TIP3    H166431   5.725   2.813  16.967  0.5149 -1.4749 -0.8752
14980TIP3    H266432   5.691   2.778  17.110 -1.5647  1.4761 -0.5644
14981TIP3   OH266433   1.537   1.110   2.667 -0.2017  0.2659 -0.0314
14981TIP3    H166434   1.547   1.122   2.573 -0.3894 -0.2677 -0.1223
14981TIP3    H266435   1.452   1.066   2.677 -0.3805  0.6945  0.4166
14982TIP3   OH266436   5.861   5.751  12.824 -0.0584 -0.1307  0.1327
14982TIP3    H166437   5.858   5.680  12.760 -1.0641  0.2848 -0.3036
14982TIP3    H266438   5.929   5.725  12.886 -0.0909 -1.2457 -0.2818
14983TIP3   OH266439   1.767   5.733   4.156 -0.1374 -0.1511  0.2439
14983TIP3    H166440   1.674   5.717   4.171 -0.7876  2.0729 -0.9395
14983TIP3    H266441   1.804   5.647   4.140 -1.3160 -1.5023  3.8110
14984TIP3   OH266442   3.650   6.454   2.378  0.0123 -0.3611 -0.5032
14984TIP3    H166443   3.556   6.469   2.390  0.0244  0.1370 -1.0031
14984TIP3    H266444   3.686   6.457   2.467 -0.2060  1.1375 -0.4351
14985TIP3   OH266445   4.108   2.978  14.180 -0.2162 -0.5448 -0.5134
14985TIP3    H166446   4.124   2.888  14.151 -0.5361 -0.7975  0.0849
14985TIP3    H266447   4.159   3.032  14.119 -1.5970 -0.9903 -2.1327
14986TIP3   OH266448   5.294   0.229   3.094  0.2731  0.2106 -0.6460
14986TIP3    H166449   5.306   0.137   3.071 -0.1815 -0.0027 -0.0364
14986TIP3    H266450   5.241   0.228   3.174  0.2373  1.0011 -0.6493
14987TIP3   OH266451   1.680   0.084  15.171  0.2658 -0.0082  0.1420
14987TIP3    H166452   1.689   0.052  15.081  1.7016  1.1445 -0.1600
14987TIP3    H266453   1.625   0.018  15.214  3.0529 -2.9563 -0.4070
14988TIP3   OH266454   0.705   2.603   2.901  0.1063 -0.8063 -0.4280
14988TIP3    H166455   0.777   2.631   2.845  0.6207 -1.4204 -0.0933
14988TIP3    H266456   0.740   2.526   2.948 -0.0039  0.1726  1.3455
14989TIP3   OH266457   6.088   1.227   2.218  0.8171  0.0869  0.6487
14989TIP3    H166458   6.145   1.228   2.295  2.1787 -2.0241 -0.2403
14989TIP3    H266459   6.028   1.153   2.234  0.5073  0.2096  0.0721
14990TIP3   OH266460   5.593   0.434   2.567  0.5228 -0.0522 -0.1895
14990TIP3    H166461   5.592   0.448   2.472  0.8602 -1.0454 -0.3547
14990TIP3    H266462   5.664   0.490   2.599 -0.0201  0.7914 -0.4256
14991TIP3   OH266463   5.299   5.051   5.170 -0.2311 -0.2055  0.1610
14991TIP3    H166464   5.320   5.056   5.263 -1.8403 -0.5542  0.5744
14991TIP3    H266465   5.285   5.142   5.143  0.8371 -0.0478  0.0845
14992TIP3   OH266466   5.573   0.277   2.781  0.5686  0.8626 -0.1132
14992TIP3    H166467   5.653   0.229   2.762  1.4309  1.2777  2.1984
14992TIP3    H266468   5.554   0.325   2.700  2.7926  0.9493 -0.6376
14993TIP3   OH266469   4.580   5.115  11.538  0.1876  0.1169  0.4376
14993TIP3    H166470   4.518   5.187  11.534  0.0774 -0.0408 -0.9196
14993TIP3    H266471   4.533   5.045  11.583  0.0698  0.6494  1.1632
14994TIP3   OH266472   0.402   4.782   5.551 -0.1005 -0.0239  0.1685
14994TIP3    H166473   0.443   4.706   5.592  1.2742  1.2414  1.2548
14994TIP3    H266474   0.313   4.753   5.531 -0.2251 -1.3523  2.2709
14995TIP3   OH266475   0.230   5.839   0.415  0.3973  0.3901  0.0167
14995TIP3    H166476   0.159   5.785   0.449  1.8183  0.2212  3.0145
14995TIP3    H266477   0.238   5.911   0.478  2.4591  0.7561 -0.5764
14996TIP3   OH266478   1.328   5.539  14.538  0.3891 -0.0324 -0.9384
14996TIP3    H166479   1.402   5.493  14.578  0.6337 -0.1159 -1.4662
14996TIP3    H266480   1.251   5.491  14.567  0.4956  0.3372  0.0028
14997TIP3   OH266481   4.850   3.140   0.698 -0.1585 -0.0710 -0.0660
14997TIP3    H166482   4.796   3.216   0.717 -0.6117 -0.5531  0.5984
14997TIP3    H266483   4.912   3.171   0.631  0.2852  1.1531  0.8702
14998TIP3   OH266484   3.594   1.591  12.996  0.0202  0.7320 -0.0844
14998TIP3    H166485   3.620   1.499  13.003  0.1170  0.3008 -4.1046
14998TIP3    H266486   3.661   1.639  13.046  1.2806 -1.2218  0.1790
14999TIP3   OH266487   5.902   2.118   5.267 -0.3276 -0.2821 -0.4521
14999TIP3    H166488   5.909   2.027   5.239  0.7207 -1.2091  2.4750
14999TIP3    H266489   5.829   2.119   5.328 -0.2677  0.8291 -0.3738
15000TIP3   OH266490   0.775   5.412   4.261  0.1445 -0.1735  0.1070
15000TIP3    H166491   0.818   5.478   4.315 -1.6123 -0.1709  1.5933
15000TIP3    H266492   0.843   5.347   4.243  0.6638 -0.5622  2.9961
15001TIP3   OH266493   2.721   4.044   5.251  0.0550  0.2931  0.2387
15001TIP3    H166494   2.682   4.050   5.338  0.9522  1.0976  0.6163
15001TIP3    H266495   2.779   3.968   5.256 -1.7683 -1.1988 -0.4769
15002TIP3   OH266496   3.985   4.381  15.588 -0.9081 -0.2754  0.6308
15002TIP3    H166497   3.952   4.292  15.592 -2.5479  0.2801  0.2385
15002TIP3    H266498   3.922   4.428  15.533 -0.5665  1.3166  1.5184
15003TIP3   OH266499   4.527   5.855   2.001 -0.5956 -0.2068 -0.0358
15003TIP3    H166500   4.519   5.904   1.919  3.5617 -0.8470 -1.0650
15003TIP3    H266501   4.516   5.763   1.976 -1.4047 -0.2778  0.5478
15004TIP3   OH266502   6.304   3.161  12.424 -0.2188  0.0726  0.1411
15004TIP3    H166503   6.354   3.110  12.360  0.4288  0.1635  0.5616
15004TIP3    H266504   6.243   3.098  12.462 -2.0104  0.4271 -1.9214
15005TIP3   OH266505   5.009   2.899  16.140  0.2652  0.5124 -0.2195
15005TIP3    H166506   5.029   2.813  16.104  0.6162  0.4131  0.2037
15005TIP3    H266507   5.047   2.898  16.228  0.3728  1.1395 -0.2547
15006TIP3   OH266508   0.886   1.788   0.244  0.0307 -0.3332  0.2295
15006TIP3    H166509   0.828   1.838   0.186  0.1661 -0.1701  0.2347
15006TIP3    H266510   0.947   1.852   0.278  2.0890 -0.9361 -2.0442
15007TIP3   OH266511   5.726   1.830   0.972 -0.0832 -0.0532 -0.1267
15007TIP3    H166512   5.641   1.790   0.995 -0.1219  0.2024  0.1764
15007TIP3    H266513   5.710   1.872   0.888  0.1376 -1.2433 -0.7802
15008TIP3   OH266514   1.011   4.337   4.026  0.1896 -0.5174 -0.1533
15008TIP3    H166515   1.023   4.376   4.113 -1.3509 -0.5722  0.1096
15008TIP3    H266516   1.098   4.341   3.986  0.2584  2.6787  0.0525
15009TIP3   OH266517   0.072   6.104  15.024  0.1805  0.5373  0.2804
15009TIP3    H166518   0.071   6.012  15.050  1.9423  0.1173 -0.9588
15009TIP3    H266519   0.090   6.152  15.106 -2.2775 -0.0304  1.2279
15010TIP3   OH266520   2.122   5.507  12.309  0.1296 -0.3150  0.2501
15010TIP3    H166521   2.187   5.570  12.277  0.4876 -0.5609  0.4847
15010TIP3    H266522   2.038   5.553  12.302  0.3632  0.1097  0.2165
15011TIP3   OH266523   3.199   6.681  14.869 -0.7549 -0.0956  0.2577
15011TIP3    H166524   3.279   6.637  14.841 -1.0996 -0.2207 -0.5549
15011TIP3    H266525   3.225   6.732  14.946  0.0031 -0.4719  0.2558
15012TIP3   OH266526   6.374   1.383  14.895 -0.2130 -0.3277 -0.0627
15012TIP3    H166527   6.325   1.461  14.868 -1.8178 -0.4664  2.1501
15012TIP3    H266528   6.306   1.321  14.922  0.9492 -2.8694 -2.4749
15013TIP3   OH266529   0.369   2.471   0.786 -0.2563  0.3268 -0.5076
15013TIP3    H166530   0.371   2.485   0.691  0.8255  1.0050 -0.3869
15013TIP3    H266531   0.365   2.375   0.795 -0.2649  0.2516 -1.2249
15014TIP3   OH266532   5.750   5.257   4.346  0.4467  0.3170  0.0611
15014TIP3    H166533   5.825   5.257   4.287  0.7711 -1.6849  0.3780
15014TIP3    H266534   5.752   5.170   4.386 -2.3059  0.0128 -0.2648
15015TIP3   OH266535   4.962   3.525  13.269 -0.3507 -0.1247 -0.2638
15015TIP3    H166536   5.039   3.579  13.255  0.2672 -0.7176  0.7535
15015TIP3    H266537   4.889   3.578  13.236  0.2090  1.4138  0.8806
15016TIP3   OH266538   4.878   3.178   3.824 -0.3585  0.3009  0.8570
15016TIP3    H166539   4.825   3.098   3.822 -0.0583  0.0545  2.0988
15016TIP3    H266540   4.835   3.235   3.888  0.5260  0.3274  1.4494
15017TIP3   OH266541   1.593   0.188   4.792  0.4567  0.4530 -0.4486
15017TIP3    H166542   1.660   0.143   4.843  1.2559  1.0603 -0.9537
15017TIP3    H266543   1.564   0.260   4.848 -1.2311 -0.9470  0.6029
15018TIP3   OH266544   4.349   0.166   5.939 -0.4571 -0.0638  0.3251
15018TIP3    H166545   4.305   0.244   5.974 -0.6746 -0.4617  0.9531
15018TIP3    H266546   4.435   0.166   5.980 -0.9259 -0.8530  1.3410
15019TIP3   OH266547   6.354   0.628  13.520 -0.3148  0.6687  0.3085
15019TIP3    H166548   6.448   0.626  13.538 -0.1754 -0.1057 -0.4434
15019TIP3    H266549   6.321   0.546  13.556 -0.4217  0.1910 -0.8338
15020TIP3   OH266550   5.156   5.015  10.967 -0.2847  0.0897 -0.2028
15020TIP3    H166551   5.077   5.000  11.020  1.2070  1.3131  2.6127
15020TIP3    H266552   5.123   5.048  10.883 -2.7737  0.8784  0.9821
15021TIP3   OH266553   3.163   3.541   1.217 -0.0432  0.0459 -0.2442
15021TIP3    H166554   3.096   3.533   1.149 -1.0941 -4.2408  0.9901
15021TIP3    H266555   3.122   3.596   1.285 -2.2450 -2.0470  0.2577
15022TIP3   OH266556   4.863   4.078   1.436 -0.6987  0.0170 -0.1565
15022TIP3    H166557   4.806   4.011   1.398 -0.1796 -0.1385 -0.6923
15022TIP3    H266558   4.938   4.029   1.470 -0.1633  0.3322 -0.8354
15023TIP3   OH266559   0.439   2.451  16.731  0.1836  0.6290 -0.0234
15023TIP3    H166560   0.378   2.472  16.802 -1.4721  0.1700 -1.2647
15023TIP3    H266561   0.518   2.421  16.776 -1.4331 -1.3869  1.6580
15024TIP3   OH266562   4.742   2.232   4.384  0.6689 -0.6447 -0.0460
15024TIP3    H166563   4.681   2.175   4.431  0.0675 -0.8364 -1.0214
15024TIP3    H266564   4.725   2.319   4.420 -0.1376 -0.7125 -0.2301
15025TIP3   OH266565   1.764   0.431  13.304  0.2213  0.1228  0.2315
15025TIP3    H166566   1.736   0.466  13.389  0.2119 -0.2348  0.3776
15025TIP3    H266567   1.768   0.508  13.247 -2.1586  0.0686 -0.1155
15026TIP3   OH266568   1.572   4.174  11.568 -0.1647  0.3526  0.8946
15026TIP3    H166569   1.657   4.137  11.591  0.2553  1.6552  1.5546
15026TIP3    H266570   1.518   4.160  11.646 -0.7546 -0.9554  0.2841
15027TIP3   OH266571   3.550   0.117  16.312 -0.5115 -0.6488 -0.4996
15027TIP3    H166572   3.471   0.081  16.354 -0.2694  0.8055  1.3018
15027TIP3    H266573   3.598   0.039  16.282 -2.4723 -1.5752 -1.4177
15028TIP3   OH266574   3.808   0.585   0.065  0.7735  0.1090  0.3994
15028TIP3    H166575   3.769   0.581  -0.023 -0.4780  0.3546  0.9181
15028TIP3    H266576   3.886   0.638   0.055 -0.9859  2.8163 -0.0221
15029TIP3   OH266577   1.753   4.362   2.282 -0.3533 -0.6845  0.2622
15029TIP3    H166578   1.774   4.306   2.357  0.2198 -0.5805  0.1842
15029TIP3    H266579   1.826   4.424   2.277  0.1341 -1.3385 -0.9999
15030TIP3   OH266580   6.462   2.518  10.726  0.0227  0.6336 -0.1460
15030TIP3    H166581   6.557   2.522  10.713 -0.0207 -0.2982 -0.7878
15030TIP3    H266582   6.425   2.532  10.639 -0.4055  0.3000 -0.0201
15031TIP3   OH266583   6.545   1.848  13.357 -0.1573 -0.3654  0.9266
15031TIP3    H166584   6.534   1.909  13.430 -1.7640 -0.8851  1.1569
15031TIP3    H266585   6.506   1.892  13.283 -0.3881 -0.6863  0.8554
15032TIP3   OH266586   4.132   1.083   1.912 -0.2999 -0.3880  0.1627
15032TIP3    H166587   4.067   1.050   1.850 -2.2155  1.2537  1.1677
15032TIP3    H266588   4.088   1.154   1.958  1.6143 -0.3846  2.2116
15033TIP3   OH266589   1.515   3.935  16.291  0.2657  0.1400 -0.1125
15033TIP3    H166590   1.533   3.843  16.272 -1.2585 -0.4538  1.0864
15033TIP3    H266591   1.423   3.947  16.268  0.4164  1.3403 -0.1415
15034TIP3   OH266592   1.058   6.673  14.732 -0.0005 -0.4251  0.1580
15034TIP3    H166593   1.153   6.677  14.746  0.0500  1.0205 -0.3745
15034TIP3    H266594   1.041   6.744  14.669 -1.3825 -0.9120 -0.0393
15035TIP3   OH266595   2.767   4.246   3.041  0.3258  0.4673  0.1954
15035TIP3    H166596   2.685   4.234   3.090 -1.3275  0.5833 -2.3376
15035TIP3    H266597   2.768   4.174   2.978  0.9226  1.8235 -1.4180
15036TIP3   OH266598   2.507   6.102   5.605  0.1524  0.3737 -0.3901
15036TIP3    H166599   2.445   6.153   5.553 -0.9444 -3.2535 -3.0096
15036TIP3    H266600   2.590   6.112   5.559  0.4080  1.2265  0.2231
15037TIP3   OH266601   3.187   5.367  13.414 -0.4534  0.6752 -0.7535
15037TIP3    H166602   3.253   5.435  13.427 -0.1728  0.4957 -1.1940
15037TIP3    H266603   3.109   5.399  13.459 -0.2707  1.2071 -0.8110
15038TIP3   OH266604   3.473   5.152   3.183  0.3019 -0.1154 -0.3440
15038TIP3    H166605   3.441   5.218   3.245  0.7665  0.1250 -0.3566
15038TIP3    H266606   3.422   5.074   3.202 -2.1396  0.9355 -2.0235
15039TIP3   OH266607   0.106   1.564   1.906 -0.2540  0.4764 -0.3528
15039TIP3    H166608   0.018   1.531   1.889 -0.8287  0.9542  1.5090
15039TIP3    H266609   0.133   1.521   1.987  0.2347  2.1838  0.4179
15040TIP3   OH266610   4.925   0.419   5.848  0.4713  0.4643 -0.0578
15040TIP3    H166611   4.855   0.451   5.905 -0.3455  0.8153 -1.2034
15040TIP3    H266612   4.934   0.487   5.780  1.5406  0.1574 -0.2459
15041TIP3   OH266613   3.240   4.597  12.086 -1.2851  0.7566 -0.2699
15041TIP3    H166614   3.263   4.687  12.109  3.3120 -0.5500  1.4842
15041TIP3    H266615   3.250   4.548  12.167 -0.6884 -1.7476 -1.7421
15042TIP3   OH266616   1.380   2.337   0.191 -0.4180  0.1559 -0.1225
15042TIP3    H166617   1.471   2.367   0.190  0.5525 -2.4473 -1.1821
15042TIP3    H266618   1.354   2.341   0.283  0.6130  1.3167  0.1497
15043TIP3   OH266619   6.004   0.678   4.406 -0.2745  0.1348 -0.0944
15043TIP3    H166620   6.088   0.664   4.362 -0.0242 -1.7055  0.8473
15043TIP3    H266621   5.998   0.605   4.468 -3.3695 -0.7551 -1.2987
15044TIP3   OH266622   3.941   1.199   4.814 -0.2829  0.1616  0.4462
15044TIP3    H166623   4.003   1.136   4.779  0.0967  0.6472  0.2256
15044TIP3    H266624   3.946   1.187   4.909  0.2237  0.2554  0.4361
15045TIP3   OH266625   0.551   0.434  15.323 -0.1357  0.0829  0.0177
15045TIP3    H166626   0.644   0.457  15.321 -0.0037 -0.2836  1.2446
15045TIP3    H266627   0.549   0.342  15.347 -0.8107  0.0312 -0.2059
15046TIP3   OH266628   3.933   5.934   3.001  0.2084  0.3880  0.4110
15046TIP3    H166629   3.988   5.886   2.939  1.3387  1.0038  0.9161
15046TIP3    H266630   3.974   5.920   3.086 -0.8965  0.1780  0.9276
15047TIP3   OH266631   2.733   4.662  16.662  0.2784  0.7524  1.3087
15047TIP3    H166632   2.684   4.633  16.585 -0.6830 -0.0952  2.2226
15047TIP3    H266633   2.793   4.589  16.681  1.1879  1.3496  0.8260
15048TIP3   OH266634   2.081   3.726  11.591  0.1765 -0.0850  0.4713
15048TIP3    H166635   2.147   3.786  11.625  1.7705 -0.7317 -1.2851
15048TIP3    H266636   2.131   3.663  11.540 -1.4411 -2.7642  1.9537
15049TIP3   OH266637   4.426   1.973   1.635  0.3694 -0.3369 -0.2324
15049TIP3    H166638   4.445   1.952   1.726 -1.1292 -1.8547 -0.2306
15049TIP3    H266639   4.494   1.928   1.585  1.2119  0.5227  0.1063
15050TIP3   OH266640   4.793   1.719  16.790 -0.2159 -0.4385 -0.0455
15050TIP3    H166641   4.772   1.708  16.697 -1.1480  2.9362 -0.3644
15050TIP3    H266642   4.745   1.648  16.834 -1.2921 -0.9669 -1.9501
15051TIP3   OH266643   5.420   2.148  15.850 -0.0442 -0.2869  0.4304
15051TIP3    H166644   5.448   2.183  15.935  1.5317 -0.5272  0.0320
15051TIP3    H266645   5.366   2.218  15.813  0.1132  0.2533  1.1770
15052TIP3   OH266646   6.475   1.964   5.068  0.4984 -0.1892  0.4058
15052TIP3    H166647   6.492   2.028   5.138  1.2088 -0.7281  0.7487
15052TIP3    H266648   6.473   1.880   5.114 -2.1726 -0.3004  0.2303
15053TIP3   OH266649   6.716   6.638   0.754 -0.5360 -0.6559  0.3713
15053TIP3    H166650   6.703   6.585   0.676  0.2101  1.4726 -1.3098
15053TIP3    H266651   6.672   6.590   0.824 -2.0657 -2.1849 -1.5321
15054TIP3   OH266652   2.364   2.487  16.130  0.2215 -0.3100 -0.1999
15054TIP3    H166653   2.446   2.471  16.176 -0.6755  0.0609  1.6626
15054TIP3    H266654   2.389   2.501  16.039  2.1810 -0.4108  0.2819
15055TIP3   OH266655   0.089   3.501   0.853  0.0496 -0.0297 -0.3573
15055TIP3    H166656   0.166   3.548   0.887  0.0268  1.6273 -2.3325
15055TIP3    H266657   0.019   3.523   0.913  0.8085 -0.3988  0.6911
15056TIP3   OH266658   0.136   2.173  12.639  0.0891  0.1176  0.0696
15056TIP3    H166659   0.050   2.147  12.607  0.5432 -0.9983 -0.2907
15056TIP3    H266660   0.117   2.236  12.708 -1.1327 -1.6681  1.4918
15057TIP3   OH266661   0.031   4.304  12.841 -0.6305 -0.3303  0.1318
15057TIP3    H166662   0.003   4.292  12.932  2.2397 -0.5141  1.0817
15057TIP3    H266663   0.124   4.325  12.847 -0.9242  2.6180 -2.6113
15058TIP3   OH266664   1.223   3.222   5.042 -0.4709  0.3711  0.6265
15058TIP3    H166665   1.146   3.221   5.099 -0.4004 -0.3912  0.7266
15058TIP3    H266666   1.263   3.308   5.056 -1.0535  0.6015  0.9110
15059TIP3   OH266667   1.632   1.514   6.592 -0.0108  0.2945 -0.5901
15059TIP3    H166668   1.681   1.432   6.598 -1.4637 -0.6040 -0.6549
15059TIP3    H266669   1.586   1.521   6.676 -0.0711  0.9362 -0.6690
15060TIP3   OH266670   1.153   3.258  16.104 -0.5252  0.4523  0.2565
15060TIP3    H166671   1.073   3.299  16.071 -0.8967  0.6079  1.3298
15060TIP3    H266672   1.210   3.332  16.126 -0.6315  0.3703  0.8130
15061TIP3   OH266673   0.034   3.984  16.775 -0.0778 -0.1855 -0.2480
15061TIP3    H166674   0.009   4.054  16.836 -1.6799 -1.6294  0.8411
15061TIP3    H266675   0.045   4.029  16.691 -3.7419  1.1159 -0.2154
15062TIP3   OH266676   1.794   6.764  16.683  0.3036 -0.3198 -0.1631
15062TIP3    H166677   1.737   6.696  16.647 -0.9594  1.6014 -1.9620
15062TIP3    H266678   1.873   6.760  16.629 -0.8877  1.3972 -2.1600
15063TIP3   OH266679   1.091   1.410   1.396 -0.4606  0.1895 -1.0228
15063TIP3    H166680   1.119   1.342   1.335 -1.7990 -1.5009  0.1617
15063TIP3    H266681   1.166   1.470   1.401  0.3936 -0.6541 -2.8267
15064TIP3   OH266682   0.249   1.674   0.582 -0.0119  0.7361 -0.1098
15064TIP3    H166683   0.202   1.625   0.649  1.8746 -2.0581 -0.6275
15064TIP3    H266684   0.342   1.658   0.602  0.6212  0.5022 -2.8428
15065TIP3   OH266685   2.025   4.865   4.374 -0.2509  0.0000 -0.0671
15065TIP3    H166686   2.014   4.889   4.466 -0.6790 -0.0561 -0.1009
15065TIP3    H266687   2.110   4.821   4.371 -0.3455 -0.2222  0.3509
15066TIP3   OH266688   1.103   4.951   4.184  0.1540 -0.1975  0.1396
15066TIP3    H166689   1.098   4.882   4.118 -0.7877 -0.9427  0.9581
15066TIP3    H266690   1.168   4.920   4.247  1.5943  0.8452 -0.7712
15067TIP3   OH266691   1.575   5.037   1.678 -0.2650  0.9838  0.5398
15067TIP3    H166692   1.645   5.091   1.717 -0.7411  0.9737  1.4300
15067TIP3    H266693   1.609   4.948   1.682  0.5402  1.1916 -0.9684
15068TIP3   OH266694   4.960   3.734   0.651  0.0948 -0.3503  0.4646
15068TIP3    H166695   4.903   3.677   0.599 -0.2625  0.9585 -0.6295
15068TIP3    H266696   4.901   3.783   0.708  0.3070 -0.3920  0.7220
15069TIP3   OH266697   3.494   2.410  15.711 -0.1037 -0.1029  0.7219
15069TIP3    H166698   3.487   2.425  15.617 -1.3618  0.2906  0.8478
15069TIP3    H266699   3.587   2.398  15.727  0.0810 -0.7674 -0.6579
15070TIP3   OH266700   5.370   2.720  15.660  0.5649 -0.6253  0.6492
15070TIP3    H166701   5.446   2.664  15.644  1.0223 -0.1685  1.1922
15070TIP3    H266702   5.406   2.808  15.672  0.1032 -0.6223  2.3060
15071TIP3   OH266703   1.260   5.136   1.483 -0.3455  0.0561 -0.1486
15071TIP3    H166704   1.244   5.124   1.577 -0.1582 -1.7484 -0.3041
15071TIP3    H266705   1.267   5.230   1.472 -2.0037  0.4313  1.3820
15072TIP3   OH266706   2.086   1.478   6.048  0.0987 -0.0178 -0.0365
15072TIP3    H166707   2.055   1.566   6.027 -1.5369 -0.8695 -1.4260
15072TIP3    H266708   2.045   1.458   6.133 -0.1404  0.2739 -0.0804
15073TIP3   OH266709   6.461   4.057  12.946  0.4212  0.5683  0.4711
15073TIP3    H166710   6.536   4.061  12.887 -0.4641  1.9525 -0.6233
15073TIP3    H266711   6.462   3.967  12.980  2.3466  0.4446  0.2361
15074TIP3   OH266712   0.631   1.765   2.819 -0.4921 -0.8268  0.1505
15074TIP3    H166713   0.715   1.812   2.814 -0.8738 -0.0489  0.7653
15074TIP3    H266714   0.592   1.794   2.901 -0.4986 -2.6811  0.8457
15075TIP3   OH266715   3.120   1.974  16.932 -0.4121  0.2936 -0.2622
15075TIP3    H166716   3.065   2.031  16.877  0.5773  0.7279 -0.8322
15075TIP3    H266717   3.209   2.005  16.917  0.0899 -0.9768 -0.0604
15076TIP3   OH266718   4.392   1.535   4.666 -0.3780 -0.2076 -0.1772
15076TIP3    H166719   4.381   1.466   4.732  2.3175 -0.3305  0.2526
15076TIP3    H266720   4.430   1.608   4.714 -2.0060  1.1723 -0.8944
15077TIP3   OH266721   5.272   1.008   0.202 -0.3355 -0.2781  0.0869
15077TIP3    H166722   5.325   1.084   0.225  0.3594 -0.7326  0.0257
15077TIP3    H266723   5.196   1.013   0.260  0.5432 -0.4730  1.2825
15078TIP3   OH266724   3.136   5.867   1.102 -0.4493 -0.1992 -0.6176
15078TIP3    H166725   3.120   5.933   1.034  0.3873 -0.0360 -0.6650
15078TIP3    H266726   3.078   5.893   1.174 -0.1319  0.5960 -0.6374
15079TIP3   OH266727   4.803   0.690  13.896 -0.0755  0.4232  0.1264
15079TIP3    H166728   4.880   0.660  13.848  0.2537  0.6299  0.5200
15079TIP3    H266729   4.748   0.612  13.903 -0.8789  0.7346 -1.9678
15080TIP3   OH266730   4.369   6.147  12.556 -0.1420 -0.1778  0.0246
15080TIP3    H166731   4.435   6.158  12.488 -0.1510  1.4078  0.2393
15080TIP3    H266732   4.420   6.134  12.636 -0.1021 -0.2475 -0.0126
15081TIP3   OH266733   2.696   6.247   0.838 -0.1314 -0.3092 -0.1895
15081TIP3    H166734   2.721   6.156   0.825  1.0141 -0.0450  0.0593
15081TIP3    H266735   2.728   6.269   0.925  0.4724  0.6077 -0.6214
15082TIP3   OH266736   3.944   0.397  13.350 -0.4924 -0.3409  0.4210
15082TIP3    H166737   3.960   0.488  13.372  1.1845 -0.3414 -0.6092
15082TIP3    H266738   3.876   0.369  13.411 -0.4673  1.3578  1.2830
15083TIP3   OH266739   6.736   2.805   2.935  0.1028 -0.1508  0.1664
15083TIP3    H166740   6.810   2.844   2.887  0.9088 -1.6350  0.1371
15083TIP3    H266741   6.664   2.866   2.921  0.5340 -0.0744 -2.2350
15084TIP3   OH266742   4.399   0.445  12.524 -0.3556 -0.4118 -0.1864
15084TIP3    H166743   4.480   0.436  12.474 -0.0955  1.6883 -0.2584
15084TIP3    H266744   4.422   0.419  12.613  0.7144  1.0899  0.0172
15085TIP3   OH266745   5.296   6.372  13.450 -0.0249  0.2242 -0.9261
15085TIP3    H166746   5.279   6.297  13.394  3.2054 -1.2968 -0.0787
15085TIP3    H266747   5.360   6.341  13.514 -0.5122  3.0014  1.1333
15086TIP3   OH266748   3.849   0.633   3.070  0.0659  0.4243 -0.0980
15086TIP3    H166749   3.937   0.619   3.035  0.5090  0.6698  0.8718
15086TIP3    H266750   3.864   0.671   3.157 -0.9943  0.1780  0.2055
15087TIP3   OH266751   2.692   4.813  10.956 -0.2631  0.1323  0.1307
15087TIP3    H166752   2.777   4.809  11.001  0.5264 -1.0334 -1.3740
15087TIP3    H266753   2.649   4.731  10.979 -0.4986  0.2135 -0.0206
15088TIP3   OH266754   1.102   6.295  13.421 -0.0604  0.2922 -0.1652
15088TIP3    H166755   1.113   6.283  13.516  2.4667 -0.4115 -0.4686
15088TIP3    H266756   1.156   6.226  13.382 -0.4508  1.0354 -2.1235
15089TIP3   OH266757   2.532   1.675  15.925 -0.0387 -0.3582 -0.4335
15089TIP3    H166758   2.558   1.584  15.939  2.9256  0.3362 -0.7306
15089TIP3    H266759   2.567   1.722  16.001  0.0736  0.7648 -1.1581
15090TIP3   OH266760   5.336   6.229   1.456 -0.5315  0.2343  0.0273
15090TIP3    H166761   5.291   6.267   1.380 -1.1130 -0.0013  0.2468
15090TIP3    H266762   5.334   6.298   1.522 -1.1115  0.0188  0.2420
15091TIP3   OH266763   0.341   2.637  16.341  0.3540  0.1535  0.9216
15091TIP3    H166764   0.311   2.600  16.258 -2.1255  0.1370  1.7429
15091TIP3    H266765   0.388   2.565  16.385 -1.4680 -1.0135  1.0480
15092TIP3   OH266766   0.124   5.227  15.950 -0.3459  0.3800  0.5679
15092TIP3    H166767   0.033   5.234  15.921 -0.3007 -0.3622  0.2237
15092TIP3    H266768   0.160   5.155  15.898  0.0060 -0.3565  1.7942
15093TIP3   OH266769   1.308   2.396  17.417 -0.1244 -0.0536  0.4658
15093TIP3    H166770   1.350   2.481  17.423 -1.1365  0.4995 -0.1428
15093TIP3    H266771   1.309   2.363  17.507 -0.5871  1.0151  0.8701
15094TIP3   OH266772   2.948   0.440  15.512  0.2711  0.7414  0.5382
15094TIP3    H166773   3.038   0.410  15.522 -0.3572 -0.7819  2.3054
15094TIP3    H266774   2.902   0.367  15.471 -0.5804  0.6029  1.6852
15095TIP3   OH266775   0.056   6.713  13.228  0.3259  0.5011  0.5211
15095TIP3    H166776   0.030   6.804  13.243  0.0343  0.5697 -0.3633
15095TIP3    H266777   0.051   6.673  13.315 -0.2494  1.1454  0.7982
15096TIP3   OH266778   1.607   6.732  12.524 -0.2240  0.5119  0.1594
15096TIP3    H166779   1.564   6.677  12.459 -1.1849  1.0632  0.3164
15096TIP3    H266780   1.632   6.811  12.475  0.5802  0.2246  0.0826
15097TIP3   OH266781   3.831   4.145   4.414  0.9982 -0.1595 -0.1806
15097TIP3    H166782   3.805   4.132   4.323  2.1234 -0.9881 -0.4177
15097TIP3    H266783   3.901   4.210   4.409  0.4487  0.4684  0.2005
15098TIP3   OH266784   5.826   4.069   1.198  0.2881 -0.1712  0.0602
15098TIP3    H166785   5.803   4.136   1.133  1.1090 -1.6342 -1.8662
15098TIP3    H266786   5.754   4.005   1.193 -0.2912  0.3353  1.5794
15099TIP3   OH266787   2.585   6.461  12.497  0.0377  0.0974  0.1925
15099TIP3    H166788   2.629   6.485  12.578 -0.7145 -0.0213  0.6486
15099TIP3    H266789   2.528   6.536  12.477  0.7455  0.4389 -0.6252
15100TIP3   OH266790   1.401   1.123  11.692 -0.4993  0.0628 -0.5759
15100TIP3    H166791   1.407   1.213  11.726  0.6946  0.0197 -0.6230
15100TIP3    H266792   1.491   1.090  11.696 -1.0975 -1.5569  0.5803
15101TIP3   OH266793   5.450   0.660  12.632  0.1981 -0.7065  0.2219
15101TIP3    H166794   5.400   0.631  12.555  2.0147 -1.2475 -0.7977
15101TIP3    H266795   5.496   0.738  12.602 -1.1888  0.7289  1.6341
15102TIP3   OH266796   6.347   0.170  14.972  0.0610 -0.1293  0.0879
15102TIP3    H166797   6.304   0.208  14.896  0.5561  0.7302  0.2290
15102TIP3    H266798   6.312   0.219  15.047  1.1246  0.4498  0.2194
15103TIP3   OH266799   5.175   6.264  16.440 -0.1758  0.1041 -0.1654
15103TIP3    H166800   5.166   6.322  16.516 -0.3075  0.0311 -0.1259
15103TIP3    H266801   5.244   6.203  16.464  0.0770  0.3456 -0.2721
15104TIP3   OH266802   5.068   6.298  16.932 -0.4242 -0.1218 -0.0061
15104TIP3    H166803   5.045   6.361  17.001  0.4364  0.3165 -0.1085
15104TIP3    H266804   5.049   6.213  16.971 -1.3629  0.1769  0.2274
15105TIP3   OH266805   4.363   3.210   2.969  0.0004 -0.0103  0.3253
15105TIP3    H166806   4.389   3.166   3.050 -0.7007  1.4304  1.3921
15105TIP3    H266807   4.444   3.249   2.936  0.1389  0.1475  0.8366
15106TIP3   OH266808   4.704   2.538  12.475  0.5466 -0.3474  0.2735
15106TIP3    H166809   4.775   2.476  12.489  1.0631 -0.2807 -1.7221
15106TIP3    H266810   4.625   2.484  12.467  0.5032 -0.4912  1.4651
15107TIP3   OH266811   3.127   3.158   0.106 -0.2024  0.1449  0.1439
15107TIP3    H166812   3.111   3.106   0.028 -2.4847 -2.7852  2.3031
15107TIP3    H266813   3.056   3.222   0.108 -0.1766  0.1810 -0.1472
15108TIP3   OH266814   6.018   2.100  14.313 -0.2572  0.0019  0.6515
15108TIP3    H166815   6.074   2.176  14.326 -0.1494 -0.2231  1.6024
15108TIP3    H266816   5.972   2.090  14.396  1.3259 -2.2386  1.3374
15109TIP3   OH266817   4.136   2.787   5.195  0.0666  0.2420  0.1514
15109TIP3    H166818   4.063   2.780   5.134  1.2758 -0.7547 -1.2447
15109TIP3    H266819   4.105   2.745   5.276 -1.1491  0.5252 -0.1559
15110TIP3   OH266820   6.647   0.105  12.602  0.0963 -0.0685  0.0212
15110TIP3    H166821   6.586   0.142  12.666 -0.5995  0.7118 -1.0522
15110TIP3    H266822   6.626   0.012  12.599  1.4664 -0.5380  2.3265
15111TIP3   OH266823   0.483   3.698  14.419 -0.4787 -0.0160 -0.7315
15111TIP3    H166824   0.532   3.769  14.461 -0.0169 -1.1580  0.7310
15111TIP3    H266825   0.506   3.706  14.326 -0.9803  2.1489 -0.7298
15112TIP3   OH266826   1.992   2.281  12.104 -0.5064 -0.1525  0.2125
15112TIP3    H166827   2.037   2.276  12.019  1.8785  1.1492  1.3032
15112TIP3    H266828   1.969   2.373  12.113  1.3578  0.2083  1.9193
15113TIP3   OH266829   1.655   3.154   1.874  0.0248  0.3214 -0.6788
15113TIP3    H166830   1.693   3.238   1.846 -0.0193  0.4013 -0.4976
15113TIP3    H266831   1.562   3.163   1.856 -0.2317  0.9207  0.8308
15114TIP3   OH266832   5.810   4.996   5.589  0.2831 -0.4787  0.1755
15114TIP3    H166833   5.850   4.930   5.646  0.2087 -1.3906 -0.7912
15114TIP3    H266834   5.878   5.014   5.523  0.4463  0.7110  0.6440
15115TIP3   OH266835   5.421   3.693  11.645  0.3562 -0.6014  0.0005
15115TIP3    H166836   5.358   3.758  11.614  0.3388 -1.0082 -0.8137
15115TIP3    H266837   5.372   3.642  11.710  0.3511  0.1535  0.6018
15116TIP3   OH266838   5.478   3.254  15.545 -0.4801 -0.4534  0.0822
15116TIP3    H166839   5.548   3.189  15.548 -0.2128 -0.2076 -0.5005
15116TIP3    H266840   5.397   3.204  15.558 -0.0867 -0.4139  3.4731
15117TIP3   OH266841   6.115   0.158   5.636 -0.1781 -0.2965  0.2992
15117TIP3    H166842   6.046   0.224   5.630  1.0445  0.9207 -1.9209
15117TIP3    H266843   6.161   0.178   5.718  0.2486  1.7670 -0.3899
15118TIP3   OH266844   4.123   1.409  17.201 -0.2510  0.2546 -0.0652
15118TIP3    H166845   4.061   1.346  17.238  0.5908 -0.8312 -0.4566
15118TIP3    H266846   4.128   1.387  17.108 -0.3069  1.2241 -0.3149
15119TIP3   OH266847   5.712   3.018  16.648 -0.1517 -0.5093 -0.1873
15119TIP3    H166848   5.710   2.923  16.650  1.9529 -0.6123 -0.6187
15119TIP3    H266849   5.710   3.041  16.555 -2.4361  0.0029 -0.0769
15120TIP3   OH266850   3.115   5.282   1.654  0.5389 -0.2007  0.7093
15120TIP3    H166851   3.102   5.348   1.586  1.8249 -1.5195 -0.9059
15120TIP3    H266852   3.209   5.280   1.668  0.6966 -2.4103 -0.1445
15121TIP3   OH266853   6.321   5.924   3.001  0.4131 -0.4216 -0.2486
15121TIP3    H166854   6.394   5.878   2.961  0.9219  0.4061 -0.3006
15121TIP3    H266855   6.359   5.967   3.078  0.6396  2.1942 -1.6876
15122TIP3   OH266856   0.194   4.741   3.091 -0.2622 -0.0906  0.0049
15122TIP3    H166857   0.243   4.773   3.167 -1.6987 -1.0580  1.3859
15122TIP3    H266858   0.242   4.776   3.016  2.3972 -0.7541  1.2541
15123TIP3   OH266859   0.651   6.273   5.440  0.4942  0.6172 -0.5212
15123TIP3    H166860   0.690   6.317   5.516 -0.8378  1.4284 -0.2874
15123TIP3    H266861   0.724   6.261   5.379  1.2320  1.5373  0.1652
15124TIP3   OH266862   4.149   5.013  16.559  0.1254  0.3005 -0.4449
15124TIP3    H166863   4.173   5.079  16.493 -2.5141 -0.1716 -2.0582
15124TIP3    H266864   4.185   4.931  16.525 -0.6128  0.1776 -0.9588
15125TIP3   OH266865   6.515   4.154  17.172  0.2633 -0.3413  0.1169
15125TIP3    H166866   6.464   4.232  17.147  0.2183  0.3186  2.0468
15125TIP3    H266867   6.555   4.124  17.091 -1.5979  0.3148 -1.1057
15126TIP3   OH266868   0.683   5.174  12.483  0.2715 -0.6637  0.1142
15126TIP3    H166869   0.704   5.183  12.576  0.2492 -1.0880  0.1625
15126TIP3    H266870   0.663   5.263  12.454  0.2852 -0.5293  0.5132
15127TIP3   OH266871   1.686   6.644   1.445  0.3196  0.1755  0.4422
15127TIP3    H166872   1.736   6.608   1.517  1.2314 -1.0510 -0.7500
15127TIP3    H266873   1.615   6.581   1.430  0.3845  0.2003 -0.0008
15128TIP3   OH266874   6.170   5.079  10.597 -0.0545 -0.1494 -0.3906
15128TIP3    H166875   6.109   5.153  10.599  0.6998  0.5758 -2.1334
15128TIP3    H266876   6.251   5.113  10.637  0.0065 -0.3293 -0.3568
15129TIP3   OH266877   2.776   4.350   5.529  0.1208  0.6680 -0.1913
15129TIP3    H166878   2.685   4.378   5.541  0.5356  1.1811  2.4262
15129TIP3    H266879   2.817   4.366   5.614  2.4004 -0.5973 -0.9726
15130TIP3   OH266880   3.623   1.939  16.964  0.6749  0.2960 -0.1466
15130TIP3    H166881   3.559   1.963  16.897  2.3093  1.1971 -1.4539
15130TIP3    H266882   3.685   2.012  16.966  0.6568  0.3311  2.4358
15131TIP3   OH266883   1.583   6.000   3.688 -0.4901 -0.5081  0.2239
15131TIP3    H166884   1.564   6.094   3.688  1.1439 -0.0872 -1.8739
15131TIP3    H266885   1.510   5.960   3.736 -2.8868  1.5223 -1.4973
15132TIP3   OH266886   3.759   2.292   4.257 -0.1219  0.1684 -0.6941
15132TIP3    H166887   3.697   2.276   4.186 -0.6255 -1.3726  0.0372
15132TIP3    H266888   3.705   2.327   4.328 -0.0191 -0.3376 -0.3597
15133TIP3   OH266889   5.971   6.508   1.843 -0.6467  0.1303 -0.4628
15133TIP3    H166890   5.922   6.535   1.920 -0.0091  0.1174 -0.0450
15133TIP3    H266891   5.905   6.470   1.784 -1.2575  0.9153 -0.2883
15134TIP3   OH266892   1.453   1.470   2.683 -0.3981  0.2558  0.1018
15134TIP3    H166893   1.493   1.553   2.710  0.6551 -0.2973  0.2811
15134TIP3    H266894   1.525   1.419   2.648 -1.4063  0.2741 -2.2238
15135TIP3   OH266895   2.924   4.532   3.254  0.3577 -0.1066 -0.2358
15135TIP3    H166896   2.836   4.554   3.283  0.0937 -0.3986 -0.7851
15135TIP3    H266897   2.957   4.472   3.321 -0.6856 -1.7087 -1.0622
15136TIP3   OH266898   0.319   2.600  10.939 -0.1378  0.2066  0.2293
15136TIP3    H166899   0.334   2.597  10.844 -1.8395 -1.1946 -0.0468
15136TIP3    H266900   0.368   2.526  10.974  0.7465  0.9066  0.5232
15137TIP3   OH266901   0.474   5.933  12.950  0.0210  0.1664  0.9134
15137TIP3    H166902   0.489   6.026  12.971  0.1126  0.1427  0.9558
15137TIP3    H266903   0.504   5.886  13.028  3.1308 -0.1070 -0.3082
15138TIP3   OH266904   5.300   4.571  13.792 -0.0275 -0.5898  0.6897
15138TIP3    H166905   5.395   4.584  13.794 -0.0648 -0.4579  2.0673
15138TIP3    H266906   5.266   4.653  13.756  0.2468  0.3596  2.4740
15139TIP3   OH266907   0.777   2.202   5.967 -0.6237  0.2665  0.0413
15139TIP3    H166908   0.728   2.256   5.904 -1.2484  2.2964  2.1095
15139TIP3    H266909   0.722   2.125   5.981 -0.8727  0.1971 -1.2473
15140TIP3   OH266910   3.308   5.996   2.104 -0.5222  0.4821  0.2436
15140TIP3    H166911   3.281   5.906   2.120 -2.1429  0.8188 -0.4273
15140TIP3    H266912   3.285   6.012   2.013  2.4367  0.6942 -0.5807
15141TIP3   OH266913   6.047   2.878   2.497  0.0779 -0.0273 -0.2686
15141TIP3    H166914   6.120   2.887   2.557 -1.4964 -0.6068  1.8516
15141TIP3    H266915   6.017   2.788   2.508  0.5861 -0.6183 -3.0232
15142TIP3   OH266916   2.648   1.024   5.843  0.2472  0.1133  0.3618
15142TIP3    H166917   2.635   0.953   5.781  0.6719  0.5822 -0.2791
15142TIP3    H266918   2.683   0.981   5.922  1.4818 -0.2872 -0.3666
15143TIP3   OH266919   5.857   6.080  12.852  0.3086 -0.5027 -0.1620
15143TIP3    H166920   5.938   6.031  12.833 -0.3719 -1.3235 -1.0381
15143TIP3    H266921   5.810   6.025  12.915  0.3699 -0.0867  0.2485
15144TIP3   OH266922   2.277   2.537   1.230  0.4187  0.0692 -0.1624
15144TIP3    H166923   2.224   2.469   1.270  2.7771 -1.8819 -0.1110
15144TIP3    H266924   2.287   2.604   1.298  0.9932 -1.2579  1.1058
15145TIP3   OH266925   5.255   3.869  15.985  0.0133  0.0798 -0.0291
15145TIP3    H166926   5.187   3.933  15.966 -1.0952 -1.1368 -0.3176
15145TIP3    H266927   5.307   3.909  16.055 -0.8599  1.1331  0.0388
15146TIP3   OH266928   6.048   0.572  14.841 -0.5487 -0.0414  0.2793
15146TIP3    H166929   6.025   0.585  14.933  0.5143  0.6062  0.4658
15146TIP3    H266930   5.997   0.638  14.794 -1.9085 -1.0539  0.2597
15147TIP3   OH266931   1.599   1.948   2.252 -0.0017 -0.0231 -0.0713
15147TIP3    H166932   1.688   1.922   2.278 -0.2240  0.1771  0.9084
15147TIP3    H266933   1.542   1.905   2.315 -0.8390 -2.2658 -2.1885
15148TIP3   OH266934   1.587   3.324   4.575  0.5739 -0.0783  0.3480
15148TIP3    H166935   1.580   3.307   4.669 -1.9221 -1.3547  0.0275
15148TIP3    H266936   1.577   3.419   4.567  0.3158 -0.0060  1.3588
15149TIP3   OH266937   1.905   3.988  12.493 -0.1561  0.5367  0.3278
15149TIP3    H166938   1.829   3.989  12.551  0.0417  1.3830  0.5911
15149TIP3    H266939   1.976   3.952  12.546 -0.1103  0.7924  0.4438
15150TIP3   OH266940   5.597   4.924  15.714 -0.1478  0.2842  0.5592
15150TIP3    H166941   5.609   5.011  15.752 -0.4614  0.9789 -0.8667
15150TIP3    H266942   5.561   4.941  15.627 -0.5599 -1.2914  0.3968
15151TIP3   OH266943   0.842   2.356  16.293  0.4208  0.2935 -0.0662
15151TIP3    H166944   0.932   2.323  16.299  0.4468  0.2665 -0.5356
15151TIP3    H266945   0.811   2.324  16.208 -0.8150 -1.6441  1.0428
15152TIP3   OH266946   5.071   0.029   0.679 -0.2418  0.8202  0.4505
15152TIP3    H166947   5.054  -0.043   0.740 -0.6417  1.0713  0.6412
15152TIP3    H266948   5.135   0.084   0.724  0.7010  0.1657 -0.0369
15153TIP3   OH266949   1.022   3.503  16.308 -0.0665 -0.8691 -0.1237
15153TIP3    H166950   0.971   3.439  16.259 -2.4054  0.2426  0.7232
15153TIP3    H266951   1.104   3.511  16.259 -0.2120 -3.5270 -0.9368
15154TIP3   OH266952   0.629   4.897   1.731  0.5829 -0.6372  0.0078
15154TIP3    H166953   0.693   4.870   1.797 -1.3876 -2.4363  1.3083
15154TIP3    H266954   0.562   4.944   1.781  0.8675  1.2946 -1.3367
15155TIP3   OH266955   5.876   0.709   5.207 -0.5069 -0.2885 -0.2778
15155TIP3    H166956   5.970   0.697   5.188 -0.8082 -0.7532 -1.6066
15155TIP3    H266957   5.847   0.775   5.144 -0.9427  0.3705  0.5955
15156TIP3   OH266958   3.747   3.806   2.449 -0.1318  0.2458  0.1941
15156TIP3    H166959   3.806   3.841   2.382  0.1664  0.0438  0.3444
15156TIP3    H266960   3.806   3.779   2.520 -0.4878  1.0374  0.8057
15157TIP3   OH266961   0.443   2.305   3.118 -0.1427  0.2178 -0.5489
15157TIP3    H166962   0.420   2.268   3.203 -0.3839 -1.6089 -1.3831
15157TIP3    H266963   0.428   2.399   3.129  1.1986  0.2505  1.8616
15158TIP3   OH266964   3.880   2.459   3.921  0.5187  0.6715  0.1880
15158TIP3    H166965   3.809   2.442   3.983  1.3545  1.2027  1.3237
15158TIP3    H266966   3.872   2.552   3.901 -0.3215  0.3174 -1.2753
15159TIP3   OH266967   1.932   1.709   4.759  0.6053 -0.5007  0.0954
15159TIP3    H166968   1.988   1.669   4.693  0.0743 -1.6249  0.3028
15159TIP3    H266969   1.850   1.727   4.714  0.6835 -0.0666  0.1231
15160TIP3   OH266970   6.030   6.393  13.798  0.3784 -0.0269 -0.2491
15160TIP3    H166971   5.953   6.382  13.854 -0.1312 -0.0254 -0.9340
15160TIP3    H266972   6.100   6.417  13.858 -0.0104 -0.6252  0.4588
15161TIP3   OH266973   5.068   2.482   5.316  0.8925  0.1706 -0.2377
15161TIP3    H166974   5.042   2.455   5.404  0.7491 -0.7809 -0.5593
15161TIP3    H266975   5.148   2.533   5.329  2.3594 -2.0976  0.2658
15162TIP3   OH266976   4.753   5.542   3.248  0.0396  0.1388 -0.2623
15162TIP3    H166977   4.802   5.543   3.166  0.3158  2.4917 -0.1360
15162TIP3    H266978   4.669   5.501   3.226  2.0239 -4.4746 -0.3607
15163TIP3   OH266979   1.953   6.765   1.012  0.3412 -0.6285  0.5968
15163TIP3    H166980   2.019   6.696   1.020 -0.7581 -1.8765 -0.5007
15163TIP3    H266981   1.879   6.736   1.066 -0.3128 -0.5579 -0.2317
15164TIP3   OH266982   5.733   3.648   0.722 -0.0056 -0.6864  0.0102
15164TIP3    H166983   5.730   3.744   0.716  0.8716 -0.6642 -0.2885
15164TIP3    H266984   5.800   3.623   0.659 -2.0419 -1.7082 -1.8780
15165TIP3   OH266985   4.922   5.097   3.159  0.9433 -0.1893 -0.3557
15165TIP3    H166986   4.854   5.151   3.119 -0.5779 -1.8525 -0.1739
15165TIP3    H266987   4.880   5.012   3.173  2.1792 -0.4515  2.4282
15166TIP3   OH266988   2.571   2.497  17.237 -0.4059 -0.0609  0.0289
15166TIP3    H166989   2.637   2.525  17.300 -0.1455 -0.5104 -0.0367
15166TIP3    H266990   2.576   2.562  17.167 -0.4784  0.2648  0.3227
15167TIP3   OH266991   5.942   4.180   4.508 -0.5930 -0.4412  0.0286
15167TIP3    H166992   5.999   4.252   4.535 -1.9142  0.3867  0.7159
15167TIP3    H266993   5.857   4.221   4.493 -1.6788 -1.9936  1.5196
15168TIP3   OH266994   4.520   2.671  17.315 -0.1231  0.4728 -0.1734
15168TIP3    H166995   4.437   2.665  17.267 -0.4006 -0.4249  0.4000
15168TIP3    H266996   4.586   2.643  17.251 -0.2484  1.1718 -0.6254
15169TIP3   OH266997   1.798   4.094   6.066 -0.2128 -0.2653  0.3077
15169TIP3    H166998   1.777   4.053   5.982  1.0053  2.0692 -1.2519
15169TIP3    H266999   1.799   4.021   6.128  1.9780 -2.6777 -2.2541
15170TIP3   OH267000   3.979   4.235   3.568  0.0813 -0.2521 -0.0439
15170TIP3    H167001   3.967   4.163   3.630 -1.0553 -0.7309 -0.7755
15170TIP3    H267002   3.907   4.295   3.587 -0.4234 -0.5222 -1.0389
15171TIP3   OH267003   2.453   2.920  11.396 -0.1898 -0.2573  0.0885
15171TIP3    H167004   2.548   2.914  11.405 -0.2312 -0.4270  0.3950
15171TIP3    H267005   2.440   2.947  11.305  0.1209 -1.1625 -0.2347
15172TIP3   OH267006   5.326   3.458  13.585 -0.2828 -0.2065  0.0786
15172TIP3    H167007   5.416   3.425  13.591 -0.1380  0.3185  1.0036
15172TIP3    H267008   5.274   3.381  13.563  0.3626 -0.5618 -0.2311
15173TIP3   OH267009   6.543   1.523  15.708 -0.1750 -0.1899  0.1445
15173TIP3    H167010   6.568   1.495  15.796  2.4532  2.4429  0.4032
15173TIP3    H267011   6.600   1.473  15.650  0.6359  0.6160  0.2276
15174TIP3   OH267012   3.765   2.099  12.139 -0.0821  0.8736  0.7574
15174TIP3    H167013   3.673   2.112  12.117  0.3800  2.0707 -0.6070
15174TIP3    H267014   3.794   2.183  12.173  0.7126  0.7608  0.3951
15175TIP3   OH267015   4.885   3.535   3.267  0.3109  0.0837  0.2185
15175TIP3    H167016   4.904   3.462   3.208  0.2772 -0.3994  0.7988
15175TIP3    H267017   4.970   3.559   3.305  0.2580  0.0591  0.3556
15176TIP3   OH267018   4.680   2.764   5.814 -0.2647 -0.3113  0.1710
15176TIP3    H167019   4.680   2.669   5.820  1.4997 -0.5655 -2.5765
15176TIP3    H267020   4.763   2.791   5.854 -0.5000  0.0576  0.4243
15177TIP3   OH267021   6.488   3.579   2.026 -0.0602 -0.0728 -0.0464
15177TIP3    H167022   6.535   3.497   2.041 -0.3414  0.0922  2.0165
15177TIP3    H267023   6.547   3.646   2.059  0.1885  0.6133 -1.7625
15178TIP3   OH267024   4.596   1.586  15.344 -0.1457  0.4202  0.4847
15178TIP3    H167025   4.644   1.667  15.324 -1.0794  1.4265  2.0622
15178TIP3    H267026   4.663   1.526  15.377  0.5362  0.5854 -0.5446
15179TIP3   OH267027   4.479   2.242  15.376 -0.1540 -0.3199  0.6054
15179TIP3    H167028   4.412   2.192  15.422 -0.1882 -1.6147 -0.7658
15179TIP3    H267029   4.526   2.288  15.445 -0.1785 -2.1974  1.9557
15180TIP3   OH267030   3.725   5.376  16.042  0.4870  0.2318  0.2031
15180TIP3    H167031   3.794   5.382  16.108  0.1617 -0.8499  0.6559
15180TIP3    H267032   3.748   5.444  15.978  0.5322  1.6306  1.6464
15181TIP3   OH267033   5.893   5.430   1.571 -0.9291 -0.6282 -0.2009
15181TIP3    H167034   5.844   5.349   1.575  0.3779 -1.6943 -2.7455
15181TIP3    H267035   5.977   5.410   1.613 -0.9395 -0.3372 -0.0410
15182TIP3   OH267036   3.922   5.638   0.467 -0.2302 -0.3198  0.0985
15182TIP3    H167037   3.946   5.650   0.559  1.2105  1.2939 -0.4384
15182TIP3    H267038   3.833   5.674   0.462  0.4595  1.5821  0.4930
15183TIP3   OH267039   4.086   1.844   5.546  0.0044 -0.0917  0.7305
15183TIP3    H167040   4.075   1.905   5.619 -0.6207 -0.9821  1.4110
15183TIP3    H267041   4.009   1.787   5.551  1.8073 -2.6459  1.8375
15184TIP3   OH267042   4.745   3.810   2.961 -0.1897  1.0382 -0.0205
15184TIP3    H167043   4.724   3.772   3.047 -0.4349 -0.4883 -0.7197
15184TIP3    H267044   4.689   3.887   2.955  0.5610  1.7551  1.6012
15185TIP3   OH267045   4.184   1.682   1.771  0.1330  0.3506 -0.4244
15185TIP3    H167046   4.174   1.765   1.818  1.5116  0.2185  0.1281
15185TIP3    H267047   4.277   1.663   1.773 -0.2244 -1.6004  0.1289
15186TIP3   OH267048   0.028   2.277   4.847  0.0789 -0.2342  0.6144
15186TIP3    H167049  -0.038   2.286   4.916  0.3270  0.2683  0.7950
15186TIP3    H267050   0.017   2.356   4.793 -0.4273 -0.8465 -0.2049
15187TIP3   OH267051   0.756   6.455  12.272  0.3473 -0.4249  0.0662
15187TIP3    H167052   0.738   6.546  12.249  1.1643  0.5689  2.9225
15187TIP3    H267053   0.849   6.455  12.295  0.4833 -2.1171 -0.3888
15188TIP3   OH267054   1.796   3.486  11.452 -0.5235 -0.3991 -0.0443
15188TIP3    H167055   1.852   3.435  11.511 -0.2506 -0.4159 -0.3149
15188TIP3    H267056   1.708   3.449  11.464 -0.5357 -0.1784  0.6002
15189TIP3   OH267057   3.188   5.283   2.198 -0.0936 -0.5276 -0.2870
15189TIP3    H167058   3.146   5.209   2.244  0.5115 -0.1059  0.9947
15189TIP3    H267059   3.126   5.306   2.129 -1.9898  0.0133  1.4885
15190TIP3   OH267060   1.274   6.517  11.564 -0.1572 -0.0348 -0.0500
15190TIP3    H167061   1.269   6.448  11.630  0.0907 -1.0001 -1.0048
15190TIP3    H267062   1.364   6.512  11.531  0.2097  1.4849  0.6079
15191TIP3   OH267063   2.286   2.296   4.902  0.1987 -0.2980 -0.1816
15191TIP3    H167064   2.225   2.226   4.928  1.4683 -0.3222  3.2885
15191TIP3    H267065   2.230   2.367   4.871 -1.5584 -0.7776  1.6992
15192TIP3   OH267066   2.600   1.619   0.259  0.2524  0.0000 -0.8372
15192TIP3    H167067   2.637   1.599   0.173  2.7585 -1.2522  0.4351
15192TIP3    H267068   2.670   1.664   0.305 -2.5601  5.0251 -0.8507
15193TIP3   OH267069   2.522   4.943   4.270 -0.3012 -0.1745 -0.1466
15193TIP3    H167070   2.430   4.928   4.249 -0.8023  2.3769 -0.0459
15193TIP3    H267071   2.554   4.999   4.199  0.8529 -0.0731  0.4312
15194TIP3   OH267072   3.193   0.248   6.251  0.3930  0.3241 -0.6133
15194TIP3    H167073   3.253   0.173   6.257  0.5805  0.5225  0.0884
15194TIP3    H267074   3.176   0.272   6.342  0.9555  1.6217 -0.8404
15195TIP3   OH267075   5.214   0.054   2.659 -0.1025  0.5507 -0.4890
15195TIP3    H167076   5.240   0.145   2.675 -0.2958  0.2355  2.1202
15195TIP3    H267077   5.294   0.011   2.629  0.2636  1.3537 -0.6985
15196TIP3   OH267078   1.689   2.329  11.350  0.3484 -0.0149 -0.5655
15196TIP3    H167079   1.646   2.246  11.373 -0.3461  0.0356 -1.6060
15196TIP3    H267080   1.680   2.334  11.255  0.4697  1.2087 -0.5181
15197TIP3   OH267081   1.009   3.008  14.775 -0.1397  0.7001  0.0778
15197TIP3    H167082   1.061   3.077  14.818  0.7062 -0.0246  0.2366
15197TIP3    H267083   1.074   2.942  14.749 -1.0287 -0.4310  0.6673
15198TIP3   OH267084   3.740   0.064   1.142  0.1351  0.5273  0.2108
15198TIP3    H167085   3.807   0.132   1.128 -1.0003  1.7635  0.5220
15198TIP3    H267086   3.723   0.029   1.055  1.0661  0.3047  0.1049
15199TIP3   OH267087   5.998   6.093  13.584 -0.7493 -0.0972  0.5995
15199TIP3    H167088   6.024   6.013  13.628 -0.7648 -1.0254 -0.9969
15199TIP3    H267089   6.081   6.135  13.559 -0.6869 -1.1926 -1.2295
15200TIP3   OH267090   4.095   1.882  12.025 -0.2878  0.0763  0.2138
15200TIP3    H167091   4.153   1.806  12.022 -1.4658 -0.9475  1.6651
15200TIP3    H267092   4.037   1.872  11.950  0.4563  0.3239 -0.4062
15201TIP3   OH267093   2.273   3.114  16.553  0.3251 -0.1141 -0.3857
15201TIP3    H167094   2.351   3.141  16.505  0.2731 -0.6989 -0.7991
15201TIP3    H267095   2.260   3.022  16.531 -0.4985 -0.0207 -0.3459
15202TIP3   OH267096   6.724   5.086   4.885  0.5595 -0.5397 -0.6772
15202TIP3    H167097   6.765   5.161   4.929 -0.5744  0.8473 -1.8615
15202TIP3    H267098   6.631   5.098   4.900  0.3667 -1.8510 -0.7436
15203TIP3   OH267099   5.559   5.801   2.678 -0.2436 -1.0291  0.7991
15203TIP3    H167100   5.585   5.886   2.643 -0.2563 -1.3229  0.0726
15203TIP3    H267101   5.638   5.747   2.672 -0.6860 -1.5691 -0.3072
15204TIP3   OH267102   4.523   6.520   3.552 -0.8278  0.0070 -0.6220
15204TIP3    H167103   4.532   6.470   3.471 -0.1687 -0.1619 -0.4480
15204TIP3    H267104   4.443   6.572   3.539 -2.3866 -2.1734 -0.2045
15205TIP3   OH267105   4.032   4.765   2.065  0.0238 -0.2830 -0.2286
15205TIP3    H167106   3.961   4.793   2.123  1.5870  1.8353  0.7723
15205TIP3    H267107   4.097   4.727   2.123  1.1633  0.9114 -0.6778
15206TIP3   OH267108   2.212   4.586   2.291  0.1056 -0.0623  0.4564
15206TIP3    H167109   2.269   4.654   2.254 -1.2691 -1.1988 -4.4281
15206TIP3    H267110   2.263   4.505   2.281 -0.7676 -0.5526 -0.1051
15207TIP3   OH267111   5.998   0.237   4.325  0.4869 -0.2708 -0.5535
15207TIP3    H167112   6.069   0.273   4.272 -0.3512  2.3941 -0.0104
15207TIP3    H267113   5.918   0.261   4.278 -0.2228  1.1328  1.2418
15208TIP3   OH267114   6.036   4.797  11.769 -0.7752  0.9680  0.3260
15208TIP3    H167115   6.097   4.870  11.763  0.1416  0.2207  0.2885
15208TIP3    H267116   6.055   4.758  11.855 -1.6216  1.0851  0.5738
15209TIP3   OH267117   1.298   2.715   1.329  0.1990 -0.3325 -0.4383
15209TIP3    H167118   1.244   2.651   1.376 -0.0109  0.5043  0.5032
15209TIP3    H267119   1.337   2.665   1.258 -0.4619 -1.3608 -0.1146
15210TIP3   OH267120   3.634   1.667  13.521  0.3597 -0.1386 -0.1263
15210TIP3    H167121   3.555   1.670  13.468 -0.7412 -0.5450  1.4425
15210TIP3    H267122   3.652   1.758  13.543  0.5030 -0.0203 -0.7067
15211TIP3   OH267123   5.078   2.676   5.711 -0.3195 -0.3549 -0.4745
15211TIP3    H167124   5.014   2.704   5.776  0.3190 -0.1594  0.0760
15211TIP3    H267125   5.161   2.713   5.741  0.1177 -0.8935 -0.9950
15212TIP3   OH267126   1.295   4.696   1.049  0.1661  0.0727  0.2179
15212TIP3    H167127   1.296   4.681   0.955 -0.5808 -1.0305  0.3688
15212TIP3    H267128   1.226   4.640   1.082  1.7952 -1.1991  1.6929
15213TIP3   OH267129   1.724   2.316  17.205 -0.0465  0.8110  0.4684
15213TIP3    H167130   1.657   2.384  17.207  1.5570  2.4594  1.0755
15213TIP3    H267131   1.782   2.341  17.133 -1.5280 -2.1616 -1.9826
15214TIP3   OH267132   3.948   1.305  12.134 -0.0194 -0.0004  0.0921
15214TIP3    H167133   3.959   1.228  12.078  0.6141  1.0388 -1.2958
15214TIP3    H267134   3.910   1.371  12.075 -0.7122  0.7060  1.2926
15215TIP3   OH267135   2.481   0.485   0.682  0.2806  0.1362  0.0736
15215TIP3    H167136   2.408   0.519   0.631 -1.4890 -2.1715  0.9504
15215TIP3    H267137   2.540   0.446   0.618 -0.2894  0.1528 -0.4593
15216TIP3   OH267138   4.962   2.840   5.202 -0.7216  0.0213  0.6461
15216TIP3    H167139   4.882   2.833   5.151 -1.3284 -0.4385  1.6293
15216TIP3    H267140   4.987   2.750   5.220  0.1699  0.1570  0.1349
15217TIP3   OH267141   4.706   5.528  14.872 -0.6937  0.0538 -0.6832
15217TIP3    H167142   4.779   5.559  14.819 -1.2137 -0.5883 -1.7950
15217TIP3    H267143   4.629   5.568  14.833 -1.0939 -0.5215 -0.4942
15218TIP3   OH267144   5.876   0.553  14.036 -0.1134 -0.2874 -0.6117
15218TIP3    H167145   5.877   0.463  14.005  1.9365 -1.0467  1.3894
15218TIP3    H267146   5.812   0.554  14.107 -1.6816  0.4278 -1.9478
15219TIP3   OH267147   2.028   2.477  14.266 -0.4117 -0.0169 -0.2489
15219TIP3    H167148   2.036   2.553  14.208 -1.0572  0.1240 -0.1622
15219TIP3    H267149   1.983   2.411  14.214  1.1778 -0.7781 -0.7148
15220TIP3   OH267150   0.981   4.046   0.626  0.2625 -0.3569  0.1660
15220TIP3    H167151   0.942   4.066   0.541 -0.0537 -0.9035  0.1756
15220TIP3    H267152   0.931   4.098   0.689  0.0645 -0.4577  0.0918
15221TIP3   OH267153   5.850   1.751   0.553 -0.2050 -0.1354  0.0931
15221TIP3    H167154   5.802   1.827   0.521 -0.3637 -0.7526 -1.1700
15221TIP3    H267155   5.781   1.689   0.579 -0.0832  0.3056  1.5942
15222TIP3   OH267156   0.138   2.459  12.494  0.1824 -0.0540  0.4165
15222TIP3    H167157   0.108   2.402  12.424  1.2558 -0.1875  0.0421
15222TIP3    H267158   0.166   2.400  12.563  1.0273  0.0110  0.1411
15223TIP3   OH267159   6.706   3.913   1.402 -0.3621  0.0947  0.9662
15223TIP3    H167160   6.716   3.823   1.372 -1.4668 -0.8371  3.1729
15223TIP3    H267161   6.777   3.926   1.464 -0.1821  0.7818  0.6305
15224TIP3   OH267162   6.632   6.273  15.806  0.0799  0.1994  0.2661
15224TIP3    H167163   6.657   6.206  15.743  0.2895 -0.2899  0.8578
15224TIP3    H267164   6.559   6.234  15.854 -0.3042  0.7036  0.1072
15225TIP3   OH267165   3.111   5.795   4.737  0.1208 -0.0016  0.2828
15225TIP3    H167166   3.195   5.829   4.768 -1.1206  2.6038  1.0776
15225TIP3    H267167   3.076   5.746   4.812  0.4979 -0.2604  0.2909
15226TIP3   OH267168   2.116   0.410  14.354  0.3975  0.0782 -0.1396
15226TIP3    H167169   2.106   0.349  14.281  0.6231 -0.6387  0.4138
15226TIP3    H267170   2.156   0.488  14.316  2.7425 -1.1614 -0.3884
15227TIP3   OH267171   0.058   3.367  11.841 -0.1962 -0.0229  0.3681
15227TIP3    H167172  -0.029   3.330  11.833 -0.5255  1.1640 -2.5391
15227TIP3    H267173   0.113   3.314  11.784  0.8951 -0.3672  1.6770
15228TIP3   OH267174   1.235   1.169  14.466 -0.2587  0.0602  0.2287
15228TIP3    H167175   1.244   1.076  14.445 -1.0127  0.3826 -1.6682
15228TIP3    H267176   1.141   1.183  14.474 -0.1349  0.6078  0.9000
15229TIP3   OH267177   0.284   0.389  13.834 -0.1423  0.4669  0.8596
15229TIP3    H167178   0.228   0.399  13.757 -0.0129  0.0499  0.7081
15229TIP3    H267179   0.286   0.476  13.874  0.8576  1.0073 -0.3391
15230TIP3   OH267180   4.619   6.567  11.596 -0.5663  0.1980  0.1298
15230TIP3    H167181   4.684   6.499  11.610  0.1585  0.8090 -0.1563
15230TIP3    H267182   4.543   6.522  11.561 -0.4325 -0.5826  0.8202
15231TIP3   OH267183   2.132   5.601  13.441 -0.3978  1.2462  0.5883
15231TIP3    H167184   2.116   5.672  13.378  0.7930  1.5580  0.6186
15231TIP3    H267185   2.218   5.621  13.479 -0.9317  0.8684  2.0670
15232TIP3   OH267186   4.091   5.002   2.720  0.0110 -0.6348 -0.8603
15232TIP3    H167187   4.024   5.067   2.741  1.7588  0.4395  2.0279
15232TIP3    H267188   4.099   5.004   2.625 -0.9602  2.4152 -0.9609
15233TIP3   OH267189   4.263   3.496   5.178  0.0381  0.0253 -0.3589
15233TIP3    H167190   4.202   3.451   5.237  0.7807  1.5061  1.6868
15233TIP3    H267191   4.299   3.427   5.123 -0.2223 -1.5853  1.3755
15234TIP3   OH267192   2.793   5.103   4.340 -0.2048 -0.0606  0.4554
15234TIP3    H167193   2.727   5.119   4.272  0.3549  0.2737 -0.0184
15234TIP3    H267194   2.876   5.098   4.292  0.5752  2.6453  1.3317
15235TIP3   OH267195   6.358   2.944  14.561  0.1551 -0.0468 -0.0490
15235TIP3    H167196   6.454   2.943  14.557  0.1787  0.0232  0.5281
15235TIP3    H267197   6.332   2.853  14.551  0.4266 -0.5956  3.1939
15236TIP3   OH267198   4.553   4.755   1.957  0.9520 -0.1323  0.5731
15236TIP3    H167199   4.499   4.764   1.879  0.2518 -1.0765  0.9308
15236TIP3    H267200   4.524   4.826   2.015 -0.5104 -1.0945  1.0869
15237TIP3   OH267201   1.866   2.238  12.381 -0.4848 -0.4090  0.9685
15237TIP3    H167202   1.916   2.157  12.367 -0.3670 -0.6872  2.7265
15237TIP3    H267203   1.802   2.239  12.310 -0.9636 -2.4446  1.2917
15238TIP3   OH267204   5.419   1.280  17.204  0.5332  0.0269 -0.6550
15238TIP3    H167205   5.419   1.369  17.239  2.5764 -0.3651  0.4759
15238TIP3    H267206   5.354   1.233  17.256 -0.9698  0.9414 -1.6287
15239TIP3   OH267207   3.327   1.011   4.214 -0.9428 -0.1077  0.0024
15239TIP3    H167208   3.380   1.056   4.148  1.0300  0.2395  1.7170
15239TIP3    H267209   3.256   1.072   4.234 -0.4133  0.6395 -0.3632
15240TIP3   OH267210   5.704   6.549  14.295  0.3202  0.1791  0.1449
15240TIP3    H167211   5.658   6.495  14.231  1.6193 -0.0385 -0.6603
15240TIP3    H267212   5.641   6.563  14.365 -0.6500 -0.8405 -0.4880
15241TIP3   OH267213   6.420   0.041   0.837  0.0973 -0.7777  0.2901
15241TIP3    H167214   6.363   0.069   0.766 -0.7066 -1.0031  0.8416
15241TIP3    H267215   6.367  -0.018   0.890  0.3710  0.0850  1.5936
15242TIP3   OH267216   5.358   5.401   0.786 -0.1589 -0.5724 -0.0445
15242TIP3    H167217   5.419   5.386   0.858  0.6964  0.0398 -0.6185
15242TIP3    H267218   5.413   5.434   0.715 -0.8906 -1.6568 -1.1611
15243TIP3   OH267219   2.941   6.425   1.301 -0.2262 -0.4871  0.5708
15243TIP3    H167220   2.854   6.462   1.312  0.6491  1.4810  1.5431
15243TIP3    H267221   2.993   6.497   1.265  0.7243 -2.0301 -1.2966
15244TIP3   OH267222   3.697   1.416  11.057 -0.4492 -0.0078 -0.0114
15244TIP3    H167223   3.753   1.353  11.013 -0.3446 -1.1410  1.6580
15244TIP3    H267224   3.726   1.501  11.025  1.6446 -0.6067  0.1434
15245TIP3   OH267225   4.580   6.702   6.604 -0.1938  0.1334  0.6317
15245TIP3    H167226   4.523   6.777   6.587 -1.5569 -0.8518  0.6814
15245TIP3    H267227   4.589   6.658   6.519 -0.6701 -0.4872  0.8899
15246TIP3   OH267228   4.024   3.257   5.149  0.1470 -0.1784  0.5576
15246TIP3    H167229   4.015   3.312   5.071 -0.3018  0.5002  1.0726
15246TIP3    H267230   4.093   3.194   5.127 -1.7260 -1.7188 -1.3663
15247TIP3   OH267231   3.026   0.504  13.790  0.0469  0.0688 -0.3049
15247TIP3    H167232   3.058   0.539  13.873 -0.0643 -0.7732  0.1027
15247TIP3    H267233   3.103   0.504  13.733  0.7481 -1.6172  0.5623
15248TIP3   OH267234   2.735   5.729   6.732  0.3023 -0.1328 -0.5670
15248TIP3    H167235   2.819   5.769   6.753  0.6663 -0.9083 -0.5367
15248TIP3    H267236   2.699   5.703   6.816 -0.6754  1.5314 -0.4133
15249TIP3   OH267237   3.547   3.788  11.908 -0.1504  0.2495 -0.3857
15249TIP3    H167238   3.609   3.778  11.836  0.8712 -1.1608  0.6490
15249TIP3    H267239   3.539   3.883  11.920  0.3682  0.4836 -1.7336
15250TIP3   OH267240   2.021   0.310   4.586  0.2288  0.5739  0.0646
15250TIP3    H167241   2.109   0.333   4.558  0.6528 -0.1059  0.7939
15250TIP3    H267242   2.004   0.366   4.661  0.1606  0.4913  0.1118
15251TIP3   OH267243   1.784   6.371  14.032  0.0463  0.2674  0.6091
15251TIP3    H167244   1.821   6.283  14.017  2.2417  1.0115  1.3194
15251TIP3    H267245   1.760   6.401  13.945  0.3649 -0.5844  0.2085
15252TIP3   OH267246   4.013   2.018   0.080 -0.1925  0.2680  0.5396
15252TIP3    H167247   3.939   1.961   0.058 -0.2935  0.9885 -1.1409
15252TIP3    H267248   4.091   1.969   0.055 -0.1875  0.2191  0.6481
15253TIP3   OH267249   5.309   5.955   3.998  0.8820 -0.5033  0.2246
15253TIP3    H167250   5.397   5.990   4.005  1.5038 -2.1477  1.0676
15253TIP3    H267251   5.279   5.981   3.911  1.5283  1.5150  0.5744
15254TIP3   OH267252   6.763   1.207   3.833 -0.3150 -0.1239 -0.5733
15254TIP3    H167253   6.702   1.228   3.761 -0.3430  0.8661 -0.2729
15254TIP3    H267254   6.706   1.185   3.906 -0.4123  2.1168  0.1181
15255TIP3   OH267255   6.240   4.120   5.088  0.4342  0.2566  0.6462
15255TIP3    H167256   6.201   4.045   5.044  0.4719  0.7866 -0.3113
15255TIP3    H267257   6.166   4.164   5.130  0.2737  0.1974  0.4304
15256TIP3   OH267258   5.171   2.278   2.157 -0.1405 -0.0032  0.3278
15256TIP3    H167259   5.113   2.307   2.087 -1.3555 -1.7832  0.5359
15256TIP3    H267260   5.112   2.254   2.229  1.0202  0.7679  1.5798
15257TIP3   OH267261   2.598   0.902   4.962 -0.0389 -0.8753  0.1669
15257TIP3    H167262   2.634   0.821   4.998 -0.8239 -1.8305 -1.1180
15257TIP3    H267263   2.604   0.891   4.867  1.2940  1.2539 -0.0729
15258TIP3   OH267264   6.407   1.811  16.184  0.0166  0.2858 -0.0481
15258TIP3    H167265   6.501   1.802  16.177 -0.0738 -0.6996 -0.0298
15258TIP3    H267266   6.380   1.856  16.104  0.3532 -0.5626 -0.6439
15259TIP3   OH267267   2.242   4.488  12.545 -0.0239  0.7710 -0.2189
15259TIP3    H167268   2.252   4.392  12.548  1.9159  0.9484  0.9059
15259TIP3    H267269   2.148   4.503  12.552 -0.3826 -1.0563 -0.6339
15260TIP3   OH267270   0.824   1.514  15.089  0.0048 -0.1190  0.1200
15260TIP3    H167271   0.894   1.568  15.053 -0.3308 -1.0763 -2.1996
15260TIP3    H267272   0.869   1.439  15.127  0.3161 -1.1677 -2.1379
15261TIP3   OH267273   6.431   6.587   2.538  0.8355  0.6853 -0.0913
15261TIP3    H167274   6.348   6.539   2.547  0.4140  1.1557 -1.1773
15261TIP3    H267275   6.496   6.531   2.580 -0.0647  0.4161  1.0028
15262TIP3   OH267276   4.044   2.686   1.483  0.2660  0.4792 -0.4017
15262TIP3    H167277   3.954   2.689   1.452  0.0858  0.6641  0.1381
15262TIP3    H267278   4.067   2.778   1.498 -0.3101  0.3058  1.9062
15263TIP3   OH267279   1.478   1.291   3.050 -0.5270  0.4136 -0.1629
15263TIP3    H167280   1.440   1.322   3.132 -0.4518 -0.3860  0.1908
15263TIP3    H267281   1.468   1.195   3.055  1.1970  0.2103 -0.2233
15264TIP3   OH267282   0.214   1.382  15.540 -0.0112 -0.2053  0.3556
15264TIP3    H167283   0.279   1.340  15.483 -0.1497  0.2095 -0.1185
15264TIP3    H267284   0.130   1.365  15.497 -0.0594  0.6275  0.1016
15265TIP3   OH267285   2.888   4.220  17.211 -0.0430  0.2756  0.2562
15265TIP3    H167286   2.979   4.197  17.194  0.7723  2.8081  0.7131
15265TIP3    H267287   2.889   4.262  17.297 -1.1801  2.3746 -0.6669
15266TIP3   OH267288   6.677   6.272   5.023  0.0648  0.7788 -0.6333
15266TIP3    H167289   6.632   6.189   5.008 -1.6961  1.3169  1.2086
15266TIP3    H267290   6.736   6.255   5.096  0.7383  0.8199 -1.1575
15267TIP3   OH267291   2.536   2.416   2.501  0.4378 -0.3264  0.0268
15267TIP3    H167292   2.621   2.459   2.498  0.0036  0.6046  0.4589
15267TIP3    H267293   2.555   2.323   2.507  1.4335 -0.0627  1.3276
15268TIP3   OH267294   1.762   0.127  11.293  0.2928  0.2755  1.0279
15268TIP3    H167295   1.766   0.197  11.358  1.5700  0.1477  1.1058
15268TIP3    H267296   1.676   0.138  11.252  1.1943  3.1714 -0.3631
15269TIP3   OH267297   5.023   0.153  16.835  0.0822 -0.4802 -0.0280
15269TIP3    H167298   5.090   0.221  16.847 -1.4776  1.1512 -0.0012
15269TIP3    H267299   4.949   0.200  16.796 -1.3707 -2.0066  0.7778
15270TIP3   OH267300   2.251   5.864  11.493  0.2429 -0.4806  0.5743
15270TIP3    H167301   2.155   5.871  11.498  0.0601 -0.9542 -1.2706
15270TIP3    H267302   2.283   5.952  11.512 -0.6857  0.1213 -0.5090
15271TIP3   OH267303   0.800   6.477  16.451  0.2288 -0.2139 -0.4149
15271TIP3    H167304   0.847   6.560  16.446 -0.3386  0.1563  0.2369
15271TIP3    H267305   0.848   6.426  16.516  0.9485 -0.6474 -1.2751
15272TIP3   OH267306   3.306   0.304   4.144 -0.0630 -0.0780  0.4693
15272TIP3    H167307   3.347   0.271   4.224  2.2308 -1.9660 -1.3578
15272TIP3    H267308   3.249   0.233   4.115 -2.3721  1.3078  1.2598
15273TIP3   OH267309   5.742   2.768  16.546 -0.1539  0.2278  0.2411
15273TIP3    H167310   5.728   2.787  16.453 -0.5592  3.9270  0.8848
15273TIP3    H267311   5.668   2.713  16.571 -0.7073  0.2021 -1.3452
15274TIP3   OH267312   4.489   3.540  16.237  0.3156  0.3638 -0.1393
15274TIP3    H167313   4.514   3.558  16.327  1.1357 -0.2556 -0.2429
15274TIP3    H267314   4.541   3.464  16.211 -0.7508 -0.1824 -0.7646
15275TIP3   OH267315   4.845   1.080   3.878  0.0847  0.1294 -0.0401
15275TIP3    H167316   4.871   1.060   3.967 -0.2191  0.7543  0.1915
15275TIP3    H267317   4.861   0.999   3.830 -0.9945 -0.6536  0.8554
15276TIP3   OH267318   4.897   3.514   0.948 -0.3321 -0.4343  0.0406
15276TIP3    H167319   4.957   3.455   0.903 -1.4249 -1.4470 -0.1499
15276TIP3    H267320   4.929   3.602   0.928  1.1552 -0.9481  0.0839
15277TIP3   OH267321   6.331   2.885  11.880  0.1967  0.3613  0.6173
15277TIP3    H167322   6.408   2.890  11.823  0.7751  3.3031  1.5421
15277TIP3    H267323   6.257   2.902  11.821  0.4863  0.3052  0.2299
15278TIP3   OH267324   0.305   5.899  15.100 -0.2217 -0.2822 -0.5006
15278TIP3    H167325   0.391   5.941  15.090 -0.8429  0.8911 -1.1930
15278TIP3    H267326   0.324   5.805  15.097  1.0357 -0.0468 -0.6285
15279TIP3   OH267327   6.149   5.557  17.237  0.0044  0.3595 -0.1258
15279TIP3    H167328   6.219   5.496  17.213  0.0638  0.9518 -1.5752
15279TIP3    H267329   6.145   5.619  17.164 -1.1377  1.1390  0.5593
15280TIP3   OH267330   5.265   4.460  11.887 -0.0211 -0.1850 -0.2912
15280TIP3    H167331   5.334   4.518  11.920  0.3624  0.2093 -1.6999
15280TIP3    H267332   5.298   4.430  11.802 -0.6922 -1.6342 -0.0616
15281TIP3   OH267333   2.897   5.029   1.323  0.1507  0.1410  0.1989
15281TIP3    H167334   2.872   5.023   1.231  0.8060 -0.9493  0.0713
15281TIP3    H267335   2.819   5.063   1.367 -0.1064  0.8459 -0.7780
15282TIP3   OH267336   5.473   2.303   2.903 -0.2122 -0.0050 -0.0928
15282TIP3    H167337   5.453   2.241   2.973  0.5994  1.9362  1.9737
15282TIP3    H267338   5.455   2.389   2.941  1.1138  1.1782 -1.9582
15283TIP3   OH267339   3.203   6.572   5.706 -0.0509 -0.1612  0.3263
15283TIP3    H167340   3.112   6.565   5.735  0.2312  0.3634  1.3874
15283TIP3    H267341   3.222   6.666   5.711  0.2706 -0.1525 -0.8113
15284TIP3   OH267342   0.915   3.934   4.248  0.1062  0.0070  0.4430
15284TIP3    H167343   0.951   3.970   4.328 -1.8156  1.0002  0.9224
15284TIP3    H267344   0.889   4.010   4.196  0.1874 -0.6366 -0.5818
15285TIP3   OH267345   1.676   5.674  14.969 -0.0292 -0.1901 -0.1909
15285TIP3    H167346   1.675   5.595  14.916 -0.4450 -0.8356  0.7415
15285TIP3    H267347   1.713   5.741  14.912  0.2656 -1.0356 -1.0218
15286TIP3   OH267348   0.374   2.471   4.141 -0.1140 -0.6105  0.3108
15286TIP3    H167349   0.452   2.525   4.122  0.3327 -1.4750 -0.3611
15286TIP3    H267350   0.311   2.533   4.177  0.3320  0.4061 -0.5994
15287TIP3   OH267351   6.295   5.055  16.527  0.5384  0.2899 -0.3053
15287TIP3    H167352   6.340   5.048  16.611  1.4379 -1.1025 -0.8738
15287TIP3    H267353   6.225   5.119  16.542 -0.7463 -1.5109  2.1190
15288TIP3   OH267354   2.675   0.726   6.288 -0.0922  0.4629 -0.2300
15288TIP3    H167355   2.681   0.804   6.344 -2.3430  0.2472  0.4548
15288TIP3    H267356   2.703   0.654   6.345 -2.0636  0.2878  0.6169
15289TIP3   OH267357   5.290   3.932   1.341  0.1663  0.3077 -0.3622
15289TIP3    H167358   5.271   3.976   1.258 -1.1608  0.0063 -0.2407
15289TIP3    H267359   5.227   3.859   1.345  1.1347 -0.5322  0.2663
15290TIP3   OH267360   2.697   3.165  16.912 -0.0807 -0.0710 -0.6688
15290TIP3    H167361   2.606   3.187  16.931  0.3678  1.5031 -0.2182
15290TIP3    H267362   2.712   3.199  16.824 -0.2065 -1.2742 -1.1763
15291TIP3   OH267363   2.657   3.964  13.616  0.4864 -0.5847 -0.0312
15291TIP3    H167364   2.562   3.974  13.607  0.5180 -0.3625 -0.1408
15291TIP3    H267365   2.690   3.963  13.526  0.7490  1.0458  0.0065
15292TIP3   OH267366   1.582   3.588   4.668  0.2259 -0.1248  0.1786
15292TIP3    H167367   1.523   3.654   4.631  1.1215 -0.9794 -3.0997
15292TIP3    H267368   1.670   3.622   4.651  0.6833 -1.2706  0.1299
15293TIP3   OH267369   0.108   6.159   6.269 -0.2097 -0.7919 -0.1306
15293TIP3    H167370   0.106   6.102   6.345  1.1529 -2.1070 -1.0432
15293TIP3    H267371   0.141   6.243   6.302 -1.9039 -0.5765  1.1466
15294TIP3   OH267372   3.953   0.541  14.623 -0.0803 -0.3474 -0.2216
15294TIP3    H167373   4.016   0.509  14.688  0.0443 -1.1239 -0.7174
15294TIP3    H267374   3.994   0.621  14.589  0.2770 -0.4329 -0.0036
15295TIP3   OH267375   4.809   3.416   6.781 -0.3437 -0.1624  0.4328
15295TIP3    H167376   4.786   3.334   6.826 -0.2884 -0.3218  0.1778
15295TIP3    H267377   4.744   3.422   6.710  0.9937 -1.1463 -0.9301
15296TIP3   OH267378   5.865   5.854  11.712 -0.5117  0.6642 -0.5088
15296TIP3    H167379   5.813   5.829  11.789  1.9687 -0.9059  0.7794
15296TIP3    H267380   5.800   5.886  11.650 -2.8050  0.5686  1.6536
15297TIP3   OH267381   1.098   0.549   4.717  0.5545  0.3060 -0.3448
15297TIP3    H167382   1.025   0.559   4.657 -0.1437  3.0515  0.7776
15297TIP3    H267383   1.060   0.508   4.795  0.3809  0.8772 -0.1185
15298TIP3   OH267384   6.652   3.563   2.735  0.5803  0.0688 -0.0866
15298TIP3    H167385   6.629   3.655   2.746  1.2283  0.3643 -1.0398
15298TIP3    H267386   6.568   3.518   2.726  0.1801  0.3017  2.0357
15299TIP3   OH267387   0.807   4.751   3.357  0.3459 -0.2789  0.2594
15299TIP3    H167388   0.763   4.673   3.392  0.4550 -0.7870 -0.7180
15299TIP3    H267389   0.867   4.717   3.290 -0.0046  0.6793 -0.5593
15300TIP3   OH267390   0.821   2.063   3.253  0.3242 -0.1162  0.0898
15300TIP3    H167391   0.870   1.985   3.229 -0.2707 -0.0720 -1.4006
15300TIP3    H267392   0.886   2.134   3.252  0.6474 -0.4078  0.3297
15301TIP3   OH267393   5.935   5.063   0.053 -0.0614  0.2634 -0.4416
15301TIP3    H167394   5.929   4.969   0.037 -0.2510  0.3882 -1.1123
15301TIP3    H267395   5.993   5.096  -0.015  3.7538 -0.0027  2.3329
15302TIP3   OH267396   1.581   3.425   5.961  0.0378  0.4815 -0.4824
15302TIP3    H167397   1.503   3.404   5.909  0.8698  0.4064 -1.7636
15302TIP3    H267398   1.547   3.449   6.047 -1.3309 -0.5343 -0.6972
15303TIP3   OH267399   3.379   3.316   0.162 -0.3158  0.0909 -0.4001
15303TIP3    H167400   3.306   3.261   0.132  0.2536 -0.3064 -1.0849
15303TIP3    H267401   3.450   3.296   0.102  0.2971  0.6405  0.1301
15304TIP3   OH267402   0.214   0.993  17.302  0.3983  0.1081 -0.0690
15304TIP3    H167403   0.252   0.976  17.215 -0.7497  0.7668 -0.7219
15304TIP3    H267404   0.126   0.956  17.297 -0.2856  1.6177  0.2330
15305TIP3   OH267405   5.457   5.652   4.014 -0.0304 -0.3720 -0.4341
15305TIP3    H167406   5.457   5.567   3.970 -0.3492 -2.0037  2.4306
15305TIP3    H267407   5.543   5.659   4.054 -0.3937  0.1207  0.2907
15306TIP3   OH267408   0.732   5.152   3.079 -0.4912  0.1890  0.2041
15306TIP3    H167409   0.669   5.133   3.009 -0.2893  0.2560  0.0054
15306TIP3    H267410   0.801   5.202   3.036 -1.1400  1.6152  0.7623
15307TIP3   OH267411   0.074   0.189  16.003  0.4774  0.2358 -0.0941
15307TIP3    H167412   0.138   0.251  15.968  0.1282  0.5786 -0.1259
15307TIP3    H267413   0.098   0.180  16.095  0.4097  0.5689 -0.0433
15308TIP3   OH267414   4.616   2.716  12.310  0.2914 -0.1485  0.4055
15308TIP3    H167415   4.660   2.663  12.378  0.3967 -0.9635 -0.2789
15308TIP3    H267416   4.586   2.651  12.246 -1.5626  0.4311  0.6502
15309TIP3   OH267417   6.223   3.220   1.551 -0.1921 -0.1612  0.2574
15309TIP3    H167418   6.162   3.146   1.551 -0.3010 -0.0931  1.5116
15309TIP3    H267419   6.167   3.297   1.557 -0.1995  0.2065 -2.8842
15310TIP3   OH267420   4.001   2.558  13.397  0.1649 -0.2902  0.9365
15310TIP3    H167421   4.091   2.583  13.378 -0.5290  1.6178 -0.0872
15310TIP3    H267422   3.983   2.484  13.339  0.9509 -0.4791  0.9213
15311TIP3   OH267423   2.839   6.298  17.153 -0.0878  0.6447 -0.3040
15311TIP3    H167424   2.799   6.265  17.233  1.4623 -2.0146 -0.5268
15311TIP3    H267425   2.772   6.283  17.086  0.3346 -1.6483 -0.2847
15312TIP3   OH267426   1.261   6.759  14.416  0.2249  0.4099 -0.0344
15312TIP3    H167427   1.300   6.801  14.493 -0.1237  1.2363 -0.2962
15312TIP3    H267428   1.293   6.669  14.419  2.3053  1.0991 -0.3419
15313TIP3   OH267429   3.977   0.965   3.458 -0.1883 -0.0660 -0.5066
15313TIP3    H167430   4.031   0.980   3.535 -2.1232 -0.5188  1.0348
15313TIP3    H267431   3.898   1.017   3.474 -0.2477  0.5953 -2.6699
15314TIP3   OH267432   5.719   3.519   3.718  0.9752  0.4126 -0.1961
15314TIP3    H167433   5.750   3.429   3.710  2.6689  0.9593 -0.1312
15314TIP3    H267434   5.668   3.520   3.799  0.3376 -0.6337 -0.5619
15315TIP3   OH267435   5.963   4.623  16.472  0.4591  0.1337  0.4181
15315TIP3    H167436   5.908   4.604  16.548 -1.4449  0.0108 -0.9274
15315TIP3    H267437   5.940   4.713  16.449  1.1217  0.2113  0.0596
15316TIP3   OH267438   5.707   4.877   1.190 -0.2442  0.3517 -0.4428
15316TIP3    H167439   5.614   4.856   1.192 -0.3212  0.6541 -0.7615
15316TIP3    H267440   5.712   4.960   1.142  0.4579 -1.0669 -3.0036
15317TIP3   OH267441   2.080   4.194   2.759 -0.0828  0.6596  0.9238
15317TIP3    H167442   2.097   4.157   2.672  0.5890 -0.4670  1.5112
15317TIP3    H267443   2.162   4.183   2.806 -0.6882  0.4826  1.9690
15318TIP3   OH267444   2.441   6.016   0.123  0.0725  0.4860 -0.0114
15318TIP3    H167445   2.474   6.103   0.145 -1.5283  1.6024 -1.6691
15318TIP3    H267446   2.365   6.004   0.180  0.0165  0.3817 -0.1065
15319TIP3   OH267447   1.636   4.812  11.034 -0.1843 -0.7182 -0.4468
15319TIP3    H167448   1.594   4.726  11.045  0.7625 -1.2885 -1.1746
15319TIP3    H267449   1.575   4.860  10.977 -1.3187 -0.4527  0.9422
15320TIP3   OH267450   5.720   5.234  14.576 -0.0435 -0.6622 -0.1832
15320TIP3    H167451   5.718   5.198  14.488  1.0829  0.6527 -0.7804
15320TIP3    H267452   5.699   5.160  14.633 -1.7634 -1.3213 -1.5860
15321TIP3   OH267453   6.540   3.041   0.193 -0.2639  0.3233 -0.3142
15321TIP3    H167454   6.627   3.079   0.182 -0.1189 -0.2863 -1.5222
15321TIP3    H267455   6.552   2.948   0.173 -0.7053 -0.2909  2.0256
15322TIP3   OH267456   6.276   4.179  11.428 -0.1955  0.6289 -0.0953
15322TIP3    H167457   6.217   4.233  11.480 -1.1096 -0.1856 -0.2550
15322TIP3    H267458   6.362   4.219  11.439 -0.7531  1.7664  0.2442
15323TIP3   OH267459   6.704   0.745   5.214 -0.0405 -0.0917 -0.7638
15323TIP3    H167460   6.718   0.711   5.126  0.2817  1.2665 -1.2552
15323TIP3    H267461   6.772   0.704   5.267  2.3457  2.0278 -1.9592
15324TIP3   OH267462   2.450   4.602  16.813  0.2766  0.2277 -0.1322
15324TIP3    H167463   2.403   4.615  16.731  1.5413 -0.8248 -1.0576
15324TIP3    H267464   2.403   4.656  16.876 -2.1545 -0.7666 -0.9854
15325TIP3   OH267465   5.942   4.769  17.024 -0.2727 -0.3210  0.3130
15325TIP3    H167466   6.015   4.827  17.045  1.5687 -2.6351  0.7355
15325TIP3    H267467   5.883   4.823  16.972  0.7446  2.2196  1.6427
15326TIP3   OH267468   3.078   4.377  10.820 -0.5004 -0.0457  0.1259
15326TIP3    H167469   3.023   4.438  10.869  1.9180  2.7484 -0.3526
15326TIP3    H267470   3.031   4.364  10.738 -1.1822  1.0299  0.3227
15327TIP3   OH267471   6.363   5.821  15.607 -0.1225  0.0422 -0.0185
15327TIP3    H167472   6.445   5.825  15.656  1.1020  1.0852 -2.0313
15327TIP3    H267473   6.300   5.868  15.662  0.8506  0.0506  1.1349
15328TIP3   OH267474   4.179   0.850   5.926  0.4582 -0.0661 -0.2473
15328TIP3    H167475   4.242   0.784   5.897  0.8557  0.4987 -0.6703
15328TIP3    H267476   4.113   0.852   5.856 -1.1865 -2.1282  1.1109
15329TIP3   OH267477   0.455   5.971   5.196 -0.5794 -0.3130  0.2635
15329TIP3    H167478   0.534   5.917   5.184 -0.3232 -0.0959  0.9385
15329TIP3    H267479   0.384   5.908   5.205 -0.3950 -0.5220  0.2616
15330TIP3   OH267480   2.250   3.805   4.190  0.2812 -0.5662  0.2349
15330TIP3    H167481   2.160   3.813   4.158  0.2200 -0.4680  0.4328
15330TIP3    H267482   2.304   3.803   4.110  0.2386  1.0499  0.1346
15331TIP3   OH267483   0.711   6.718   0.206 -0.5933 -0.0427  0.2404
15331TIP3    H167484   0.706   6.634   0.159 -1.1486  1.0483 -1.7591
15331TIP3    H267485   0.796   6.715   0.251 -0.4286 -1.5063 -0.1051
15332TIP3   OH267486   1.412   5.137   3.722  0.1286 -0.1790 -0.0097
15332TIP3    H167487   1.371   5.223   3.718 -0.4451 -0.4759 -1.7350
15332TIP3    H267488   1.410   5.113   3.814  1.7091  2.2757  0.7667
15333TIP3   OH267489   0.421   5.879   4.668 -0.3398 -0.0290  0.1809
15333TIP3    H167490   0.507   5.921   4.663 -1.4034  2.6571  1.7878
15333TIP3    H267491   0.368   5.926   4.604 -1.1442 -0.0836  0.7854
15334TIP3   OH267492   5.115   4.172   1.697 -0.1226 -0.0476 -0.1857
15334TIP3    H167493   5.062   4.238   1.741  1.1999 -0.2297  1.8036
15334TIP3    H267494   5.060   4.093   1.699 -0.0650 -0.0923  1.3484
15335TIP3   OH267495   0.716   4.788  13.346 -0.1752 -0.6826  0.1240
15335TIP3    H167496   0.719   4.879  13.316  2.4910 -1.3566 -2.1282
15335TIP3    H267497   0.627   4.776  13.379 -1.1179  2.2922 -1.0233
15336TIP3   OH267498   2.037   4.461  16.548 -0.2873  0.2062  0.0420
15336TIP3    H167499   2.042   4.371  16.580 -0.3056  0.1175 -0.2028
15336TIP3    H267500   2.043   4.452  16.453  1.4415  0.5731  0.0836
15337TIP3   OH267501   3.936   4.154   0.928  0.5946 -0.0409 -0.2371
15337TIP3    H167502   4.019   4.178   0.886  0.7784  1.5453  0.9258
15337TIP3    H267503   3.924   4.062   0.906  3.8860 -1.0475  1.5489
15338TIP3   OH267504   0.584   5.564  14.855  0.2444 -0.1234  0.0754
15338TIP3    H167505   0.633   5.514  14.790  2.7816  2.6458 -0.4026
15338TIP3    H267506   0.532   5.626  14.803 -0.7557 -0.4513  0.6630
15339TIP3   OH267507   2.917   4.006   4.318  0.1265 -0.2467  0.3611
15339TIP3    H167508   2.873   4.058   4.385  1.4416 -0.7962  1.7205
15339TIP3    H267509   3.008   4.037   4.319  0.3113 -0.7218 -0.7031
15340TIP3   OH267510   3.070   3.523  15.671 -0.3989 -0.1909  0.0648
15340TIP3    H167511   3.103   3.514  15.760 -0.8855  0.4704  0.3261
15340TIP3    H267512   3.097   3.611  15.644  3.2679 -1.7150 -1.9811
15341TIP3   OH267513   3.617   2.525  16.447  0.2409  0.1025 -0.1188
15341TIP3    H167514   3.596   2.614  16.473 -1.7807 -0.7545  1.5212
15341TIP3    H267515   3.688   2.499  16.505 -0.0110  0.2628  0.2677
15342TIP3   OH267516   4.563   1.745   5.969 -0.5836  0.6405  0.2850
15342TIP3    H167517   4.471   1.723   5.985 -0.2941 -0.9126 -0.0328
15342TIP3    H267518   4.610   1.705   6.042  0.1951 -1.9538 -1.4662
15343TIP3   OH267519   1.025   1.026  14.012 -0.8913 -0.0597  0.2340
15343TIP3    H167520   0.980   1.067  13.939 -0.7258 -0.0440  0.1391
15343TIP3    H267521   0.963   0.962  14.047 -0.9491 -0.1070  0.0442
15344TIP3   OH267522   3.923   4.499  15.089 -0.7666 -0.1554 -0.1870
15344TIP3    H167523   3.938   4.419  15.039 -2.3922  0.1236 -1.1995
15344TIP3    H267524   3.991   4.499  15.156  0.7795 -1.1367 -1.6767
15345TIP3   OH267525   1.869   4.590   4.871  0.2424 -0.0062  0.0332
15345TIP3    H167526   1.871   4.502   4.833 -0.3567 -0.0441  0.0773
15345TIP3    H267527   1.949   4.596   4.924  1.4911  0.2922 -1.7760
15346TIP3   OH267528   4.527   3.167   0.455  0.0077  0.1672 -0.2394
15346TIP3    H167529   4.547   3.237   0.516 -0.9199 -0.7596  1.1832
15346TIP3    H267530   4.432   3.167   0.448  0.0595 -0.2491 -1.0751
15347TIP3   OH267531   0.851   5.933   1.573  0.5684 -0.2593 -0.5048
15347TIP3    H167532   0.773   5.968   1.616  1.3182 -0.3365  0.9836
15347TIP3    H267533   0.863   5.987   1.496  0.5930  1.5438  0.7132
15348TIP3   OH267534   0.639   0.848  14.476 -0.2412  0.3423  0.2243
15348TIP3    H167535   0.620   0.777  14.415 -2.9240 -0.1533  1.4869
15348TIP3    H267536   0.635   0.808  14.562 -0.1266  1.6953  0.8905
15349TIP3   OH267537   2.348   3.303   1.608  0.0743  0.5365  0.2722
15349TIP3    H167538   2.350   3.399   1.606  0.5897  0.5326 -1.2514
15349TIP3    H267539   2.352   3.278   1.515  0.7609 -0.9647  0.6851
15350TIP3   OH267540   5.475   4.938   4.066  0.1087 -0.2418  0.3238
15350TIP3    H167541   5.402   4.882   4.095  0.1785 -0.4510  0.0991
15350TIP3    H267542   5.544   4.921   4.130  0.2484 -0.6720  0.0644
15351TIP3   OH267543   1.364   6.060   3.350 -0.7708  0.2664  0.1896
15351TIP3    H167544   1.444   6.039   3.301 -0.9491  1.4031 -0.6108
15351TIP3    H267545   1.378   6.149   3.382 -1.9049  0.6585 -0.3706
15352TIP3   OH267546   5.529   6.525   2.247 -0.3728  0.6582  0.4977
15352TIP3    H167547   5.495   6.568   2.169 -1.4431 -0.6096  0.2234
15352TIP3    H267548   5.459   6.466   2.275  0.5236  0.0650  1.6143
15353TIP3   OH267549   6.702   2.635  10.937  0.2982 -0.2909  0.2179
15353TIP3    H167550   6.759   2.702  10.899  1.5306 -1.4102  0.0217
15353TIP3    H267551   6.670   2.586  10.861  1.1337 -1.2611  0.4825
15354TIP3   OH267552   6.349   3.536   1.764  0.0125 -0.0620  0.6180
15354TIP3    H167553   6.262   3.575   1.768  0.2507  0.4323  1.0135
15354TIP3    H267554   6.395   3.571   1.840  1.2866  1.4346 -0.7694
15355TIP3   OH267555   0.487   4.415   5.105 -0.2275  0.1244  0.4437
15355TIP3    H167556   0.560   4.378   5.056  0.1147  2.4900 -0.9964
15355TIP3    H267557   0.519   4.499   5.138 -2.2052  1.1579 -0.0793
15356TIP3   OH267558   2.353   2.971   0.833  0.2290  0.2778  0.0095
15356TIP3    H167559   2.348   3.023   0.913  0.8615 -0.3076  0.4399
15356TIP3    H267560   2.263   2.966   0.802  0.0807  1.1181  0.2869
15357TIP3   OH267561   1.342   2.269  16.704 -0.2668 -0.3852 -0.2451
15357TIP3    H167562   1.294   2.265  16.621  1.6620 -1.6392 -1.3749
15357TIP3    H267563   1.274   2.284  16.769 -1.9975 -0.4504 -1.9251
15358TIP3   OH267564   2.696   5.904   2.219  0.1356 -0.4254  0.0125
15358TIP3    H167565   2.725   5.825   2.265  0.4041 -1.5229 -1.9188
15358TIP3    H267566   2.753   5.908   2.142 -1.1268  0.5972 -0.8989
15359TIP3   OH267567   5.726   2.749   0.238  0.6794 -0.1605  0.2948
15359TIP3    H167568   5.790   2.788   0.180  0.7586  0.1752  0.6067
15359TIP3    H267569   5.778   2.712   0.310  0.4486  1.2729  1.2317
15360TIP3   OH267570   1.961   0.259  16.565  0.1107  0.0176  0.0886
15360TIP3    H167571   1.973   0.208  16.485 -0.0801 -0.5796  0.4346
15360TIP3    H267572   1.867   0.270  16.574  0.1584  0.6350 -0.1041
15361TIP3   OH267573   2.502   3.469  13.585  0.2558  0.1712  0.6115
15361TIP3    H167574   2.445   3.542  13.558 -0.2093 -0.3206  0.2398
15361TIP3    H267575   2.472   3.446  13.673 -0.2133 -0.1799  0.3593
15362TIP3   OH267576   5.830   0.881   0.344  0.1983  0.1365 -0.4621
15362TIP3    H167577   5.834   0.944   0.272 -0.6747 -0.2421 -0.8579
15362TIP3    H267578   5.866   0.929   0.419  0.6122  0.7201 -1.0146
15363TIP3   OH267579   5.455   3.638   5.619 -0.1239  0.2523 -0.3783
15363TIP3    H167580   5.419   3.708   5.673  0.5184 -0.5383  1.1295
15363TIP3    H267581   5.549   3.654   5.618 -0.0542 -0.1511 -0.6675
15364TIP3   OH267582   2.432   3.441   3.591  0.4231  0.0295  0.0799
15364TIP3    H167583   2.375   3.513   3.619  1.3791  1.0986 -0.6259
15364TIP3    H267584   2.375   3.386   3.537 -0.2617  0.3980  0.4058
15365TIP3   OH267585   0.808   1.424   3.302 -0.6530 -0.5074 -0.2102
15365TIP3    H167586   0.903   1.420   3.317 -0.5216  1.0152 -0.4545
15365TIP3    H267587   0.778   1.498   3.355 -1.2551  0.6802 -2.1013
15366TIP3   OH267588   5.323   1.443   3.818 -0.2228 -0.1594 -0.0692
15366TIP3    H167589   5.365   1.358   3.805 -0.2259  0.1420 -2.3393
15366TIP3    H267590   5.232   1.429   3.794 -1.2288 -0.4016  3.3011
15367TIP3   OH267591   4.642   5.056   2.844 -0.3839 -0.1231  0.2799
15367TIP3    H167592   4.572   5.121   2.854 -0.8475 -0.7054  1.0116
15367TIP3    H267593   4.676   5.045   2.933  2.0624  1.6350 -0.3276
15368TIP3   OH267594   5.398   4.271  16.693 -0.5193 -0.2971  0.2149
15368TIP3    H167595   5.397   4.178  16.716 -2.7708 -0.3403  0.1819
15368TIP3    H267596   5.344   4.276  16.614  0.3900  0.9255 -0.3562
15369TIP3   OH267597   1.909   4.392  15.553  0.6034  0.2583  0.3921
15369TIP3    H167598   1.921   4.313  15.500  1.6974  0.1156  0.8183
15369TIP3    H267599   1.818   4.417  15.539  0.4479 -0.6588 -0.3313
15370TIP3   OH267600   2.298   6.470   3.817 -0.3176 -0.5435  0.0170
15370TIP3    H167601   2.370   6.435   3.870 -1.0587  0.2835  1.6588
15370TIP3    H267602   2.224   6.474   3.878 -1.5210 -0.5749 -1.4061
15371TIP3   OH267603   2.717   0.610   6.790  0.0873  0.1928 -0.4974
15371TIP3    H167604   2.650   0.551   6.756 -1.5902  1.3216  0.7118
15371TIP3    H267605   2.749   0.568   6.869 -0.8543  0.6808  0.1672
15372TIP3   OH267606   6.310   1.906  15.949 -0.4711 -0.0079 -0.0335
15372TIP3    H167607   6.292   1.996  15.921 -0.2364  0.7391  2.0341
15372TIP3    H267608   6.226   1.874  15.981 -0.4667 -0.3937 -0.4039
15373TIP3   OH267609   0.925   5.364  15.487 -0.4430  0.5536 -0.8949
15373TIP3    H167610   0.847   5.311  15.468 -0.5214 -0.1724  1.2136
15373TIP3    H267611   0.937   5.357  15.582 -0.1417  3.9386 -0.5683
15374TIP3   OH267612   1.577   2.210   5.458  0.2120 -0.3690  0.2975
15374TIP3    H167613   1.591   2.301   5.483  1.2788 -0.5593  0.4363
15374TIP3    H267614   1.663   2.180   5.427 -0.4095 -0.9659 -0.9340
15375TIP3   OH267615   0.799   1.397   5.086 -0.4192  0.5065 -0.2104
15375TIP3    H167616   0.762   1.318   5.046 -1.5781  1.3008 -0.7469
15375TIP3    H267617   0.834   1.448   5.012 -1.2212  1.2838 -0.0687
15376TIP3   OH267618   0.126   3.064  12.394 -0.5008  0.2702 -0.0120
15376TIP3    H167619   0.105   3.032  12.307 -1.5698  1.8988 -0.4114
15376TIP3    H267620   0.119   2.987  12.451 -0.3263 -0.7038 -1.2716
15377TIP3   OH267621   2.921   1.214   0.190 -0.2849  0.5652  0.1194
15377TIP3    H167622   2.830   1.240   0.199 -0.9042 -0.2410 -2.7311
15377TIP3    H267623   2.925   1.170   0.105  3.0502  1.8901 -0.5721
15378TIP3   OH267624   1.607   0.952  14.203  0.3492 -0.3113 -0.0050
15378TIP3    H167625   1.522   0.976  14.166 -0.1928 -1.2498  0.5795
15378TIP3    H267626   1.665   1.024  14.180  0.4575 -1.4644 -3.9802
15379TIP3   OH267627   2.807   6.473   3.693  0.3494  0.3485 -0.1714
15379TIP3    H167628   2.900   6.450   3.700  0.2424 -0.9932 -2.1793
15379TIP3    H267629   2.791   6.533   3.765  3.2629  2.2471 -0.9517
15380TIP3   OH267630   0.133   3.493  14.496  0.0860 -0.6571 -0.1015
15380TIP3    H167631   0.094   3.429  14.555  0.4573 -1.4848 -0.7366
15380TIP3    H267632   0.100   3.470  14.409  0.5113 -0.2155 -0.3898
15381TIP3   OH267633   3.473   1.405  13.426 -0.0602 -0.2934 -0.0564
15381TIP3    H167634   3.563   1.388  13.399 -0.3528 -0.3463 -1.0488
15381TIP3    H267635   3.478   1.417  13.521  0.8541 -1.1563  0.0218
15382TIP3   OH267636   1.914   2.731  16.423 -0.1545 -0.5241  0.3487
15382TIP3    H167637   1.839   2.728  16.483  0.6228  0.2338  1.3753
15382TIP3    H267638   1.987   2.696  16.474  0.0438 -2.1025 -0.9302
15383TIP3   OH267639   4.280   1.645   5.490 -0.5671  0.7609  0.0520
15383TIP3    H167640   4.237   1.731   5.488  0.2607  1.2094 -2.8915
15383TIP3    H267641   4.373   1.665   5.495 -0.4323 -0.0740  1.3522
15384TIP3   OH267642   0.856   5.406  16.215  0.0809  0.0252 -0.0551
15384TIP3    H167643   0.808   5.454  16.148 -1.3186  0.3006  1.1014
15384TIP3    H267644   0.860   5.466  16.289  2.3978  0.0751 -0.1450
15385TIP3   OH267645   1.383   0.346   4.060 -0.0443 -0.5940  0.5536
15385TIP3    H167646   1.340   0.295   4.129 -1.3663  0.5463  0.6182
15385TIP3    H267647   1.314   0.403   4.026  0.8552 -0.3836 -0.9993
15386TIP3   OH267648   5.905   0.602   6.457 -0.8566 -0.4595  0.3225
15386TIP3    H167649   5.828   0.551   6.484 -1.4456  0.9102  1.3599
15386TIP3    H267650   5.871   0.690   6.443  0.4070 -0.0023  0.0259
15387TIP3   OH267651   2.866   1.956   3.988 -0.0088 -0.1533  0.7998
15387TIP3    H167652   2.911   2.032   3.951  1.5226  0.7890  4.2541
15387TIP3    H267653   2.894   1.883   3.932 -0.2708  1.4902 -1.6456
15388TIP3   OH267654   6.774   2.428   5.099  0.3637 -0.7488  0.4865
15388TIP3    H167655   6.761   2.342   5.140 -0.1916 -0.5782  0.6757
15388TIP3    H267656   6.790   2.487   5.173  0.5586 -0.6576  0.3705
15389TIP3   OH267657   1.494   2.208   4.045  0.0159 -0.0882 -0.1465
15389TIP3    H167658   1.586   2.197   4.070  0.4038 -0.1781 -1.5565
15389TIP3    H267659   1.494   2.202   3.950 -0.9449  3.3103 -0.4830
15390TIP3   OH267660   4.568   2.678  13.304  0.1677  0.1820  0.1175
15390TIP3    H167661   4.587   2.595  13.260 -1.0195  0.4658 -0.9791
15390TIP3    H267662   4.564   2.742  13.233 -3.2452  0.3965  0.3663
15391TIP3   OH267663   1.767   0.833  12.514 -0.5630  0.1476 -0.1292
15391TIP3    H167664   1.843   0.838  12.572 -0.3537 -0.6689 -0.3185
15391TIP3    H267665   1.695   0.807  12.572 -0.8646  1.6227  0.1811
15392TIP3   OH267666   6.632   3.034   3.881 -0.3440  0.4815  0.2506
15392TIP3    H167667   6.695   3.106   3.891  0.7643 -0.4476  0.0949
15392TIP3    H267668   6.589   3.052   3.797  1.4667 -0.1567 -0.8774
15393TIP3   OH267669   2.608   3.154   0.852  0.2955 -0.0769 -0.8806
15393TIP3    H167670   2.631   3.242   0.821 -0.4728  0.4252 -0.0851
15393TIP3    H267671   2.667   3.138   0.926 -0.1608  0.1456 -0.4636
15394TIP3   OH267672   2.356   6.623   2.193 -0.5790 -0.6390  0.2820
15394TIP3    H167673   2.318   6.657   2.273  0.9188 -0.0789  0.7923
15394TIP3    H267674   2.293   6.645   2.124 -0.4345  1.7246  0.8327
15395TIP3   OH267675   6.738   1.905  14.125  0.1924  0.1468  0.7246
15395TIP3    H167676   6.661   1.880  14.177  0.2386 -0.4250  0.5285
15395TIP3    H267677   6.725   1.863  14.040  0.2210  0.9092  0.3372
15396TIP3   OH267678   6.688   5.098   4.246  0.1165 -0.6915  0.4611
15396TIP3    H167679   6.700   5.039   4.171  0.4152 -0.6418  0.4678
15396TIP3    H267680   6.598   5.083   4.274  0.3324 -1.4791  0.7505
15397TIP3   OH267681   5.870   2.956  16.885  0.0412  0.1008  0.3110
15397TIP3    H167682   5.956   2.921  16.860 -0.2110 -0.1306 -0.2637
15397TIP3    H267683   5.837   2.997  16.805 -0.2463  0.4657  0.6157
15398TIP3   OH267684   3.850   1.871  13.810 -0.1105 -0.6034 -0.1970
15398TIP3    H167685   3.794   1.900  13.739  1.8237  0.9600 -1.2070
15398TIP3    H267686   3.874   1.952  13.856  1.5977 -1.1434 -0.0602
15399TIP3   OH267687   6.166   6.421   1.259  0.4622 -0.4486  0.4094
15399TIP3    H167688   6.084   6.446   1.301 -0.5579 -0.8953 -1.2220
15399TIP3    H267689   6.174   6.327   1.277  0.1766 -0.5781 -0.1248
15400TIP3   OH267690   6.414   4.360   5.110 -0.5422 -0.8613  0.6240
15400TIP3    H167691   6.508   4.380   5.110 -0.6332 -0.4015  0.7618
15400TIP3    H267692   6.408   4.271   5.143  0.1901 -2.7435 -3.6529
15401TIP3   OH267693   4.330   4.165   4.094 -0.2287 -0.2730  0.0439
15401TIP3    H167694   4.323   4.109   4.016  1.7335 -0.1555 -0.2910
15401TIP3    H267695   4.344   4.103   4.166 -0.0422 -0.3138 -0.0246
15402TIP3   OH267696   6.684   6.633   3.578  0.0850  0.0729 -0.1533
15402TIP3    H167697   6.663   6.714   3.531 -0.1527  0.3731  0.4444
15402TIP3    H267698   6.661   6.563   3.517  0.8185  0.4596 -0.8867
15403TIP3   OH267699   0.782   4.194  16.875 -0.4526  0.3717 -0.3118
15403TIP3    H167700   0.764   4.235  16.790  0.1474  1.2841 -0.0133
15403TIP3    H267701   0.704   4.211  16.927 -0.6724  0.1292 -0.5569
15404TIP3   OH267702   1.453   5.973   4.100 -0.1765  0.0437 -0.3355
15404TIP3    H167703   1.434   5.907   4.033  2.2526 -0.0671 -1.0151
15404TIP3    H267704   1.539   5.948   4.134 -0.4285  1.3235  1.3648
15405TIP3   OH267705   0.934   2.902   1.614 -0.0222  0.3665 -0.4246
15405TIP3    H167706   0.891   2.915   1.529 -0.3562 -0.2916 -0.3641
15405TIP3    H267707   0.993   2.828   1.599 -0.3293  0.0309  0.0046
15406TIP3   OH267708   3.196   3.954   1.554 -0.4011 -0.4620 -0.7700
15406TIP3    H167709   3.266   4.017   1.536 -0.4004  0.2658  1.4840
15406TIP3    H267710   3.240   3.880   1.596 -0.9702  0.1783  1.0459
15407TIP3   OH267711   3.319   4.797   4.946 -0.0993 -0.0394 -0.0075
15407TIP3    H167712   3.232   4.835   4.954 -0.2108 -0.3912  0.5086
15407TIP3    H267713   3.324   4.765   4.856 -0.2652  0.5498 -0.2328
15408TIP3   OH267714   6.635   1.799  11.333 -1.0046  0.5647  0.5088
15408TIP3    H167715   6.625   1.842  11.247 -1.1408 -2.1874 -0.9557
15408TIP3    H267716   6.558   1.826  11.382 -1.0500  2.0265 -0.2934
15409TIP3   OH267717   2.124   0.846   5.347  0.1475 -0.0455  0.0330
15409TIP3    H167718   2.145   0.765   5.301 -1.2068 -1.3445  1.5980
15409TIP3    H267719   2.205   0.872   5.390  0.7247 -0.2572 -0.9093
15410TIP3   OH267720   3.764   1.115   4.206  0.3125 -0.4638  0.2735
15410TIP3    H167721   3.674   1.143   4.187  0.8556  1.3288  0.1356
15410TIP3    H267722   3.804   1.104   4.120  0.7568  0.7026  0.3044
15411TIP3   OH267723   4.473   4.726  11.100  0.1100 -0.3157  0.3724
15411TIP3    H167724   4.547   4.787  11.094 -0.2915  0.0590 -2.3860
15411TIP3    H267725   4.502   4.649  11.051 -0.3833 -1.2936  1.5676
15412TIP3   OH267726   4.125   2.066   4.274  0.1553  0.2655 -0.4335
15412TIP3    H167727   4.033   2.055   4.254 -0.2091  0.2953  1.0716
15412TIP3    H267728   4.171   2.013   4.209 -1.0263 -1.2602 -0.0802
15413TIP3   OH267729   6.661   5.664   2.688 -0.0889 -0.3378 -0.3318
15413TIP3    H167730   6.698   5.749   2.663  0.4336 -0.4183  0.1294
15413TIP3    H267731   6.589   5.686   2.748  2.3976 -0.2309  2.9013
15414TIP3   OH267732   6.268   2.307   4.636 -0.0435 -0.2579  0.1612
15414TIP3    H167733   6.265   2.212   4.638  1.0479 -0.3183 -0.4149
15414TIP3    H267734   6.253   2.334   4.727 -2.6638 -0.8710 -0.0288
15415TIP3   OH267735   4.936   4.353   1.834 -0.3363  0.5137  0.2781
15415TIP3    H167736   4.923   4.441   1.870 -0.6561  0.5981 -0.0333
15415TIP3    H267737   4.910   4.294   1.905  1.3603  0.6414  1.0444
15416TIP3   OH267738   1.105   3.916   4.778 -0.1615  0.3517  0.0860
15416TIP3    H167739   1.145   4.002   4.788  2.1246 -0.8387  2.2781
15416TIP3    H267740   1.042   3.910   4.850 -3.2574  1.5187 -2.2986
15417TIP3   OH267741   0.398   0.020  16.733  0.0260  0.1853 -0.5244
15417TIP3    H167742   0.413  -0.051  16.670  1.6426  0.8158 -0.9023
15417TIP3    H267743   0.432   0.098  16.689 -0.3754  0.9401  0.4786
15418TIP3   OH267744   4.640   1.742  14.111  0.1138  0.2871  0.4397
15418TIP3    H167745   4.681   1.761  14.196  0.4938 -1.0125  0.5590
15418TIP3    H267746   4.609   1.652  14.119  0.0348  0.1978 -0.7603
15419TIP3   OH267747   1.276   5.435   1.250 -0.8344  0.1974  0.1351
15419TIP3    H167748   1.265   5.411   1.158  1.6409 -1.1681  0.1100
15419TIP3    H267749   1.194   5.409   1.291 -2.1502  1.1974 -1.7090
15420TIP3   OH267750   6.710   3.916  16.521 -0.0838  0.2177 -0.2057
15420TIP3    H167751   6.758   3.836  16.541  0.3769  0.2605 -1.1095
15420TIP3    H267752   6.777   3.978  16.493 -0.3797  1.0861  0.9490
15421TIP3   OH267753   4.714   2.909   0.978  0.1977  0.5199  0.4159
15421TIP3    H167754   4.807   2.884   0.984  0.1884  0.6752  1.3336
15421TIP3    H267755   4.716   3.003   0.966  0.1806  0.3694 -0.8457
15422TIP3   OH267756   4.149   1.309   4.233  0.3159  0.3358 -0.0383
15422TIP3    H167757   4.179   1.230   4.188  2.3888  1.7515 -1.3638
15422TIP3    H267758   4.200   1.311   4.314 -1.2902 -0.7151  1.0464
15423TIP3   OH267759   5.821   2.287   1.405  0.3436 -0.7953 -0.1690
15423TIP3    H167760   5.802   2.194   1.391  0.5614 -0.8101 -0.3753
15423TIP3    H267761   5.832   2.323   1.317  1.5506 -0.8533 -0.0685
15424TIP3   OH267762   3.492   0.968   6.753 -0.0966  0.1649 -0.0962
15424TIP3    H167763   3.501   0.873   6.766  1.2134  0.2702 -0.0936
15424TIP3    H267764   3.581   1.002   6.761 -0.3416  1.2403 -1.4826
15425TIP3   OH267765   4.644   4.725   4.349 -0.1525 -0.1740 -0.2057
15425TIP3    H167766   4.583   4.729   4.275 -0.6720 -1.0185  0.1528
15425TIP3    H267767   4.629   4.638   4.387  0.8020 -0.1302  0.3029
15426TIP3   OH267768   3.750   6.274   3.947  0.8221 -0.2512  0.0599
15426TIP3    H167769   3.759   6.368   3.932 -0.4609  0.1743  1.7139
15426TIP3    H267770   3.662   6.263   3.981  0.6102 -2.2038 -0.9835
15427TIP3   OH267771   1.587   6.738   0.369 -0.0877  0.4056  0.5632
15427TIP3    H167772   1.505   6.778   0.339  0.1693  0.6544  0.1819
15427TIP3    H267773   1.579   6.736   0.464 -0.2157  1.1520  0.5791
15428TIP3   OH267774   3.527   1.677   0.450 -0.0469  0.4494  0.3731
15428TIP3    H167775   3.474   1.627   0.513  0.0555 -0.7511 -0.4453
15428TIP3    H267776   3.554   1.755   0.497 -2.4794  1.0916  0.8733
15429TIP3   OH267777   1.282   2.210  15.019 -0.3756  0.1445 -0.7307
15429TIP3    H167778   1.265   2.230  14.927  0.7802 -1.2474 -1.2747
15429TIP3    H267779   1.244   2.123  15.032  0.0821  0.0377 -0.0729
15430TIP3   OH267780   4.574   5.531  12.430 -0.0497 -0.1435  0.3119
15430TIP3    H167781   4.639   5.551  12.363 -1.0978 -0.3959 -0.8358
15430TIP3    H267782   4.510   5.602  12.422 -0.8421 -0.8606  0.1541
15431TIP3   OH267783   5.920   5.766   4.537  0.4434  0.3648 -0.1370
15431TIP3    H167784   5.927   5.671   4.525  2.6589  0.5692 -0.9212
15431TIP3    H267785   5.877   5.798   4.458  0.7694  0.1299 -0.4101
15432TIP3   OH267786   5.357   5.247   4.845  0.1312  0.3155 -0.3699
15432TIP3    H167787   5.418   5.313   4.879 -0.3711  0.6640 -0.1413
15432TIP3    H267788   5.292   5.236   4.914  1.4048 -2.0594  0.5866
15433TIP3   OH267789   3.214   2.655   0.164 -0.8076  0.5369  0.3237
15433TIP3    H167790   3.306   2.680   0.170 -0.7942  0.7602 -0.6559
15433TIP3    H267791   3.189   2.677   0.074 -1.6240 -0.1838  0.3631
15434TIP3   OH267792   0.566   3.051   1.348 -0.4833 -0.0481 -0.0284
15434TIP3    H167793   0.474   3.079   1.351 -0.5522  0.1911 -2.3770
15434TIP3    H267794   0.606   3.109   1.283  1.0904 -0.7953  0.2450
15435TIP3   OH267795   3.122   1.918   2.936 -0.0960  0.4404  0.5288
15435TIP3    H167796   3.145   1.942   3.026  1.9489  1.5243 -0.2213
15435TIP3    H267797   3.184   1.849   2.912 -1.3219 -0.6220  0.2575
15436TIP3   OH267798   4.258   2.946   0.932 -0.1606  0.3816 -0.0669
15436TIP3    H167799   4.178   2.915   0.889  0.0857  0.5802 -0.6812
15436TIP3    H267800   4.319   2.872   0.925  0.0600  0.6023 -0.5538
15437TIP3   OH267801   6.038   2.944  16.131 -0.4578 -0.1763  0.2191
15437TIP3    H167802   6.109   2.880  16.134 -0.4489 -0.1944 -0.2055
15437TIP3    H267803   6.077   3.026  16.161 -1.3182 -1.0651  4.3973
15438TIP3   OH267804   5.731   1.542  16.369 -0.2754 -0.0504 -0.4386
15438TIP3    H167805   5.644   1.506  16.386 -0.9355  1.3010 -0.8958
15438TIP3    H267806   5.752   1.592  16.448  0.5628 -1.2240  0.1133
15439TIP3   OH267807   2.528   2.125   2.822 -0.1420 -0.4421 -0.4370
15439TIP3    H167808   2.473   2.051   2.848 -1.2055  1.1185  2.1549
15439TIP3    H267809   2.583   2.141   2.899  1.3129  0.3566 -1.6187
15440TIP3   OH267810   0.344   1.537   5.585  0.4694  0.6186 -0.4113
15440TIP3    H167811   0.420   1.568   5.536  0.9486  1.0852  0.5800
15440TIP3    H267812   0.271   1.541   5.523  1.1375  0.7606 -1.1976
15441TIP3   OH267813   5.627   0.334   2.061  0.1928  0.1390  0.1678
15441TIP3    H167814   5.658   0.266   2.121 -0.0782 -0.0826  0.0590
15441TIP3    H267815   5.531   0.328   2.065  0.1635  0.5550  0.2029
15442TIP3   OH267816   0.890   1.266  10.632 -0.5667 -0.1357  0.3815
15442TIP3    H167817   0.821   1.308  10.683  0.9104  0.1133  2.3416
15442TIP3    H267818   0.951   1.337  10.610 -1.1126 -0.2590 -1.7439
15443TIP3   OH267819   0.123   5.149   5.688  0.8048 -0.9781  0.1975
15443TIP3    H167820   0.183   5.160   5.761  0.5675 -0.5196  0.3258
15443TIP3    H267821   0.069   5.074   5.712 -0.8143  0.5380  1.5753
15444TIP3   OH267822   2.741   5.840  14.632 -0.5898  0.2771 -0.7146
15444TIP3    H167823   2.833   5.863  14.634 -0.5819  0.2628 -0.8626
15444TIP3    H267824   2.740   5.744  14.629 -0.6378  0.2066  0.8310
15445TIP3   OH267825   5.017   4.527  12.152 -0.2350 -0.2541  0.3102
15445TIP3    H167826   4.978   4.469  12.087 -0.0515  2.2494 -2.2055
15445TIP3    H267827   5.101   4.487  12.173 -1.0352 -1.9907  0.3724
15446TIP3   OH267828   4.035   1.270   6.072 -0.4003  0.2145 -0.2909
15446TIP3    H167829   4.010   1.350   6.026 -0.6428 -0.7374 -1.9261
15446TIP3    H267830   3.952   1.228   6.095 -0.2968 -0.0758 -0.4291
15447TIP3   OH267831   0.869   1.546   2.772 -0.3306  0.7906 -0.2718
15447TIP3    H167832   0.851   1.584   2.686 -1.7993 -0.3384 -0.4976
15447TIP3    H267833   0.963   1.559   2.785 -0.0519  0.8313 -2.1230
15448TIP3   OH267834   5.764   5.556   3.854  0.0780 -0.0737  0.2032
15448TIP3    H167835   5.735   5.605   3.931 -0.4490 -1.0668  0.6651
15448TIP3    H267836   5.855   5.583   3.841 -0.2405  1.1292  0.3353
15449TIP3   OH267837   1.939   2.321   3.243 -0.0645 -0.1081  0.0982
15449TIP3    H167838   1.925   2.330   3.148  2.5448 -0.1053 -0.3642
15449TIP3    H267839   1.986   2.401   3.267  0.4338 -0.6980  1.1336
15450TIP3   OH267840   3.820   3.265  12.160 -0.2043  0.2965 -0.0226
15450TIP3    H167841   3.766   3.296  12.087 -0.3819  0.2716  0.0998
15450TIP3    H267842   3.800   3.172  12.167 -0.3014  0.3309  0.1569
15451TIP3   OH267843   3.403   5.059  11.588  0.2091 -0.5665 -0.1206
15451TIP3    H167844   3.455   4.981  11.568 -1.5336 -1.6293 -0.7675
15451TIP3    H267845   3.321   5.024  11.623  0.0975  1.0620  1.3638
15452TIP3   OH267846   4.476   1.453   6.613  0.2002  0.2710  0.8120
15452TIP3    H167847   4.390   1.444   6.570  0.8352 -0.4221 -0.3541
15452TIP3    H267848   4.481   1.546   6.635 -0.9283  0.2921  1.0802
15453TIP3   OH267849   1.351   2.860   5.650 -0.0600  0.0762  0.1136
15453TIP3    H167850   1.291   2.885   5.720 -1.9602 -1.0159 -1.0238
15453TIP3    H267851   1.428   2.826   5.695 -0.9110  0.1163  1.6621
15454TIP3   OH267852   2.098   1.031   0.856  0.2146 -0.6383 -0.3155
15454TIP3    H167853   2.062   1.112   0.894 -0.6259 -0.3252 -1.7021
15454TIP3    H267854   2.089   0.966   0.926  1.1660  0.5093  0.9262
15455TIP3   OH267855   0.849   4.590   1.369 -0.0448 -0.0660  0.1150
15455TIP3    H167856   0.890   4.513   1.328  0.7837  0.2433  0.3490
15455TIP3    H267857   0.907   4.663   1.346 -0.1649  0.2851  0.9203
15456TIP3   OH267858   4.871   0.411   1.829  0.5602 -0.5462 -0.0677
15456TIP3    H167859   4.895   0.487   1.777 -1.4180 -1.1549 -2.0057
15456TIP3    H267860   4.809   0.445   1.894  0.8475 -0.2686  0.0636
15457TIP3   OH267861   5.822   2.160  13.765  0.1961 -0.1630  0.2737
15457TIP3    H167862   5.843   2.080  13.718  0.4662  0.7686 -1.2744
15457TIP3    H267863   5.907   2.196  13.792  0.1803  0.3258 -0.3100
15458TIP3   OH267864   2.039   6.516   0.513  0.3073 -0.0582 -0.0085
15458TIP3    H167865   2.120   6.489   0.471 -0.4364 -0.6835 -1.1125
15458TIP3    H267866   2.032   6.462   0.591  1.5880  0.9335  0.8293
15459TIP3   OH267867   2.669   1.434   6.786  0.8053 -0.2410  0.2204
15459TIP3    H167868   2.589   1.448   6.836  1.4487  3.2226  0.5040
15459TIP3    H267869   2.639   1.402   6.701 -1.0386  1.8428  0.0009
15460TIP3   OH267870   3.740   4.753   5.519 -0.0102 -0.4132 -0.3970
15460TIP3    H167871   3.730   4.813   5.593 -2.0868 -0.6496 -0.4260
15460TIP3    H267872   3.669   4.689   5.530  0.8660 -1.6269 -1.5135
15461TIP3   OH267873   3.286   4.801  12.957  0.0883  0.1735  0.4183
15461TIP3    H167874   3.215   4.846  13.004  0.4944 -1.5093  2.8262
15461TIP3    H267875   3.254   4.795  12.867 -2.9150 -0.5471  1.3925
15462TIP3   OH267876   2.095   5.462   3.089 -0.7504 -0.3186  0.7467
15462TIP3    H167877   2.025   5.434   3.031  1.3178 -1.0500 -1.5971
15462TIP3    H267878   2.078   5.415   3.171 -2.6652 -0.8779  0.0809
15463TIP3   OH267879   6.764   1.642  14.432  0.0313 -0.4767  0.1827
15463TIP3    H167880   6.782   1.638  14.526 -0.5338 -3.0248  0.2433
15463TIP3    H267881   6.670   1.630  14.425 -0.1338  1.0928 -0.6770
15464TIP3   OH267882   1.974   0.788  12.712  0.8048  0.1734  0.2022
15464TIP3    H167883   1.921   0.732  12.770  2.3963 -2.3461 -0.6338
15464TIP3    H267884   1.974   0.873  12.756  1.8832 -1.5424  3.9810
15465TIP3   OH267885   1.148   3.990   3.989  0.0094 -0.5533 -0.4006
15465TIP3    H167886   1.221   4.052   3.989  0.6332 -1.2205  1.3103
15465TIP3    H267887   1.188   3.907   4.013 -1.1041 -1.2494 -0.8915
15466TIP3   OH267888   5.424   1.172   6.344 -0.1325 -0.1321 -0.3858
15466TIP3    H167889   5.375   1.243   6.386 -1.5571 -2.1429  1.6098
15466TIP3    H267890   5.496   1.153   6.403  0.6270  0.0617 -1.2325
15467TIP3   OH267891   0.203   1.587   0.203  0.0855 -0.2837  0.4488
15467TIP3    H167892   0.285   1.635   0.210  0.3706 -0.6962 -0.0155
15467TIP3    H267893   0.228   1.495   0.218  0.1137 -0.7391 -2.0668
15468TIP3   OH267894   1.173   3.704  15.951  0.2248 -0.2342  0.5662
15468TIP3    H167895   1.215   3.775  15.902  2.7303 -2.6799 -1.1133
15468TIP3    H267896   1.103   3.673  15.894  0.5532 -0.5082  0.3090
15469TIP3   OH267897   0.471   1.588  17.334 -0.0016  0.0364  0.5856
15469TIP3    H167898   0.537   1.595  17.403 -0.9373  0.5954  1.4463
15469TIP3    H267899   0.408   1.524  17.367  0.5660 -1.2200 -0.6454
15470TIP3   OH267900   4.498   6.723   0.121  0.6002  0.5747  0.0015
15470TIP3    H167901   4.495   6.804   0.171 -3.7885  1.3314 -1.1245
15470TIP3    H267902   4.441   6.663   0.170  0.4207 -0.4009 -1.3537
15471TIP3   OH267903   4.818   4.779  14.501  0.7790 -0.1872 -0.3305
15471TIP3    H167904   4.852   4.690  14.511  1.1434  0.0613  0.8142
15471TIP3    H267905   4.723   4.769  14.508  0.7751 -0.5544 -0.8339
15472TIP3   OH267906   5.409   5.623   2.365  0.8282  0.2753  0.1793
15472TIP3    H167907   5.500   5.598   2.352  0.6179  0.1466 -1.1736
15472TIP3    H267908   5.359   5.556   2.318  0.1076  1.2266 -0.4317
15473TIP3   OH267909   5.641   4.637  16.380  0.3589 -0.3685  0.0902
15473TIP3    H167910   5.614   4.582  16.453  3.1781 -0.4409  1.2036
15473TIP3    H267911   5.685   4.712  16.421  1.3099 -0.0153 -1.4878
15474TIP3   OH267912   3.071   5.261  12.871  0.0539 -0.1079 -0.3020
15474TIP3    H167913   3.080   5.334  12.932  1.0186 -0.6615  0.2293
15474TIP3    H267914   2.988   5.220  12.895  0.9273 -0.9879  1.4014
15475TIP3   OH267915   0.582   3.272   1.630 -0.3714  0.3545 -0.7220
15475TIP3    H167916   0.624   3.190   1.656  1.3314  0.9619 -1.4654
15475TIP3    H267917   0.604   3.282   1.538 -0.0564  1.9406 -0.4976
15476TIP3   OH267918   0.244   3.209   5.211  0.1473  0.1792 -0.4011
15476TIP3    H167919   0.206   3.126   5.184 -0.3907  0.1676  0.3731
15476TIP3    H267920   0.237   3.265   5.133  1.1999 -0.7088 -1.1690
15477TIP3   OH267921   2.639   1.005  12.504 -0.2781 -0.1214 -0.1963
15477TIP3    H167922   2.640   1.075  12.440  0.6679 -0.2825 -0.3707
15477TIP3    H267923   2.729   1.001  12.537 -0.3497 -1.1443 -0.0838
15478TIP3   OH267924   2.111   4.556  13.246 -0.4417 -0.2785  0.0513
15478TIP3    H167925   2.151   4.622  13.302 -1.7504  1.1193 -0.5973
15478TIP3    H267926   2.074   4.492  13.308 -1.9190  1.2620  0.8529
15479TIP3   OH267927   4.546   2.100   3.214  0.1593 -0.3167 -0.0587
15479TIP3    H167928   4.584   2.184   3.240 -0.1338  0.1172 -0.9944
15479TIP3    H267929   4.619   2.051   3.175 -0.2891  0.6986 -2.2873
15480TIP3   OH267930   1.905   1.919   4.943  0.0548  0.2681 -0.1701
15480TIP3    H167931   1.919   1.842   4.888 -0.8985 -0.0868  0.0577
15480TIP3    H267932   1.810   1.922   4.957  0.1626  1.0019  0.5187
15481TIP3   OH267933   6.206   0.400  13.530 -0.2881 -0.4088 -0.4456
15481TIP3    H167934   6.243   0.361  13.609 -3.4988 -0.8712  0.9843
15481TIP3    H267935   6.161   0.327  13.487 -1.7688  0.5988 -0.6539
15482TIP3   OH267936   3.492   1.784  17.142  0.3918  0.3021  0.2192
15482TIP3    H167937   3.446   1.861  17.176 -1.6523 -0.3980 -0.7967
15482TIP3    H267938   3.561   1.820  17.087  1.9444  1.4094  2.7066
15483TIP3   OH267939   1.747   3.604  11.171  0.5163  0.3055  0.4347
15483TIP3    H167940   1.677   3.545  11.144  1.5894 -0.2441 -1.3478
15483TIP3    H267941   1.792   3.626  11.089  3.3788 -0.6268  1.6424
15484TIP3   OH267942   1.404   6.308   3.455 -0.2457  0.4467 -0.0000
15484TIP3    H167943   1.426   6.298   3.548  2.1473 -1.5386 -0.6599
15484TIP3    H267944   1.464   6.376   3.424  0.0088  0.0492 -0.3855
15485TIP3   OH267945   5.508   4.631   1.021 -0.0171  0.2883  0.4826
15485TIP3    H167946   5.499   4.542   0.987 -0.0247  0.3670  0.2746
15485TIP3    H267947   5.598   4.635   1.052 -0.0623  0.1604  0.6309
15486TIP3   OH267948   0.119   1.781   4.258  0.1904  0.5017 -0.0731
15486TIP3    H167949   0.044   1.836   4.232  0.6544  1.1856  0.0027
15486TIP3    H267950   0.179   1.787   4.184  0.6544  0.8618  0.3244
15487TIP3   OH267951   0.151   3.688  12.509  0.1565  0.0112 -0.1869
15487TIP3    H167952   0.120   3.778  12.513  0.1697  0.0049  0.0754
15487TIP3    H267953   0.217   3.682  12.578  1.4192  0.2800 -1.3171
15488TIP3   OH267954   6.766   4.949  15.442  0.4402 -0.3940 -0.1462
15488TIP3    H167955   6.775   4.982  15.531 -1.5409  1.2974 -0.5041
15488TIP3    H267956   6.839   4.989  15.394 -0.6398  1.8224 -0.0670
15489TIP3   OH267957   3.486   3.885   0.842 -0.1268  0.1374 -0.2146
15489TIP3    H167958   3.497   3.974   0.875  0.1993  0.5908 -1.5094
15489TIP3    H267959   3.448   3.896   0.754  0.6351 -0.9628 -0.7057
15490TIP3   OH267960   5.277   0.498  11.216  0.4883 -0.0293  0.3521
15490TIP3    H167961   5.317   0.434  11.157  0.6129  1.0082 -0.7224
15490TIP3    H267962   5.325   0.579  11.201 -0.1440  0.5168  1.1445
15491TIP3   OH267963   4.009   3.477   6.001 -0.1828 -0.1228  0.1940
15491TIP3    H167964   4.082   3.489   6.062 -0.8137 -1.6911  1.3509
15491TIP3    H267965   3.944   3.428   6.052 -1.3911 -0.1178 -1.2840
15492TIP3   OH267966   1.336   5.960   5.889  0.1962  0.2301  0.5240
15492TIP3    H167967   1.352   5.874   5.928  1.8026  0.7140  1.0300
15492TIP3    H267968   1.245   5.981   5.911 -0.4511 -1.6328 -0.2266
15493TIP3   OH267969   2.656   3.712   5.076 -0.4098  0.8136  0.0207
15493TIP3    H167970   2.680   3.647   5.010 -0.3719  1.5378 -0.6865
15493TIP3    H267971   2.585   3.761   5.037 -2.1999 -0.4223  1.5651
15494TIP3   OH267972   3.538   3.018   2.172  0.5782 -0.3040  0.0353
15494TIP3    H167973   3.523   3.113   2.178  0.3670 -0.3064 -0.3816
15494TIP3    H267974   3.627   3.010   2.139  1.2097 -0.2777  1.6414
15495TIP3   OH267975   2.943   4.027  15.371  0.3669  0.0104  0.0899
15495TIP3    H167976   2.911   4.077  15.296 -2.0356  1.7266  2.0989
15495TIP3    H267977   2.865   3.986  15.408  1.0435  0.9109  2.7876
15496TIP3   OH267978   1.342   2.564  14.649  0.3101 -0.0941 -0.1036
15496TIP3    H167979   1.324   2.605  14.565  1.8902  0.5082 -0.1772
15496TIP3    H267980   1.408   2.620  14.690  0.2008 -0.8504  1.1623
15497TIP3   OH267981   5.983   0.924   0.931  0.5549 -0.0867 -0.0148
15497TIP3    H167982   6.030   0.913   1.013 -1.4336  1.1080  1.3728
15497TIP3    H267983   6.034   0.988   0.882  1.4714 -0.3892  0.5183
15498TIP3   OH267984   2.901   3.878   1.992  0.3109  0.1227  0.5217
15498TIP3    H167985   2.903   3.913   1.903  1.8490 -1.0664  0.0379
15498TIP3    H267986   2.812   3.845   2.003 -0.6015  2.2984  0.2991
15499TIP3   OH267987   2.873   1.825  14.961 -0.0724  0.4349  0.2456
15499TIP3    H167988   2.780   1.847  14.953 -0.4881 -1.0953  0.5857
15499TIP3    H267989   2.880   1.736  14.925  1.4222  0.8378 -0.5442
15500TIP3   OH267990   1.599   2.296   6.194 -0.1554  0.5004  0.3342
15500TIP3    H167991   1.631   2.367   6.138  1.3422  0.2748  0.8571
15500TIP3    H267992   1.673   2.276   6.251 -0.3922 -1.7494 -0.0701
15501TIP3   OH267993   3.237   2.925   4.945 -0.3353 -0.3049  0.0042
15501TIP3    H167994   3.215   2.887   5.030  0.7214 -1.2450 -0.1144
15501TIP3    H267995   3.202   2.863   4.881  0.9883 -0.8768 -0.1988
15502TIP3   OH267996   4.703   3.025  10.541  0.8361 -0.7236  0.2094
15502TIP3    H167997   4.795   3.001  10.529  1.1744  1.5069 -2.8203
15502TIP3    H267998   4.706   3.113  10.580  0.0630 -0.3347 -0.5629
15503TIP3   OH267999   1.702   3.159   4.374  0.0885  0.1803  0.4972
15503TIP3    H168000   1.747   3.220   4.315 -0.1902  0.3118  0.4153
15503TIP3    H268001   1.655   3.216   4.435  1.1144  0.0545  1.4367
15504TIP3   OH268002   5.369   6.264   6.019  0.0542  0.0690 -0.0855
15504TIP3    H168003   5.453   6.221   6.037 -0.1702 -0.4060 -0.1484
15504TIP3    H268004   5.385   6.356   6.036  0.1392 -0.2163  1.5788
15505TIP3   OH268005   2.728   2.786   3.348 -0.2792  0.5717  0.3684
15505TIP3    H168006   2.778   2.857   3.308 -0.1176  0.1240 -0.2423
15505TIP3    H268007   2.790   2.714   3.357 -1.2594 -0.7781 -2.4687
15506TIP3   OH268008   6.445   4.491   4.117  0.1393  0.5174  0.0117
15506TIP3    H168009   6.440   4.422   4.183  2.1081  2.2610  2.1414
15506TIP3    H268010   6.500   4.454   4.048  0.5637 -0.2897  0.7646
15507TIP3   OH268011   1.456   0.647  16.613 -0.1837  0.0550  0.1708
15507TIP3    H168012   1.449   0.740  16.592 -1.6695 -0.2316 -0.8050
15507TIP3    H268013   1.537   0.619  16.570 -0.1582  0.7209 -0.2430
15508TIP3   OH268014   3.268   6.412  15.002 -0.3256 -0.5745 -0.4769
15508TIP3    H168015   3.326   6.471  15.050 -0.2993 -1.5651  0.7833
15508TIP3    H268016   3.317   6.390  14.923  2.2686 -3.2852  1.6064
15509TIP3   OH268017   6.148   2.831   1.839 -0.5312  0.2179 -0.1183
15509TIP3    H168018   6.188   2.745   1.856  0.3471  0.9432  1.7557
15509TIP3    H268019   6.216   2.881   1.794 -0.8561  0.1114 -0.7356
15510TIP3   OH268020   6.012   5.445  15.072  0.3135 -0.3770 -0.3034
15510TIP3    H168021   6.063   5.475  15.147  0.2830 -2.3870  0.5820
15510TIP3    H268022   5.933   5.407  15.111  0.2078 -1.2626 -1.3341
15511TIP3   OH268023   6.096   2.428  16.383 -0.4058 -0.3356 -0.7136
15511TIP3    H168024   6.023   2.485  16.359  0.5650  2.8267  2.7382
15511TIP3    H268025   6.056   2.356  16.431 -1.4259  0.2659 -0.6334
15512TIP3   OH268026   6.655   5.226   3.847 -0.5388  0.2285 -0.5938
15512TIP3    H168027   6.650   5.241   3.752 -1.0206  1.1276 -0.4372
15512TIP3    H268028   6.593   5.289   3.884 -0.1941  0.0273  0.3352
15513TIP3   OH268029   1.128   3.098   3.697 -0.2660  0.0059 -0.1424
15513TIP3    H168030   1.167   3.169   3.748  0.9484 -1.0064  0.4020
15513TIP3    H268031   1.181   3.094   3.617 -0.1304 -0.4732 -0.0330
15514TIP3   OH268032   0.649   4.347  12.086  0.1334 -0.1280  0.0905
15514TIP3    H168033   0.610   4.297  12.014 -0.0587 -0.1955  0.2398
15514TIP3    H268034   0.652   4.437  12.054  1.0651 -0.3362 -0.4268
15515TIP3   OH268035   6.534   0.265  16.950  0.3412  0.2319 -0.0330
15515TIP3    H168036   6.554   0.172  16.945 -1.6651 -0.2435  0.0267
15515TIP3    H268037   6.444   0.272  16.919  0.8007  2.3094 -1.0721
15516TIP3   OH268038   2.052   5.873   0.526 -0.0793 -0.1010 -0.1886
15516TIP3    H168039   2.014   5.905   0.444 -0.6311 -0.7272 -0.1887
15516TIP3    H268040   2.129   5.928   0.540  0.5451 -0.5684 -1.5956
15517TIP3   OH268041   6.750   6.339   2.137 -0.0881  0.0002  0.6242
15517TIP3    H168042   6.774   6.251   2.109  0.6375  0.2897  0.3314
15517TIP3    H268043   6.820   6.367   2.195  0.1705  0.7459 -0.0250
15518TIP3   OH268044   2.483   6.678   3.206 -0.3515 -0.2840 -0.2614
15518TIP3    H168045   2.422   6.697   3.134 -1.1580  0.1028  0.4985
15518TIP3    H268046   2.442   6.606   3.254  1.2038 -1.9801 -1.3578
15519TIP3   OH268047   6.414   3.364  11.155  0.2631  0.0175 -0.1975
15519TIP3    H168048   6.462   3.323  11.227  1.6324  0.7773 -0.6271
15519TIP3    H268049   6.446   3.454  11.153  1.1167 -0.2592 -2.4187
15520TIP3   OH268050   5.824   3.060   5.670  0.4403 -0.1932  0.4555
15520TIP3    H168051   5.749   3.005   5.646  0.2002  0.5098 -0.4874
15520TIP3    H268052   5.801   3.147   5.637  1.1619  0.2982  1.2154
15521TIP3   OH268053   3.897   0.269   5.797  0.3422 -0.0593  0.1114
15521TIP3    H168054   3.808   0.288   5.826  1.3092  2.0343  2.0032
15521TIP3    H268055   3.933   0.210   5.863  0.1828 -1.5280 -1.0512
15522TIP3   OH268056   1.995   6.501  13.139 -0.1954  0.1564  0.3785
15522TIP3    H168057   1.987   6.430  13.075 -2.6220  0.5051  0.1842
15522TIP3    H268058   1.987   6.581  13.088  0.7266  0.5351  0.8111
15523TIP3   OH268059   3.571   3.008  15.343  0.1321 -0.0420  0.4792
15523TIP3    H168060   3.619   3.055  15.410  0.4226 -1.2372  1.1465
15523TIP3    H268061   3.501   3.068  15.316  0.1060  0.5162  1.7288
15524TIP3   OH268062   6.593   6.082   5.569 -0.0930 -0.2047  0.2535
15524TIP3    H168063   6.606   6.066   5.662 -1.8714 -2.6207  0.1812
15524TIP3    H268064   6.590   6.177   5.561  1.0764  0.0905  2.4806
15525TIP3   OH268065   1.178   5.562   0.119  0.1012 -0.2206 -0.0118
15525TIP3    H168066   1.168   5.637   0.059 -1.3897  1.0403  1.7108
15525TIP3    H268067   1.111   5.500   0.091  0.2515 -0.1998 -0.4263
15526TIP3   OH268068   3.632   5.380   3.494  0.0326  0.4791 -0.7367
15526TIP3    H168069   3.626   5.435   3.416  0.3263 -0.2949 -1.3131
15526TIP3    H268070   3.674   5.436   3.560  4.7751 -0.3905 -2.6407
15527TIP3   OH268071   5.595   5.986  15.023 -0.3507 -0.1042 -0.0826
15527TIP3    H168072   5.675   5.963  14.976  0.2048  0.5804  0.5088
15527TIP3    H268073   5.575   6.075  14.993  0.1599  0.4453  1.1527
15528TIP3   OH268074   0.866   4.718  15.314  0.1570 -0.1802 -0.1799
15528TIP3    H168075   0.892   4.627  15.327  0.2227 -0.4080 -1.7273
15528TIP3    H268076   0.812   4.716  15.235 -0.0534  1.0895 -0.0853
15529TIP3   OH268077   4.682   3.391   4.479  0.0847 -0.0036 -0.2583
15529TIP3    H168078   4.767   3.434   4.475 -0.4051  1.0116 -0.1359
15529TIP3    H268079   4.702   3.298   4.486  1.1788  0.2205 -0.2900
15530TIP3   OH268080   0.357   4.091  12.927 -0.2118 -0.1237  0.3886
15530TIP3    H168081   0.331   4.136  13.007  0.7379  0.2873  0.4854
15530TIP3    H268082   0.443   4.053  12.947  0.8388  1.3918 -0.9181
15531TIP3   OH268083   4.199   1.802  14.405 -0.4392  0.4147  0.0823
15531TIP3    H168084   4.282   1.813  14.359  0.0764 -0.6148  0.7411
15531TIP3    H268085   4.153   1.885  14.389  1.0929  1.3988  0.4817
15532TIP3   OH268086   5.788   0.158   0.442 -0.4010  0.5783  0.1733
15532TIP3    H168087   5.744   0.072   0.439 -0.8111  0.7869  0.0794
15532TIP3    H268088   5.811   0.176   0.351  0.3730  0.2233  0.2930
15533TIP3   OH268089   0.701   0.132  14.473 -0.1995  0.1016 -0.9891
15533TIP3    H168090   0.772   0.193  14.487  1.1616 -1.3942 -1.0346
15533TIP3    H268091   0.635   0.156  14.538  0.9151  0.6916 -0.0360
15534TIP3   OH268092   3.513   4.381   4.148 -0.1160 -0.5972 -0.0944
15534TIP3    H168093   3.543   4.381   4.239 -1.6302  0.1981  0.4329
15534TIP3    H268094   3.492   4.472   4.129 -2.1690 -1.0872 -0.4038
15535TIP3   OH268095   5.177   2.813  10.389 -0.6242 -0.0106  0.0139
15535TIP3    H168096   5.235   2.852  10.454 -2.5621  0.3655  1.6216
15535TIP3    H268097   5.235   2.763  10.331  1.2447  0.1812  1.6319
15536TIP3   OH268098   4.906   4.122   5.843 -0.3412 -0.2654  0.2196
15536TIP3    H168099   4.919   4.136   5.749 -1.8630 -0.1110 -0.0036
15536TIP3    H268100   4.839   4.053   5.848 -1.0191  0.4228  1.1476
15537TIP3   OH268101   2.796   0.953  11.664  0.0840 -0.2181 -0.5764
15537TIP3    H168102   2.820   1.041  11.691 -1.8042  0.4615 -0.9337
15537TIP3    H268103   2.706   0.943  11.695 -0.4953 -1.1938 -2.4189
15538TIP3   OH268104   0.448   5.329   3.117  0.6561  0.7554 -0.4356
15538TIP3    H168105   0.498   5.255   3.083 -2.1445 -0.4954 -2.2619
15538TIP3    H268106   0.423   5.303   3.206  1.2045  0.3252 -0.4076
15539TIP3   OH268107   5.157   4.228  12.460  0.3943 -0.0537 -0.2071
15539TIP3    H168108   5.109   4.146  12.470 -0.6157  0.4727 -0.6239
15539TIP3    H268109   5.122   4.285  12.529  2.8268 -0.7307  1.7282
15540TIP3   OH268110   3.239   6.470   0.991  0.6583 -0.6543  0.4500
15540TIP3    H168111   3.161   6.415   0.978  0.9311 -1.5339  2.2240
15540TIP3    H268112   3.284   6.469   0.907 -0.5712 -1.2145 -0.2239
15541TIP3   OH268113   6.173   5.110  12.836  0.6191  0.1165  0.6957
15541TIP3    H168114   6.265   5.106  12.862  1.0122  1.5610 -0.3235
15541TIP3    H268115   6.145   5.019  12.834  2.4755 -0.5020 -0.4220
15542TIP3   OH268116   1.896   5.346   5.257  0.3656 -0.6363 -0.0791
15542TIP3    H168117   1.949   5.323   5.181  1.1420  1.1307 -0.1349
15542TIP3    H268118   1.875   5.262   5.299 -0.5311 -1.7105 -2.4816
15543TIP3   OH268119   5.803   1.952   4.166  0.2123 -0.1713  0.3235
15543TIP3    H168120   5.726   1.972   4.219  0.1955  0.1753  0.1716
15543TIP3    H268121   5.834   1.868   4.200  0.5011  0.2891  1.2444
15544TIP3   OH268122   4.498   6.491  13.475  0.3643 -0.4674 -0.2406
15544TIP3    H168123   4.472   6.420  13.416  1.8125 -1.1709 -0.0548
15544TIP3    H268124   4.452   6.473  13.557 -1.0789  0.1126 -0.8709
15545TIP3   OH268125   6.391   2.320   3.280 -0.3290 -0.2848  0.1626
15545TIP3    H168126   6.416   2.343   3.370  0.5510  0.3202 -0.2201
15545TIP3    H268127   6.371   2.227   3.284 -3.4082  0.2775  1.6450
15546TIP3   OH268128   2.826   4.786   2.149 -0.5011  0.2526 -0.0042
15546TIP3    H168129   2.772   4.738   2.086 -1.2017  1.7218 -0.6010
15546TIP3    H268130   2.787   4.768   2.234 -0.8340 -0.1299 -0.2362
15547TIP3   OH268131   1.317   4.671  13.053  0.1880 -0.2189  0.1437
15547TIP3    H168132   1.342   4.754  13.013 -0.8038  0.7144  1.3964
15547TIP3    H268133   1.380   4.608  13.017 -0.4308  0.5879 -2.5738
15548TIP3   OH268134   2.057   1.233   0.491 -0.1171 -0.1779  0.4701
15548TIP3    H168135   2.093   1.322   0.482 -1.3025  0.2393 -0.4996
15548TIP3    H268136   2.009   1.219   0.409  0.6660 -2.0255  0.2944
15549TIP3   OH268137   6.555   6.502  12.303  0.1598  0.0039 -0.1023
15549TIP3    H168138   6.611   6.424  12.304  0.2300  0.0487 -0.3476
15549TIP3    H268139   6.613   6.572  12.274 -0.0137  0.0567 -0.3305
15550TIP3   OH268140   0.905   5.786  12.570 -0.2298  0.0747  0.0006
15550TIP3    H168141   0.865   5.700  12.586 -0.2208  0.0392 -0.1619
15550TIP3    H268142   0.884   5.838  12.648 -0.2713 -0.0621  0.0802
15551TIP3   OH268143   6.488   3.797   2.731 -0.5716 -0.4574 -0.2569
15551TIP3    H168144   6.487   3.879   2.780  1.0567  0.0073 -0.9474
15551TIP3    H268145   6.446   3.818   2.648  0.1772 -0.2127 -0.5795
15552TIP3   OH268146   0.844   6.370   5.657 -0.4387 -0.8925  0.3558
15552TIP3    H168147   0.886   6.366   5.743 -0.4569  1.5147  0.5389
15552TIP3    H268148   0.917   6.379   5.595 -0.4784 -1.6056  0.1949
15553TIP3   OH268149   2.681   3.430  12.213  0.0210  1.1804  0.5490
15553TIP3    H168150   2.633   3.513  12.213 -3.3790 -0.5921 -0.9393
15553TIP3    H268151   2.726   3.428  12.129 -1.7544  0.6603 -0.4453
15554TIP3   OH268152   6.732   1.012   1.934  0.0296  0.4981  0.4183
15554TIP3    H168153   6.704   1.081   1.874  0.5140  1.5589  1.3717
15554TIP3    H268154   6.815   1.044   1.970  1.2558 -1.4312 -0.5021
15555TIP3   OH268155   6.492   6.468   3.305  0.5060  0.1519 -0.3783
15555TIP3    H168156   6.477   6.557   3.274 -0.3409 -0.3511 -1.5087
15555TIP3    H268157   6.564   6.435   3.252  1.8551  0.6342  1.0802
15556TIP3   OH268158   2.631   6.636   5.184 -0.3031  0.5051  0.0688
15556TIP3    H168159   2.625   6.688   5.104 -0.9670 -1.6397 -1.3596
15556TIP3    H268160   2.541   6.613   5.205 -0.0550  0.2480  0.8868
15557TIP3   OH268161   4.157   4.462   5.216  0.6026 -0.6072  0.5926
15557TIP3    H168162   4.209   4.389   5.183 -0.2449 -0.6821 -0.6539
15557TIP3    H268163   4.221   4.519   5.260  1.7480 -0.7096 -0.8631
15558TIP3   OH268164   1.384   0.485  12.688 -0.1229  0.5197 -0.4501
15558TIP3    H168165   1.341   0.427  12.751 -2.3609  0.7558 -1.6911
15558TIP3    H268166   1.476   0.458  12.691 -0.2436  0.0853  2.4031
15559TIP3   OH268167   5.322   0.825  13.252  0.0328  0.6694  0.2709
15559TIP3    H168168   5.243   0.797  13.299  0.2126  1.6450  1.1976
15559TIP3    H268169   5.290   0.865  13.171 -0.2117 -3.0242 -1.6679
15560TIP3   OH268170   2.058   4.524   2.003 -0.2371 -0.3247  0.1630
15560TIP3    H168171   2.033   4.606   2.045  0.8420 -0.7276  1.6901
15560TIP3    H268172   2.107   4.477   2.071  2.4723 -0.6104 -1.8575
15561TIP3   OH268173   3.723   4.072  14.292  0.1541 -0.4065  0.1756
15561TIP3    H168174   3.711   4.103  14.202 -0.4959  0.6533  0.6030
15561TIP3    H268175   3.715   3.976  14.286 -0.8991 -0.2822 -0.7581
15562TIP3   OH268176   3.364   6.534   4.714  0.0959 -0.6090 -0.4920
15562TIP3    H168177   3.381   6.541   4.620 -0.7533 -0.5453 -0.6471
15562TIP3    H268178   3.449   6.554   4.755 -0.0389  1.6783 -1.1749
15563TIP3   OH268179   0.409   4.968   1.884 -0.4847 -0.2629  0.2542
15563TIP3    H168180   0.328   4.930   1.849 -0.1887 -2.7526  2.0499
15563TIP3    H268181   0.379   5.041   1.939 -1.2639  0.5659 -1.2115
15564TIP3   OH268182   0.407   3.188   1.830  0.0818  0.4349 -0.5790
15564TIP3    H168183   0.403   3.247   1.755 -0.3739  0.9906 -0.1236
15564TIP3    H268184   0.361   3.109   1.801  0.9615  0.1689 -1.2961
15565TIP3   OH268185   0.069   2.752  16.840  0.5909  0.2361 -0.4988
15565TIP3    H168186   0.050   2.762  16.747 -2.0850 -0.2114 -0.0806
15565TIP3    H268187   0.040   2.834  16.880 -0.8598 -0.5968  0.2350
15566TIP3   OH268188   3.364   3.186  15.296  0.4028 -0.1399  0.7439
15566TIP3    H168189   3.350   3.249  15.367 -0.4934  1.3367 -0.6860
15566TIP3    H268190   3.277   3.150  15.279  0.5494 -0.2078  0.1420
15567TIP3   OH268191   4.706   6.246   3.976 -0.0061 -0.2427  0.3786
15567TIP3    H168192   4.744   6.170   3.931  1.1499  0.4417  0.1348
15567TIP3    H268193   4.732   6.235   4.067 -0.1369 -0.3187  0.4066
15568TIP3   OH268194   5.011   6.724   4.686  0.3314 -0.3064  0.4828
15568TIP3    H168195   4.955   6.739   4.763 -0.5614 -0.1428 -0.1854
15568TIP3    H268196   5.062   6.804   4.678 -1.0457  0.5353 -0.2880
15569TIP3   OH268197   2.119   5.182   3.938  0.0507 -0.2257  0.0014
15569TIP3    H168198   2.062   5.255   3.913  1.3702  0.4956 -1.0791
15569TIP3    H268199   2.063   5.105   3.936 -1.2359  0.6611  0.5471
15570TIP3   OH268200   6.554   2.950   5.447  0.0885 -0.0936 -0.0127
15570TIP3    H168201   6.532   2.916   5.360  2.0243  0.0087 -0.5759
15570TIP3    H268202   6.591   2.875   5.493  1.2220  0.4092 -0.0865
15571TIP3   OH268203   2.167   5.680   5.873 -0.2563  0.3914  0.0332
15571TIP3    H168204   2.207   5.724   5.798 -1.2209  0.1929 -0.6112
15571TIP3    H268205   2.172   5.587   5.853  0.9813  0.2184  0.9935
15572TIP3   OH268206   2.210   2.428   0.353 -0.0952  0.1940  0.3305
15572TIP3    H168207   2.210   2.338   0.319 -0.1495 -0.5852  2.2453
15572TIP3    H268208   2.265   2.477   0.292  0.6261 -1.3236 -0.2940
15573TIP3   OH268209   2.564   1.124   4.623 -0.0443  0.5538 -0.1548
15573TIP3    H168210   2.593   1.044   4.577  0.0468  1.0081 -0.8964
15573TIP3    H268211   2.546   1.187   4.554 -0.2667  1.1389  0.4224
15574TIP3   OH268212   1.468   4.015   6.651  0.2994 -0.0871  0.8462
15574TIP3    H168213   1.396   4.065   6.612  0.0967 -0.7695  0.3239
15574TIP3    H268214   1.529   4.001   6.578  0.7364  0.0639  1.1726
15575TIP3   OH268215   5.882   0.533  13.012 -0.2548 -0.8703  0.2340
15575TIP3    H168216   5.841   0.464  13.065  0.0731  1.3753  3.7923
15575TIP3    H268217   5.975   0.513  13.015 -0.2497 -0.8259  0.3686
15576TIP3   OH268218   2.987   3.461  14.067 -0.1174  0.0762 -0.6493
15576TIP3    H168219   2.899   3.426  14.055 -0.0730 -1.3213  2.2768
15576TIP3    H268220   3.045   3.393  14.035 -0.0901 -0.5260  0.6409
15577TIP3   OH268221   3.218   0.106   5.297 -0.3182 -0.0316 -0.0154
15577TIP3    H168222   3.232   0.013   5.314 -0.6596 -0.0050  0.4357
15577TIP3    H268223   3.211   0.145   5.384  2.3113  0.8227 -0.0854
15578TIP3   OH268224   0.604   4.769   0.460  0.4707 -0.0240  0.2291
15578TIP3    H168225   0.687   4.734   0.428  0.7631  1.2321 -0.4484
15578TIP3    H268226   0.539   4.704   0.434  1.0271 -0.2230 -0.7107
15579TIP3   OH268227   0.539   3.006   3.586  0.2806 -0.3790 -0.2926
15579TIP3    H168228   0.516   3.000   3.679 -0.1435 -1.8326 -0.4657
15579TIP3    H268229   0.458   3.028   3.542  0.2288 -0.8098 -0.4206
15580TIP3   OH268230   1.731   0.314   4.167 -0.4115 -0.1150  0.1180
15580TIP3    H168231   1.678   0.372   4.112  2.2620  1.2547 -1.2389
15580TIP3    H268232   1.759   0.368   4.240 -0.8605 -0.8096  0.8140
15581TIP3   OH268233   4.138   3.028  17.068 -0.0157  0.4210 -0.0761
15581TIP3    H168234   4.202   2.961  17.043 -0.7290 -0.5236  0.5172
15581TIP3    H268235   4.072   3.025  16.998  0.0995  0.7157 -0.1985
15582TIP3   OH268236   2.623   5.165  13.578 -0.1339 -0.3730 -0.1054
15582TIP3    H168237   2.571   5.162  13.658 -0.0289  3.5172  0.3184
15582TIP3    H268238   2.712   5.145  13.607 -0.0550  1.2084  0.9088
15583TIP3   OH268239   1.845   5.675   1.547  0.1171 -0.4176 -0.1576
15583TIP3    H168240   1.821   5.710   1.633  1.4062  1.1010 -0.3560
15583TIP3    H268241   1.892   5.748   1.505 -0.5453 -1.1026 -2.1690
15584TIP3   OH268242   1.003   2.149  16.331  0.5422  0.3441 -0.0565
15584TIP3    H168243   1.048   2.074  16.293  0.4285  1.5868 -2.9232
15584TIP3    H268244   0.910   2.130  16.317  0.3459 -0.1288  1.6598
15585TIP3   OH268245   5.584   5.888  14.695  0.2388  0.1908 -0.2077
15585TIP3    H168246   5.523   5.962  14.700  0.0532  0.0941 -0.9764
15585TIP3    H268247   5.668   5.926  14.722  0.1574  0.7040 -0.6508
15586TIP3   OH268248   5.028   1.043  11.165 -0.0454  0.6341  1.1520
15586TIP3    H168249   4.968   1.011  11.098  0.6031  0.6274  0.5682
15586TIP3    H268250   5.104   0.985  11.159  2.4591  3.7994 -1.8936
15587TIP3   OH268251   2.177   6.756  15.246  0.0702  0.1859  1.2850
15587TIP3    H168252   2.087   6.785  15.258  0.6385  2.6244  0.3387
15587TIP3    H268253   2.178   6.711  15.162 -0.4108 -0.6134  1.7019
15588TIP3   OH268254   2.548   5.558   1.100  0.4114 -0.3567 -0.2122
15588TIP3    H168255   2.488   5.486   1.084 -0.5247 -0.0817  1.8435
15588TIP3    H268256   2.615   5.521   1.158 -0.3846  0.5059  1.3243
15589TIP3   OH268257   6.485   0.665   2.609 -0.1445 -0.1029  0.1779
15589TIP3    H168258   6.524   0.695   2.526 -0.7787  2.3068  0.6792
15589TIP3    H268259   6.542   0.593   2.637  1.9665  1.0901 -0.7974
15590TIP3   OH268260   0.602   3.780   0.672 -0.9979  0.1574 -0.3065
15590TIP3    H168261   0.670   3.796   0.606  0.5534  1.6008  1.5414
15590TIP3    H268262   0.567   3.694   0.649 -0.7763  0.7358 -3.1731
15591TIP3   OH268263   0.437   0.076  13.684 -0.2015  0.1832  0.3551
15591TIP3    H168264   0.362   0.051  13.739 -0.4760  1.2499  0.4973
15591TIP3    H268265   0.416   0.165  13.655  1.1124  0.5805  0.5754
15592TIP3   OH268266   3.438   4.949  17.226 -0.0732 -0.3290  0.1195
15592TIP3    H168267   3.403   4.861  17.240 -0.3562 -0.2817 -0.2672
15592TIP3    H268268   3.477   4.946  17.138  1.0810 -0.4373  0.6164
15593TIP3   OH268269   6.633   4.954   2.965  0.1293  0.1846  0.0678
15593TIP3    H168270   6.697   5.025   2.973  1.4616 -1.0599  0.7644
15593TIP3    H268271   6.552   4.999   2.940  0.7455  2.0375  1.1525
15594TIP3   OH268272   3.233   3.167   5.715 -0.2622  0.9260  0.0431
15594TIP3    H168273   3.316   3.212   5.701  0.3169 -0.4300 -1.1571
15594TIP3    H268274   3.224   3.110   5.639 -1.4532 -0.2110  0.9912
15595TIP3   OH268275   1.929   6.764  14.278  0.7941 -0.4404  0.1259
15595TIP3    H168276   1.841   6.800  14.290  1.1096 -0.3193  2.7544
15595TIP3    H268277   1.922   6.708  14.201 -1.6024 -0.4785  0.3004
15596TIP3   OH268278   2.643   0.130  16.649 -0.5797  0.3173  0.1575
15596TIP3    H168279   2.691   0.171  16.721 -0.8452  0.2117  0.3927
15596TIP3    H268280   2.557   0.109  16.686 -0.8171  0.5256 -0.2711
15597TIP3   OH268281   6.174   4.101   0.639  0.6543 -0.2945  0.6940
15597TIP3    H168282   6.241   4.169   0.642 -0.5333  0.9160  0.6886
15597TIP3    H268283   6.190   4.054   0.558  1.0156  0.4965  0.3048
15598TIP3   OH268284   6.672   4.245   0.061  0.0085 -0.2472 -0.2556
15598TIP3    H168285   6.589   4.207   0.087  0.3974 -0.3281  0.9417
15598TIP3    H268286   6.737   4.178   0.081  0.7991  1.1531  2.6042
15599TIP3   OH268287   1.658   2.296   1.923 -0.2674  0.0485  0.2707
15599TIP3    H168288   1.577   2.309   1.874  0.4823  1.1875 -0.7189
15599TIP3    H268289   1.695   2.215   1.887 -1.0558 -0.6114  0.8975
15600TIP3   OH268290   4.955   2.652   0.978  0.0383 -0.3383 -0.2848
15600TIP3    H168291   5.044   2.646   0.943  0.2617  2.7939 -0.5222
15600TIP3    H268292   4.902   2.684   0.905 -0.8619 -0.1580  0.4250
15601TIP3   OH268293   2.240   4.208   3.156 -0.4659 -1.0229  0.2740
15601TIP3    H168294   2.156   4.183   3.196 -0.3307  1.3067  2.2432
15601TIP3    H268295   2.244   4.303   3.166  2.1549 -0.9971 -0.3473
15602TIP3   OH268296   1.346   5.063  13.289 -0.6429  0.3059  0.1422
15602TIP3    H168297   1.287   5.032  13.220  1.0122  0.2886 -1.3545
15602TIP3    H268298   1.313   5.150  13.312 -0.8665  0.5966 -1.1751
15603TIP3   OH268299   3.878   5.133   2.864  0.9893  0.3421 -0.2601
15603TIP3    H168300   3.852   5.143   2.955  2.6040  0.5480  0.2128
15603TIP3    H268301   3.834   5.205   2.818  2.2802  1.9096  0.8577
15604TIP3   OH268302   4.878   2.619   1.916  0.3415  0.0808  0.0606
15604TIP3    H168303   4.859   2.642   1.825  0.6762 -0.1101 -0.0568
15604TIP3    H268304   4.966   2.652   1.931 -0.0213  0.8487  0.5665
15605TIP3   OH268305   0.069   5.535   3.506 -0.0928 -0.0983 -0.1765
15605TIP3    H168306   0.139   5.517   3.442  0.4311 -0.0061  0.3638
15605TIP3    H268307   0.116   5.564   3.584 -0.7924  4.0803 -1.0490
15606TIP3   OH268308   0.808   3.238   2.475 -0.0116  0.1369  0.3862
15606TIP3    H168309   0.744   3.240   2.403 -0.4099 -0.8660  0.6960
15606TIP3    H268310   0.757   3.210   2.551  0.7199 -0.2814  0.7310
15607TIP3   OH268311   1.443   2.253  15.835  0.2598  0.3517  0.1084
15607TIP3    H168312   1.385   2.188  15.875  0.5556 -0.0430 -0.1020
15607TIP3    H268313   1.475   2.305  15.909  0.8914 -0.4458  0.4048
15608TIP3   OH268314   1.931   4.429   3.164  0.6911 -0.0557 -0.2973
15608TIP3    H168315   1.883   4.400   3.086  0.5629  0.5905 -0.4682
15608TIP3    H268316   1.899   4.518   3.180  1.1523  0.0375  0.1441
15609TIP3   OH268317   4.852   6.078  14.488  0.2239 -0.2040 -0.0342
15609TIP3    H168318   4.946   6.091  14.493  0.0654  2.2031 -1.6909
15609TIP3    H268319   4.840   6.004  14.429  1.0713 -0.6379  0.3347
15610TIP3   OH268320   3.897   4.347   5.265 -0.1973  0.1738  0.0162
15610TIP3    H168321   3.985   4.383   5.252 -0.2714  0.1161 -0.7428
15610TIP3    H268322   3.872   4.316   5.178 -1.0352  0.3327  0.1957
15611TIP3   OH268323   4.357   0.910   2.456  0.3223 -0.2789  0.0643
15611TIP3    H168324   4.268   0.945   2.456  1.4464  3.0408 -2.4376
15611TIP3    H268325   4.350   0.829   2.404 -1.0836  0.4437 -0.9439
15612TIP3   OH268326   6.774   5.893   3.849  0.5940 -0.4044  0.3419
15612TIP3    H168327   6.820   5.902   3.933  0.1974  1.3077  0.4017
15612TIP3    H268328   6.825   5.945   3.788  0.1223 -0.5464 -0.1793
15613TIP3   OH268329   2.222   4.965   1.987  0.3424 -0.2307 -0.0415
15613TIP3    H168330   2.298   5.021   2.005 -0.2091  0.7085 -0.5314
15613TIP3    H268331   2.222   4.954   1.892 -1.9464  2.5529 -0.5031
15614TIP3   OH268332   1.288   0.054   6.290  0.4619 -0.1777 -0.3393
15614TIP3    H168333   1.274   0.000   6.212  0.8089 -0.9119  0.0976
15614TIP3    H268334   1.266  -0.003   6.363  1.6782 -0.0260  0.1736
15615TIP3   OH268335   1.434   4.894   1.926  0.5034 -0.1720 -0.0880
15615TIP3    H168336   1.383   4.883   2.006  0.8044  0.5008  0.2048
15615TIP3    H268337   1.406   4.822   1.869 -1.1735  0.4820 -0.1541
15616TIP3   OH268338   4.698   4.798  16.305 -0.1353 -0.3615 -0.0318
15616TIP3    H168339   4.722   4.745  16.381  0.0589  0.2915  0.3679
15616TIP3    H268340   4.621   4.848  16.334  0.0151 -0.0188 -0.2247
15617TIP3   OH268341   1.410   6.401  13.165 -0.3708  0.1301  0.7748
15617TIP3    H168342   1.315   6.398  13.160 -0.3415  0.3045 -0.0382
15617TIP3    H268343   1.439   6.400  13.074  0.3698  1.1448  0.9802
15618TIP3   OH268344   5.217   2.539   0.008 -0.7952  0.1102 -1.1975
15618TIP3    H168345   5.209   2.606  -0.059 -2.4804  1.7598  0.5430
15618TIP3    H268346   5.308   2.544   0.037 -0.7183  1.1441 -1.5886
15619TIP3   OH268347   2.313   3.659  12.571 -1.4003 -0.2598  0.7997
15619TIP3    H168348   2.390   3.653  12.628  0.2376  0.3213 -1.2346
15619TIP3    H268349   2.299   3.570  12.539 -1.7993 -0.4248  1.4117
15620TIP3   OH268350   6.713   2.870  15.410 -0.1053 -0.2179  0.5101
15620TIP3    H168351   6.643   2.930  15.435 -0.7367 -1.1158  0.9223
15620TIP3    H268352   6.669   2.796  15.368  0.7761  0.2808 -1.4171
15621TIP3   OH268353   4.303   2.035  14.014 -0.3493  0.4924 -0.1869
15621TIP3    H168354   4.358   2.098  14.060 -1.2092  0.7461  0.5305
15621TIP3    H268355   4.321   2.049  13.921  1.3880  0.0059  0.0460
15622TIP3   OH268356   3.100   1.623   4.090 -0.3411 -0.7571 -0.3765
15622TIP3    H168357   3.150   1.599   4.012 -1.6338 -1.2129 -1.0923
15622TIP3    H268358   3.008   1.610   4.065 -0.8444  0.2847  0.8197
15623TIP3   OH268359   3.648   2.384  15.177 -0.5380 -0.9065  0.0791
15623TIP3    H168360   3.666   2.474  15.204  1.8448 -1.1480 -0.4622
15623TIP3    H268361   3.691   2.376  15.092 -2.4833 -2.0026 -0.8758
15624TIP3   OH268362   1.114   0.169   1.308  0.1140  0.5656 -0.0987
15624TIP3    H168363   1.156   0.249   1.340 -0.5296  0.7856  0.2333
15624TIP3    H268364   1.186   0.111   1.284  0.5904  1.1803 -0.1761
15625TIP3   OH268365   3.330   1.473  13.986  0.5303  0.1843 -0.0313
15625TIP3    H168366   3.423   1.450  13.982  0.2032 -1.0775 -1.9764
15625TIP3    H268367   3.326   1.550  14.042  2.6921  0.0290  0.4101
15626TIP3   OH268368   3.181   4.080   4.354 -0.3405 -0.3751 -0.0518
15626TIP3    H168369   3.250   4.098   4.291  0.0446 -0.7357  0.2563
15626TIP3    H268370   3.223   4.024   4.420 -0.4101  0.9324  1.1500
15627TIP3   OH268371   3.248   1.478   0.555  0.6259  0.1794  0.3352
15627TIP3    H168372   3.238   1.574   0.551 -1.4244  0.0487  1.0503
15627TIP3    H268373   3.158   1.445   0.558  1.2283 -1.8959 -1.6565
15628TIP3   OH268374   6.531   0.914  10.683  0.6611  0.4416  0.6142
15628TIP3    H168375   6.521   0.851  10.611  0.0888  1.6177 -0.3752
15628TIP3    H268376   6.626   0.917  10.698  0.9664  1.2822 -1.1613
15629TIP3   OH268377   4.936   0.169  12.022 -0.1688 -0.2377 -0.2532
15629TIP3    H168378   5.009   0.231  12.015  0.5150 -1.0988 -1.1575
15629TIP3    H268379   4.884   0.185  11.943 -0.4066 -0.2997 -0.1089
15630TIP3   OH268380   4.447   5.238   3.496  0.0602  0.6283  0.0168
15630TIP3    H168381   4.531   5.194   3.507 -0.0485  0.3960 -0.0840
15630TIP3    H268382   4.451   5.279   3.410  0.6928  1.9754  0.6691
15631TIP3   OH268383   3.832   2.230   1.929  0.0717  0.3751  0.1467
15631TIP3    H168384   3.833   2.326   1.930 -1.1770  0.4212  1.1432
15631TIP3    H268385   3.754   2.208   1.877  0.5862 -0.1096 -0.4224
15632TIP3   OH268386   4.368   1.073  16.770  0.3079 -0.7888 -0.4770
15632TIP3    H168387   4.347   1.148  16.714 -1.7948 -0.2563  0.8905
15632TIP3    H268388   4.353   0.996  16.714 -1.0628 -0.2557 -0.8788
15633TIP3   OH268389   4.734   6.047   3.625 -0.3637  0.2661 -0.0034
15633TIP3    H168390   4.797   6.040   3.697 -1.0752  1.6894  0.7929
15633TIP3    H268391   4.696   6.135   3.634 -2.4871 -0.5387 -0.4283
15634TIP3   OH268392   2.984   1.515  12.744  0.6492  0.1064  0.0634
15634TIP3    H168393   2.940   1.584  12.793 -0.6096 -1.0739  0.6729
15634TIP3    H268394   2.916   1.449  12.729  1.7224 -0.8646 -0.7785
15635TIP3   OH268395   2.332   4.910  12.030 -0.0653  0.2680 -0.1599
15635TIP3    H168396   2.420   4.947  12.018 -0.6147  1.4549 -0.6574
15635TIP3    H268397   2.336   4.825  11.986  0.1215  1.4047 -2.4985
15636TIP3   OH268398   0.201   3.273   0.214 -0.1147  0.6223  0.0212
15636TIP3    H168399   0.143   3.197   0.214 -0.1495  0.5517  2.6366
15636TIP3    H268400   0.195   3.308   0.125 -2.6838 -0.4770 -0.3331
15637TIP3   OH268401   6.155   1.968  12.920  0.0914  0.1603  0.6390
15637TIP3    H168402   6.191   2.001  13.002  0.4224  0.8558  0.2295
15637TIP3    H268403   6.124   2.047  12.874  1.4205  0.0000 -0.6205
15638TIP3   OH268404   3.622   5.560   2.461 -0.0760  0.3554  0.0719
15638TIP3    H168405   3.560   5.495   2.427  1.7316 -1.1624 -0.4778
15638TIP3    H268406   3.591   5.577   2.550 -0.8020 -1.0250  0.1220
15639TIP3   OH268407   4.180   5.427  14.031  0.0510  0.1469  0.2891
15639TIP3    H168408   4.175   5.462  14.120  0.4912  0.8257  0.0566
15639TIP3    H268409   4.120   5.352  14.031 -1.2466  1.1354  0.6951
15640TIP3   OH268410   4.331   5.805   6.056  0.2670 -0.1788 -0.1572
15640TIP3    H168411   4.413   5.786   6.010 -0.7321 -1.9259 -1.3378
15640TIP3    H268412   4.314   5.726   6.107 -1.3925 -0.4363 -1.0523
15641TIP3   OH268413   0.963   0.084   5.251  0.4543  0.3294  0.1239
15641TIP3    H168414   0.898   0.138   5.298  1.4028  0.5510  1.2256
15641TIP3    H268415   0.927  -0.005   5.257  0.3492  0.4120  0.9420
15642TIP3   OH268416   3.789   3.220   8.394 -0.0491  0.5775 -0.1496
15642TIP3    H168417   3.706   3.263   8.375 -1.2909 -0.2816  2.7337
15642TIP3    H268418   3.835   3.280   8.453  1.7121  1.2772 -2.1044
15643TIP3   OH268419   4.733   0.742   4.609 -0.0946 -0.4749 -0.4011
15643TIP3    H168420   4.748   0.780   4.522 -1.6173 -0.2365 -0.5927
15643TIP3    H268421   4.812   0.764   4.659  0.5025 -0.0079 -1.5088
15644TIP3   OH268422   5.176   1.080  16.675  0.7007 -0.0954  0.5582
15644TIP3    H168423   5.108   1.117  16.732  0.5529 -1.2127  1.1394
15644TIP3    H268424   5.139   1.087  16.587 -0.1839 -0.6944  0.8681
15645TIP3   OH268425   5.326   2.824   1.777 -0.8995  0.5775  0.7116
15645TIP3    H168426   5.251   2.880   1.759 -1.2314 -0.1958 -0.3596
15645TIP3    H268427   5.368   2.811   1.692 -0.3309 -0.0963  1.0830
15646TIP3   OH268428   4.756   6.050  14.116 -0.3557 -0.0620  0.1632
15646TIP3    H168429   4.678   6.076  14.164  0.0892  0.9238  0.3733
15646TIP3    H268430   4.792   6.131  14.082  0.4938 -0.5135 -0.0576
15647TIP3   OH268431   0.243   6.697  16.919 -0.0117 -0.0743  0.0944
15647TIP3    H168432   0.302   6.742  16.858 -0.8736  3.8020  1.7978
15647TIP3    H268433   0.164   6.679  16.869  0.7279 -0.6544 -0.8977
15648TIP3   OH268434   0.995   5.794  11.758  0.4396  0.2723  0.0882
15648TIP3    H168435   1.065   5.846  11.798  2.3585 -1.3382 -1.0041
15648TIP3    H268436   1.006   5.707  11.795 -0.3128 -0.2662 -0.9142
15649TIP3   OH268437   5.170   6.513  11.172 -0.2335  0.1850 -0.5869
15649TIP3    H168438   5.192   6.454  11.099 -0.7990 -1.3639  0.4372
15649TIP3    H268439   5.079   6.493  11.191 -0.0835  0.5622  0.5602
15650TIP3   OH268440   3.972   6.614  11.693 -0.6940 -0.3105 -0.0804
15650TIP3    H168441   3.978   6.696  11.644  0.4918 -0.1494  0.3071
15650TIP3    H268442   4.005   6.547  11.633 -1.8630 -0.5586 -0.4747
15651TIP3   OH268443   2.691   0.560   2.714  0.3961  0.3695  0.4232
15651TIP3    H168444   2.733   0.485   2.671  0.6012  0.1456  1.0055
15651TIP3    H268445   2.624   0.521   2.770 -0.2615  0.6939 -0.1146
15652TIP3   OH268446   1.441   5.643  14.110  0.4778  0.1891 -0.1206
15652TIP3    H168447   1.434   5.670  14.019 -0.3998  1.3521  0.2608
15652TIP3    H268448   1.368   5.581  14.122  1.5407 -1.1922 -0.5906
15653TIP3   OH268449   4.630   1.590  11.764  0.1379  0.2756 -0.6086
15653TIP3    H168450   4.655   1.661  11.824  0.0581 -0.8360  0.8010
15653TIP3    H268451   4.536   1.580  11.776 -0.2662  1.3305 -2.4370
15654TIP3   OH268452   0.702   3.119  11.148  0.0317 -0.1485  0.4518
15654TIP3    H168453   0.760   3.176  11.199 -1.4873  0.4312  1.6097
15654TIP3    H268454   0.688   3.042  11.203 -0.3233 -0.2653  0.2089
15655TIP3   OH268455   2.725   2.562   3.121 -0.1678 -0.3434 -0.1330
15655TIP3    H168456   2.754   2.553   3.212 -0.4848 -0.8788 -0.0820
15655TIP3    H268457   2.794   2.614   3.079  0.4342 -0.8718  0.1849
15656TIP3   OH268458   2.054   0.974  16.739 -0.1502  0.1587 -0.6694
15656TIP3    H168459   2.120   0.919  16.696  1.3945  0.7732  0.7845
15656TIP3    H268460   1.987   0.912  16.768  0.5245 -0.6995 -0.8919
15657TIP3   OH268461   6.080   1.479   0.661  0.6992 -0.0468 -0.4499
15657TIP3    H168462   6.073   1.572   0.679  0.5704 -0.2973  0.9132
15657TIP3    H268463   6.163   1.452   0.702 -0.5745 -1.0259  1.6887
15658TIP3   OH268464   0.523   3.752   4.600  0.0872 -0.4863 -0.0752
15658TIP3    H168465   0.599   3.754   4.658  0.0145 -0.0043  0.0099
15658TIP3    H268466   0.459   3.807   4.644 -0.1712 -0.5769 -0.3392
15659TIP3   OH268467   2.331   1.172  14.523  0.3058 -0.0753  0.7787
15659TIP3    H168468   2.272   1.209  14.589 -2.9281 -1.0994 -1.3084
15659TIP3    H268469   2.337   1.239  14.455  1.0238 -0.2295  0.6855
15660TIP3   OH268470   6.536   2.773  11.703 -0.0908  0.1277  0.2277
15660TIP3    H168471   6.595   2.699  11.686 -1.4181 -1.3503  1.6305
15660TIP3    H268472   6.585   2.829  11.763  1.0634  0.6229 -1.1108
15661TIP3   OH268473   4.566   0.470   4.323  0.1028  0.2347 -0.3789
15661TIP3    H168474   4.586   0.441   4.234  2.2435 -0.2661  0.1984
15661TIP3    H268475   4.606   0.557   4.330 -1.3857  0.9470 -0.3438
15662TIP3   OH268476   2.972   2.486  12.262 -0.1261 -0.2775 -0.1281
15662TIP3    H168477   2.977   2.391  12.253  1.9876 -0.4400  1.9250
15662TIP3    H268478   2.892   2.502  12.313 -2.3111 -0.5903 -3.1710
15663TIP3   OH268479   6.330   1.121   4.357  0.4881  0.2994 -0.6812
15663TIP3    H168480   6.335   1.038   4.311  2.6820 -1.0015  1.6642
15663TIP3    H268481   6.258   1.111   4.418  1.8622 -0.6921  0.8717
15664TIP3   OH268482   3.097   3.547   0.599 -0.0964  0.4402 -0.4175
15664TIP3    H168483   3.130   3.637   0.594 -0.6897  0.6955  0.1446
15664TIP3    H268484   3.013   3.555   0.644  0.2182 -0.4940  0.3628
15665TIP3   OH268485   6.766   5.411   5.693  0.8579 -0.4195 -0.3125
15665TIP3    H168486   6.818   5.492   5.691 -0.5629  0.5211 -1.1451
15665TIP3    H268487   6.831   5.341   5.688  2.1573  0.6305  0.9429
15666TIP3   OH268488   6.297   6.432  15.547  0.0708 -0.1917  0.3573
15666TIP3    H168489   6.256   6.347  15.565  3.0064 -1.9388 -0.3282
15666TIP3    H268490   6.326   6.463  15.633  0.9897 -1.0836  0.3919
15667TIP3   OH268491   4.714   2.028  12.495 -0.1786 -0.1517  0.0757
15667TIP3    H168492   4.649   1.964  12.523 -0.4277  0.4344  0.8462
15667TIP3    H268493   4.676   2.069  12.417 -2.1567  2.2945  2.1606
15668TIP3   OH268494   5.874   5.877  16.896  0.0510  0.0792 -0.3541
15668TIP3    H168495   5.820   5.894  16.973 -0.0848 -2.4249  0.1963
15668TIP3    H268496   5.822   5.816  16.843  1.0564  0.0195 -1.3224
15669TIP3   OH268497   3.199   4.650  16.958 -0.3180  0.0115  0.0994
15669TIP3    H168498   3.135   4.694  16.901  0.1450  0.5006 -0.0470
15669TIP3    H268499   3.203   4.561  16.924  0.3714  0.4462 -1.0090
15670TIP3   OH268500   2.612   3.225   3.490  0.6914  0.1438  0.0227
15670TIP3    H168501   2.564   3.288   3.544  1.4375 -0.4196  1.3888
15670TIP3    H268502   2.699   3.263   3.479  0.1351  0.9612 -2.0992
15671TIP3   OH268503   1.662   1.215  14.088  0.1467  0.1393 -0.2993
15671TIP3    H168504   1.583   1.264  14.066  0.1363  0.7606  1.0130
15671TIP3    H268505   1.733   1.277  14.073  0.3274 -0.1676 -0.7357
15672TIP3   OH268506   4.644   3.629   1.522  0.1064  0.1708  0.2974
15672TIP3    H168507   4.580   3.592   1.461 -1.2455 -1.6770  2.6522
15672TIP3    H268508   4.688   3.698   1.472 -3.0113  0.8548 -1.7642
15673TIP3   OH268509   1.146   3.114   3.230 -0.5895 -0.0164  0.0183
15673TIP3    H168510   1.150   3.035   3.285  2.1567 -0.8301 -1.1763
15673TIP3    H268511   1.150   3.081   3.141 -2.4433  1.4109 -0.6421
15674TIP3   OH268512   4.086   1.305  16.905  0.0027  0.2404 -0.1909
15674TIP3    H168513   4.022   1.241  16.875  0.5711  0.1967 -1.3438
15674TIP3    H268514   4.170   1.273  16.872  0.6955  0.1397  1.5363
15675TIP3   OH268515   0.654   5.387  14.272  0.1198 -0.5853 -0.0504
15675TIP3    H168516   0.702   5.346  14.343  0.0953 -0.6202 -0.0535
15675TIP3    H268517   0.580   5.328  14.256 -0.9952  0.4102  1.2113
15676TIP3   OH268518   0.170   4.305   1.276 -0.8218  0.3608 -0.1729
15676TIP3    H168519   0.210   4.259   1.350  1.7980  1.0336 -1.0651
15676TIP3    H268520   0.124   4.236   1.228  2.0689 -1.2509 -0.8716
15677TIP3   OH268521   6.726   4.205  15.080 -0.4895 -0.0581 -0.0827
15677TIP3    H168522   6.686   4.201  14.993 -0.0673  1.0138 -0.3389
15677TIP3    H268523   6.658   4.243  15.136  0.4340  2.7594 -0.7301
15678TIP3   OH268524   3.005   5.723  15.004 -0.7875  0.0659 -0.1965
15678TIP3    H168525   3.029   5.659  15.072 -0.6495 -0.8130 -1.0474
15678TIP3    H268526   2.914   5.704  14.984 -1.0542  0.8278  0.2731
15679TIP3   OH268527   3.274   0.396   2.262 -0.2475 -0.4093 -0.3576
15679TIP3    H168528   3.335   0.323   2.258 -1.2469 -1.2720 -0.1566
15679TIP3    H268529   3.226   0.384   2.344  0.1823  0.9880  0.1443
15680TIP3   OH268530   6.222   4.453   0.689  0.5507  0.6816  0.1070
15680TIP3    H168531   6.155   4.513   0.657 -0.2241 -0.0324  0.3413
15680TIP3    H268532   6.190   4.427   0.776  1.3675  0.6857  0.4143
15681TIP3   OH268533   6.469   3.304  14.051  0.1957 -0.2862 -0.0570
15681TIP3    H168534   6.443   3.220  14.011 -1.8098 -0.6416  1.7920
15681TIP3    H268535   6.494   3.281  14.140 -0.8882  1.1185  0.6496
15682TIP3   OH268536   3.349   6.709  13.051 -0.7664  0.4772 -0.2722
15682TIP3    H168537   3.345   6.663  12.967 -0.3335  0.5754 -0.3481
15682TIP3    H268538   3.430   6.679  13.091 -0.9151  0.5179  0.0624
15683TIP3   OH268539   4.952   4.590  11.142 -0.4165 -0.9093  0.4405
15683TIP3    H168540   4.901   4.614  11.064  0.8721  0.0147 -0.1689
15683TIP3    H268541   4.894   4.534  11.193 -2.0433  0.1342 -0.1813
15684TIP3   OH268542   3.169   2.281  15.311  0.0645 -0.2725  0.6156
15684TIP3    H168543   3.091   2.269  15.366 -2.3901  1.0740 -2.2715
15684TIP3    H268544   3.165   2.208  15.249  1.3058 -0.3043  0.5541
15685TIP3   OH268545   5.507   4.815  14.783 -0.2416 -0.2706 -0.0057
15685TIP3    H168546   5.534   4.877  14.850  0.5747  1.4835 -1.8208
15685TIP3    H268547   5.567   4.741  14.792 -1.2440 -0.8694  2.2167
15686TIP3   OH268548   5.349   0.147  16.560 -0.1560 -0.8758  0.1596
15686TIP3    H168549   5.325   0.071  16.612 -1.2908 -0.4814  0.2376
15686TIP3    H268550   5.441   0.133  16.538  0.4355 -0.9845  2.4277
15687TIP3   OH268551   3.231   6.668   4.367 -0.3946 -0.0845 -0.4299
15687TIP3    H168552   3.147   6.623   4.354 -0.9319  0.8670 -0.3387
15687TIP3    H268553   3.284   6.605   4.416 -1.0620 -0.6864 -0.4558
15688TIP3   OH268554   5.374   0.327   3.947 -0.0480 -0.1707  0.4073
15688TIP3    H168555   5.340   0.373   3.871  0.0506 -1.9554 -0.7886
15688TIP3    H268556   5.469   0.332   3.938 -0.0346 -0.9542  0.0141
15689TIP3   OH268557   3.636   4.496  12.972 -0.0261  0.5460 -0.4183
15689TIP3    H168558   3.586   4.428  12.928 -3.6257  2.2178  0.7185
15689TIP3    H268559   3.642   4.567  12.909 -0.8426  1.0677  0.0678
15690TIP3   OH268560   3.357   4.276   1.764  0.2282 -0.2605 -0.7786
15690TIP3    H168561   3.289   4.222   1.805  1.1181 -1.0026 -0.2382
15690TIP3    H268562   3.384   4.227   1.687  0.5574 -0.2502 -0.6706
15691TIP3   OH268563   1.081   1.953   0.336 -0.2797  0.3517 -0.0683
15691TIP3    H168564   1.170   1.973   0.307  0.9091 -1.5348  1.9424
15691TIP3    H268565   1.061   2.021   0.400 -0.6012  1.1682 -1.0054
15692TIP3   OH268566   1.515   3.240   4.133 -0.1810 -0.7663  0.3485
15692TIP3    H168567   1.505   3.297   4.209 -1.0578 -1.2251  0.5875
15692TIP3    H268568   1.604   3.258   4.101  0.7839 -1.6695  2.3757
15693TIP3   OH268569   5.123   6.493   1.416  0.1880 -0.4597 -1.3208
15693TIP3    H168570   5.105   6.492   1.322 -0.5834 -0.9660 -1.1766
15693TIP3    H268571   5.038   6.477   1.457  0.3878  0.4935 -0.5087
15694TIP3   OH268572   1.129   4.060  11.695 -0.5643 -0.0054  0.2797
15694TIP3    H168573   1.081   4.143  11.703  0.3004  0.6607 -1.1196
15694TIP3    H268574   1.151   4.054  11.602  1.0927 -0.8512  0.6965
15695TIP3   OH268575   0.915   0.345  16.254  0.1854  0.5189  0.2150
15695TIP3    H168576   0.887   0.357  16.344 -0.3763  4.1519 -0.2817
15695TIP3    H268577   0.835   0.321  16.207  0.0794  0.5256  0.3920
15696TIP3   OH268578   2.550   4.276  11.425  0.1765 -0.0109  0.5908
15696TIP3    H168579   2.546   4.185  11.456  1.0302  0.2181  1.4355
15696TIP3    H268580   2.644   4.297  11.425 -0.0219  0.9185  0.5248
15697TIP3   OH268581   2.142   3.498  12.403  0.2575 -0.4095  0.2463
15697TIP3    H168582   2.149   3.411  12.363  0.6141 -0.0879 -0.4109
15697TIP3    H268583   2.048   3.514  12.408  0.1929 -0.1280 -1.2416
15698TIP3   OH268584   3.612   6.176  16.136  0.0236  0.1241 -0.1831
15698TIP3    H168585   3.623   6.222  16.219 -2.2418  1.4507 -0.5394
15698TIP3    H268586   3.644   6.087  16.153 -0.6549  0.2722  2.2186
15699TIP3   OH268587   4.805   4.556  11.576 -0.2001  0.0747 -0.1812
15699TIP3    H168588   4.850   4.559  11.661 -2.4780  0.6424  1.1098
15699TIP3    H268589   4.870   4.588  11.513  1.4313  0.0555  1.4121
15700TIP3   OH268590   1.838   3.042   1.404  0.9812 -0.6487 -0.3184
15700TIP3    H168591   1.846   3.104   1.477 -0.6435  1.0590 -1.4807
15700TIP3    H268592   1.763   2.987   1.427  1.3854 -1.0905 -0.0453
15701TIP3   OH268593   0.935   3.691  10.875 -0.0657  0.0074  0.2046
15701TIP3    H168594   0.913   3.752  10.805 -1.7250  1.3571  1.8004
15701TIP3    H268595   1.021   3.718  10.906 -0.5711  1.2740  0.5602
15702TIP3   OH268596   5.537   1.668  14.426 -0.1230 -0.0306 -0.0472
15702TIP3    H168597   5.504   1.704  14.508  1.2967 -0.8390  0.9153
15702TIP3    H268598   5.617   1.623  14.450  1.2083  1.0593 -2.1291
15703TIP3   OH268599   6.280   5.257  15.053  0.2025 -0.0004 -0.0777
15703TIP3    H168600   6.308   5.263  14.962 -0.0744  0.1493 -0.1537
15703TIP3    H268601   6.193   5.219  15.049 -0.3370  1.1705  0.0332
15704TIP3   OH268602   2.337   2.919   1.753 -0.1838  0.6486  0.0172
15704TIP3    H168603   2.407   2.983   1.746  0.2259  0.1933 -0.0940
15704TIP3    H268604   2.376   2.845   1.798 -0.6464  0.4625  0.1199
15705TIP3   OH268605   6.334   6.467   4.742 -0.6467 -0.1674  0.2379
15705TIP3    H168606   6.365   6.444   4.829  2.0750 -3.0205 -1.2842
15705TIP3    H268607   6.369   6.554   4.725  0.6379 -0.4714  1.2269
15706TIP3   OH268608   2.802   6.299   4.201  0.0293  0.3128  0.7133
15706TIP3    H168609   2.745   6.258   4.136 -1.2817  1.8658  0.8176
15706TIP3    H268610   2.876   6.239   4.210  0.2815  0.0649 -2.2284
15707TIP3   OH268611   3.763   3.643   5.366  0.1838 -0.2248  0.5028
15707TIP3    H168612   3.825   3.570   5.362 -0.8292 -1.0971  0.1815
15707TIP3    H268613   3.775   3.689   5.283  0.7097 -0.1282  0.6316
15708TIP3   OH268614   6.058   2.193   3.331 -0.3748  0.4367 -0.1835
15708TIP3    H168615   6.011   2.205   3.414 -0.0435  0.1088  0.0556
15708TIP3    H268616   6.126   2.129   3.351 -1.4502 -1.0760 -1.1557
15709TIP3   OH268617   4.904   2.510  14.381  0.0346  0.1177 -0.4941
15709TIP3    H168618   4.912   2.603  14.364  2.8721 -0.3354 -2.2453
15709TIP3    H268619   4.916   2.501  14.475 -3.1181  1.6324  0.2095
15710TIP3   OH268620   5.246   5.038   1.466  0.3712  0.3676  0.4846
15710TIP3    H168621   5.259   5.132   1.479 -1.5193  0.4457  2.2512
15710TIP3    H268622   5.194   5.031   1.386  0.9398  0.7656  0.0723
15711TIP3   OH268623   4.401   1.718   0.653  0.4236 -0.3457 -0.5812
15711TIP3    H168624   4.471   1.659   0.682  1.2527  0.8595 -0.0078
15711TIP3    H268625   4.325   1.694   0.707 -0.0537 -2.5456 -2.1232
15712TIP3   OH268626   4.518   6.356   3.345 -0.7672  0.4141  0.1868
15712TIP3    H168627   4.445   6.295   3.341 -2.8729  2.7606  0.3176
15712TIP3    H268628   4.532   6.384   3.255 -0.3176  0.3309  0.2249
15713TIP3   OH268629   1.966   1.313  11.604  0.0553 -0.0218 -0.2287
15713TIP3    H168630   2.023   1.238  11.620 -0.9715 -1.1315 -1.5124
15713TIP3    H268631   2.021   1.389  11.624  2.0903 -1.0257 -1.6222
15714TIP3   OH268632   1.553   6.057  11.986 -0.8132 -0.7857  0.2608
15714TIP3    H168633   1.469   6.090  12.019  0.9916  3.1803  1.4406
15714TIP3    H268634   1.609   6.052  12.063  0.6015 -1.6154 -0.7702
15715TIP3   OH268635   5.318   3.254   1.730 -0.5261 -0.1172 -0.0272
15715TIP3    H168636   5.330   3.349   1.732  0.5242 -0.2232 -0.3436
15715TIP3    H268637   5.370   3.222   1.803  0.6897 -0.5731 -1.0549
15716TIP3   OH268638   1.438   1.821   1.082  0.7845  0.0908 -0.5745
15716TIP3    H168639   1.483   1.902   1.105  0.4238 -0.2156  1.3499
15716TIP3    H268640   1.487   1.752   1.127 -0.4479 -0.4509  0.0047
15717TIP3   OH268641   1.886   6.463   6.824 -0.0965  0.6314 -0.0295
15717TIP3    H168642   1.865   6.553   6.800 -0.2985  0.4651 -0.4938
15717TIP3    H268643   1.846   6.410   6.755  2.4906  0.3318 -1.4027
15718TIP3   OH268644   0.904   5.649   1.203  0.0441  0.9352 -0.0153
15718TIP3    H168645   0.879   5.639   1.295  0.9313  0.8611  0.2292
15718TIP3    H268646   0.992   5.686   1.206  0.3974  0.1920 -0.8326
15719TIP3   OH268647   3.342   2.294  13.144  0.5314  0.1173  0.2955
15719TIP3    H168648   3.430   2.309  13.111  0.5481 -0.3002  0.1420
15719TIP3    H268649   3.352   2.226  13.211  0.2444 -0.4017 -0.1799
15720TIP3   OH268650   4.486   0.833  16.262  0.0706  0.0770 -0.5822
15720TIP3    H168651   4.406   0.801  16.303 -0.2410  0.8179 -0.5879
15720TIP3    H268652   4.550   0.834  16.332  0.1434 -0.7622 -0.6364
15721TIP3   OH268653   1.826   2.268  13.590  0.3653 -0.5291  0.1196
15721TIP3    H168654   1.877   2.219  13.653  0.8222  0.2114  0.3336
15721TIP3    H268655   1.820   2.211  13.513  1.8642 -0.4606 -0.0616
15722TIP3   OH268656   6.122   5.129   3.452 -0.4108 -0.0204  0.1182
15722TIP3    H168657   6.211   5.101   3.472 -0.7870 -1.4952 -0.1849
15722TIP3    H268658   6.091   5.172   3.532 -0.1405 -1.3550  0.9602
15723TIP3   OH268659   2.787   1.846   2.553 -0.0549 -0.0683 -0.1668
15723TIP3    H168660   2.880   1.851   2.529  0.1570 -0.7288  0.4981
15723TIP3    H268661   2.742   1.827   2.471  0.4083  0.1418 -0.4738
15724TIP3   OH268662   1.486   2.967   5.947  0.6374 -0.5795  0.0801
15724TIP3    H168663   1.538   2.938   5.872  0.4758  1.3723 -0.8496
15724TIP3    H268664   1.411   2.907   5.949  0.8702 -0.9278 -1.0667
15725TIP3   OH268665   3.104   2.084  12.628 -0.3178 -0.3035 -0.1310
15725TIP3    H168666   3.198   2.105  12.630 -0.5505  0.8536 -0.6731
15725TIP3    H268667   3.072   2.110  12.714 -0.3362  0.2592 -0.3077
15726TIP3   OH268668   0.427   4.877  15.905 -0.2470 -0.1421 -0.2944
15726TIP3    H168669   0.367   4.822  15.955 -0.5616 -0.2353 -0.7738
15726TIP3    H268670   0.462   4.939  15.970 -0.1655 -0.6651  0.1721
15727TIP3   OH268671   5.022   4.881   2.881  0.0360 -0.0617  0.6292
15727TIP3    H168672   5.092   4.919   2.934  0.8185 -0.3880 -0.1341
15727TIP3    H268673   4.970   4.957   2.852  1.1708  0.3922 -0.3116
15728TIP3   OH268674   4.677   1.582  15.888 -0.6531 -0.1951 -0.3362
15728TIP3    H168675   4.605   1.645  15.890 -0.2368  0.3853 -1.9506
15728TIP3    H268676   4.637   1.499  15.914 -1.4689  0.4837  0.6595
15729TIP3   OH268677   0.777   5.803   3.734 -0.2618  0.2440 -0.3507
15729TIP3    H168678   0.862   5.831   3.699 -0.4270  1.1913 -0.0441
15729TIP3    H268679   0.786   5.709   3.746  1.3976  0.5692  1.4035
15730TIP3   OH268680   4.327   1.368  17.375  0.1940  0.6762  0.5775
15730TIP3    H168681   4.257   1.388  17.313  0.6740  0.8856  0.0942
15730TIP3    H268682   4.348   1.453  17.415  1.6913  1.0716 -0.9040
15731TIP3   OH268683   6.499   4.827  12.708 -0.0149 -0.4495  0.0094
15731TIP3    H168684   6.543   4.870  12.635  0.5773  0.0556  0.6515
15731TIP3    H268685   6.444   4.895  12.747 -0.2713 -0.6962  0.0821
15732TIP3   OH268686   6.719   4.412  14.347 -0.6811  0.2606  0.0567
15732TIP3    H168687   6.710   4.484  14.285 -0.3440  1.3080  1.1828
15732TIP3    H268688   6.641   4.419  14.403 -0.3882  0.0631  0.4908
15733TIP3   OH268689   3.227   3.216  11.071 -0.3812 -0.3158  0.7448
15733TIP3    H168690   3.131   3.218  11.066 -0.4146 -0.4857  1.2982
15733TIP3    H268691   3.250   3.295  11.120 -0.1141  0.7676 -1.0223
15734TIP3   OH268692   6.362   4.503  12.942  0.4673 -0.0475 -0.2483
15734TIP3    H168693   6.375   4.506  12.848 -1.5575 -0.3330 -0.5843
15734TIP3    H268694   6.447   4.526  12.979  0.5343  3.2747 -2.1289
15735TIP3   OH268695   6.117   3.230  15.519  0.4782 -0.0978 -0.4575
15735TIP3    H168696   6.101   3.136  15.524 -1.2189  0.1060 -1.3647
15735TIP3    H268697   6.041   3.265  15.474  0.7620  1.8149  0.4419
15736TIP3   OH268698   6.201   5.634   1.335  0.3312  0.0299  0.3958
15736TIP3    H168699   6.178   5.666   1.422 -0.4396 -1.4891  0.7809
15736TIP3    H268700   6.223   5.713   1.286 -2.1709  1.2569  1.0917
15737TIP3   OH268701   1.910   0.517   1.368  0.4943  0.3114  0.3312
15737TIP3    H168702   1.862   0.600   1.372  1.8406  1.2317 -1.1977
15737TIP3    H268703   1.971   0.521   1.442 -0.2593  0.1104  0.9804
15738TIP3   OH268704   2.539   6.319   3.580 -0.2565 -0.1784 -0.3049
15738TIP3    H168705   2.511   6.273   3.660  1.0256  0.3220  0.4683
15738TIP3    H268706   2.611   6.266   3.546  0.0657  0.3099 -0.3918
15739TIP3   OH268707   5.208   5.312   5.080  0.5175  0.0054 -0.4149
15739TIP3    H168708   5.252   5.384   5.125 -0.7200  0.6616 -0.2066
15739TIP3    H268709   5.116   5.338   5.076  0.0564 -1.5073 -0.4604
15740TIP3   OH268710   6.034   1.905  14.715  0.0342 -0.9026  0.0296
15740TIP3    H168711   6.059   1.947  14.798 -1.8897 -1.3714  0.8918
15740TIP3    H268712   6.095   1.832  14.706  1.5770  0.3281 -0.0453
15741TIP3   OH268713   1.679   0.689  16.315  0.3619 -0.3833  0.1062
15741TIP3    H168714   1.603   0.641  16.281  0.4350 -0.0281 -0.5690
15741TIP3    H268715   1.716   0.630  16.381 -0.1631 -0.8077  0.0367
15742TIP3   OH268716   5.344   3.354   4.765 -0.1653 -0.4018 -0.0994
15742TIP3    H168717   5.333   3.408   4.843  2.1303  1.7809 -1.1788
15742TIP3    H268718   5.411   3.398   4.714 -0.8306 -2.3192 -2.8526
15743TIP3   OH268719   3.497   0.354   4.358  0.2009  0.4092  0.0785
15743TIP3    H168720   3.565   0.406   4.316 -1.0569  0.3964 -2.0565
15743TIP3    H268721   3.434   0.418   4.391 -0.1693  0.3332 -0.4727
15744TIP3   OH268722   3.899   5.032  15.423  0.4807  0.1825  0.2857
15744TIP3    H168723   3.848   5.007  15.345  1.2727 -0.1713 -0.1234
15744TIP3    H268724   3.952   5.105  15.394 -0.4583  1.1762  0.9747
15745TIP3   OH268725   3.397   1.002   0.764 -0.0860  0.2875 -0.2473
15745TIP3    H168726   3.358   1.083   0.730 -1.1432  0.0496  0.3253
15745TIP3    H268727   3.390   1.011   0.860  0.2123 -0.2710 -0.1704
15746TIP3   OH268728   3.603   0.293   0.791 -0.2477  0.5145 -0.0284
15746TIP3    H168729   3.522   0.323   0.750  0.3988  1.7650 -0.4363
15746TIP3    H268730   3.606   0.339   0.875 -0.6079 -0.5771  0.6164
15747TIP3   OH268731   6.679   1.168  16.361  0.2853  0.3503 -0.0832
15747TIP3    H168732   6.659   1.221  16.439  0.7494  1.5481 -0.7482
15747TIP3    H268733   6.758   1.120  16.385 -0.8052 -1.0007  0.9573
15748TIP3   OH268734   0.204   6.362   1.755 -0.0260 -0.0880  0.3707
15748TIP3    H168735   0.130   6.330   1.807  1.6405  0.3371  3.2568
15748TIP3    H268736   0.248   6.282   1.724 -1.7281 -0.3392 -1.5723
15749TIP3   OH268737   4.104   2.167   0.295  0.3454 -0.2822  0.1100
15749TIP3    H168738   4.088   2.125   0.211 -1.0436 -0.4109  0.4230
15749TIP3    H268739   4.129   2.096   0.354 -1.4209 -0.6177  0.4904
15750TIP3   OH268740   2.090   0.509   0.252  0.0725  0.3082 -1.0598
15750TIP3    H168741   2.021   0.575   0.260 -0.0279  0.0737  0.4126
15750TIP3    H268742   2.071   0.463   0.170 -1.6314  0.1486 -0.6078
15751TIP3   OH268743   2.625   0.637  15.915  0.5090 -0.3909  0.0872
15751TIP3    H168744   2.698   0.588  15.876  1.5667  0.5659  0.8038
15751TIP3    H268745   2.644   0.729  15.896 -0.5036 -0.1211  0.3147
15752TIP3   OH268746   1.219   6.280   2.730  0.0854  0.0499 -0.2060
15752TIP3    H168747   1.279   6.234   2.672  0.3509 -0.9176  0.7968
15752TIP3    H268748   1.262   6.364   2.748  1.2401 -0.6878  0.6221
15753TIP3   OH268749   2.233   5.396   6.545 -0.1687 -0.5141 -0.1680
15753TIP3    H168750   2.161   5.454   6.570  0.2701  0.3270 -0.7866
15753TIP3    H268751   2.290   5.395   6.621 -1.1897 -1.7961  0.6164
15754TIP3   OH268752   1.250   2.276  14.754 -0.9414 -0.3882  0.2971
15754TIP3    H168753   1.158   2.293  14.736 -0.3503  2.5009 -0.4154
15754TIP3    H268754   1.297   2.349  14.713  1.7698 -2.2872 -0.2494
15755TIP3   OH268755   3.555   6.126  15.468  0.2741  0.5719  0.1683
15755TIP3    H168756   3.533   6.083  15.385  0.0931 -1.6771  1.3172
15755TIP3    H268757   3.644   6.156  15.456  0.6185 -0.6437 -0.5243
15756TIP3   OH268758   6.202   0.066   3.789  0.1895  0.1296  0.1300
15756TIP3    H168759   6.275   0.127   3.787  0.9031 -0.5247 -4.5144
15756TIP3    H268760   6.128   0.115   3.752 -1.0272 -0.1029  2.0842
15757TIP3   OH268761   5.937   4.586   2.106  0.6164 -0.6274  0.1109
15757TIP3    H168762   5.915   4.576   2.013  3.6886 -2.1980 -0.5710
15757TIP3    H268763   6.031   4.601   2.107  0.4153  1.1790  2.9553
15758TIP3   OH268764   0.875   4.859  14.643 -0.0543  0.3808  0.1067
15758TIP3    H168765   0.863   4.778  14.592  4.0939 -1.5492  1.6661
15758TIP3    H268766   0.906   4.923  14.579 -0.1764 -0.3196 -0.6783
15759TIP3   OH268767   2.241   2.718   2.479 -0.0809  0.2709  0.2956
15759TIP3    H168768   2.238   2.810   2.454  0.5448  0.0108 -0.8460
15759TIP3    H268769   2.179   2.675   2.419  0.6967 -0.2334 -0.1683
15760TIP3   OH268770   3.965   4.168  16.870 -0.2219  0.4481 -0.1845
15760TIP3    H168771   3.890   4.164  16.811 -0.8441 -0.4847  0.6379
15760TIP3    H268772   3.932   4.210  16.949  0.6004  1.6754 -0.4627
15761TIP3   OH268773   6.387   4.525  15.639  0.3267  0.0567  0.1662
15761TIP3    H168774   6.480   4.544  15.621  0.2865 -1.0536 -1.4142
15761TIP3    H268775   6.340   4.580  15.577  0.0744 -1.7783 -1.3541
15762TIP3   OH268776   5.480   2.136  10.896  0.0784  0.6155  0.4114
15762TIP3    H168777   5.462   2.173  10.809  0.7291  0.8538  0.3789
15762TIP3    H268778   5.570   2.104  10.891 -0.3450 -0.6681  0.5541
15763TIP3   OH268779   0.354   0.095   1.963  0.1736  0.0236 -0.3810
15763TIP3    H168780   0.346   0.029   1.894 -0.2080  0.0400 -0.3580
15763TIP3    H268781   0.264   0.106   1.995  0.1038  1.0792 -0.8884
15764TIP3   OH268782   6.194   4.565   2.781 -0.0852  0.1725  0.3952
15764TIP3    H168783   6.162   4.535   2.866 -0.1023 -2.0334 -0.3205
15764TIP3    H268784   6.148   4.647   2.765 -1.4712 -0.3152  1.6859
15765TIP3   OH268785   1.887   1.832   1.622  0.3613 -0.1122 -0.3801
15765TIP3    H168786   1.979   1.825   1.596  0.2693  1.6374 -1.3004
15765TIP3    H268787   1.854   1.742   1.619  2.3637 -0.9777  1.3160
15766TIP3   OH268788   6.629   6.375   5.588  0.4026 -0.0518  0.0769
15766TIP3    H168789   6.541   6.413   5.589  1.2238  1.9266  0.4304
15766TIP3    H268790   6.669   6.409   5.508  1.7467  1.2977  1.2701
15767TIP3   OH268791   3.533   5.621  11.411  0.2692  0.0775  0.0562
15767TIP3    H168792   3.609   5.614  11.353 -1.1134 -2.2269 -1.6280
15767TIP3    H268793   3.458   5.614  11.353 -1.2103 -0.1629  1.9168
15768TIP3   OH268794   1.347   1.882  13.214 -0.7960 -0.4523 -0.3792
15768TIP3    H168795   1.259   1.879  13.177  0.1847 -2.2373 -2.8828
15768TIP3    H268796   1.350   1.811  13.277 -1.6692  0.8706  1.2273
15769TIP3   OH268797   2.822   0.499  11.098  0.4247  0.0989 -0.0893
15769TIP3    H168798   2.787   0.588  11.093  0.0163 -0.0567 -0.0123
15769TIP3    H268799   2.755   0.445  11.057  1.3490  0.0023 -1.5639
15770TIP3   OH268800   1.589   6.066   3.152 -0.0815 -0.1918 -0.0024
15770TIP3    H168801   1.634   6.124   3.214 -0.1743  1.1403 -1.1257
15770TIP3    H268802   1.647   5.990   3.144  1.9622  1.3706 -1.2545
15771TIP3   OH268803   3.637   1.956   0.991  0.0351 -0.4730  0.1471
15771TIP3    H168804   3.564   1.994   0.941 -0.0566  0.5098  0.9967
15771TIP3    H268805   3.613   1.970   1.083  1.0540 -0.6229  0.4472
15772TIP3   OH268806   0.753   5.375  11.438  0.0340 -0.2827  0.2519
15772TIP3    H168807   0.667   5.417  11.437 -0.1171 -0.5743 -0.7021
15772TIP3    H268808   0.743   5.300  11.379  1.0933 -0.0105 -0.3033
15773TIP3   OH268809   3.713   6.348  14.012 -0.2156  0.6429 -0.3744
15773TIP3    H168810   3.631   6.360  14.059 -0.6273  0.4770 -1.0275
15773TIP3    H268811   3.739   6.258  14.031 -0.8596  0.2674 -1.1700
15774TIP3   OH268812   0.435   3.097  10.898 -0.2413  0.2338 -0.2154
15774TIP3    H168813   0.509   3.157  10.890 -0.3338  0.4302  0.3502
15774TIP3    H268814   0.391   3.101  10.813 -0.5592  1.3817 -0.0034
15775TIP3   OH268815   2.910   5.143  13.723  0.1377  0.0745 -0.3840
15775TIP3    H168816   2.969   5.108  13.790  0.1816  0.1317 -0.3931
15775TIP3    H268817   2.940   5.103  13.642  1.0901  1.2133 -0.6168
15776TIP3   OH268818   4.678   3.406  14.659  0.6187  0.1249 -0.1804
15776TIP3    H168819   4.677   3.405  14.755  1.7087 -1.0046 -0.1479
15776TIP3    H268820   4.769   3.424  14.637  0.5063 -0.2703 -0.9911
15777TIP3   OH268821   2.136   6.179  11.846  0.2436 -0.4078 -0.0610
15777TIP3    H168822   2.124   6.260  11.796 -0.0799 -0.8184 -0.6695
15777TIP3    H268823   2.171   6.208  11.930 -1.1767  0.4811  0.2493
15778TIP3   OH268824   5.471   1.495   5.135 -0.7751  0.2296  0.1630
15778TIP3    H168825   5.563   1.518   5.129 -0.7658  0.6240  1.4778
15778TIP3    H268826   5.469   1.399   5.132 -0.3608  0.2343 -0.2572
15779TIP3   OH268827   4.360   3.113  11.582 -0.0833 -0.0645 -0.2180
15779TIP3    H168828   4.315   3.181  11.531  0.4525 -0.2997 -1.0267
15779TIP3    H268829   4.289   3.064  11.624 -0.4433  1.5825  1.1883
15780TIP3   OH268830   5.181   2.480  11.391 -0.1517 -0.5967  0.5887
15780TIP3    H168831   5.183   2.384  11.385 -2.9528 -0.6236 -2.1355
15780TIP3    H268832   5.113   2.498  11.456  0.4616 -0.3841  1.1942
15781TIP3   OH268833   1.599   2.450   4.777 -0.0644  0.1867  0.0604
15781TIP3    H168834   1.678   2.485   4.735  0.1803  1.3104  1.3775
15781TIP3    H268835   1.596   2.494   4.861 -0.7938 -1.6464  1.0451
15782TIP3   OH268836   4.683   2.181  13.326  0.2378 -0.0364 -0.0341
15782TIP3    H168837   4.705   2.267  13.289  1.3544  0.3764  1.4953
15782TIP3    H268838   4.646   2.132  13.253 -0.8617  1.8942 -0.8441
15783TIP3   OH268839   2.441   0.064  16.041 -0.2159  0.0488 -0.0653
15783TIP3    H168840   2.423  -0.018  16.087 -0.8433  0.5619  0.6393
15783TIP3    H268841   2.442   0.130  16.111  0.2468  0.6478 -0.6271
15784TIP3   OH268842   3.745   5.661   2.233 -0.2128  0.8484  0.4896
15784TIP3    H168843   3.674   5.635   2.292  1.1889  0.1134  1.9248
15784TIP3    H268844   3.730   5.609   2.154 -1.1969  0.6033  0.8182
15785TIP3   OH268845   6.532   2.693  14.830  0.2757 -0.1158  0.2977
15785TIP3    H168846   6.499   2.658  14.913  0.2479 -0.5215  0.1160
15785TIP3    H268847   6.605   2.636  14.806 -0.4817 -0.7527 -0.5681
15786TIP3   OH268848   1.199   1.252   3.803  0.2218  0.2646  0.1719
15786TIP3    H168849   1.203   1.333   3.855 -0.1969 -0.6024  1.5970
15786TIP3    H268850   1.125   1.204   3.839  0.2897 -0.6304 -0.8558
15787TIP3   OH268851   4.030   2.378  11.168 -0.1224  0.1809  0.2456
15787TIP3    H168852   4.048   2.292  11.130 -1.5808 -0.3657  0.7534
15787TIP3    H268853   3.995   2.429  11.095 -4.2924 -1.2970  0.9604
15788TIP3   OH268854   1.751   1.490   0.656 -0.2411 -0.3358  0.4652
15788TIP3    H168855   1.756   1.570   0.710  1.0574 -1.3440  1.9269
15788TIP3    H268856   1.659   1.464   0.660 -0.7285  1.1673 -0.2017
15789TIP3   OH268857   2.807   4.766   0.559  0.1295 -0.6743  0.0398
15789TIP3    H168858   2.882   4.816   0.591  0.6620 -0.4982 -1.4047
15789TIP3    H268859   2.762   4.736   0.638  0.8306  0.5424  0.9267
15790TIP3   OH268860   6.536   5.653  16.472 -0.1251  0.7165 -0.1856
15790TIP3    H168861   6.598   5.636  16.542 -1.2074  0.8879  0.8441
15790TIP3    H268862   6.519   5.566  16.434  1.6675  0.8130 -1.3400
15791TIP3   OH268863   3.940   4.175  11.544  0.0432 -0.6422  0.5091
15791TIP3    H168864   3.936   4.118  11.468 -1.2003 -0.0419  0.0855
15791TIP3    H268865   3.860   4.229  11.538  1.4485  1.5778  0.5394
15792TIP3   OH268866   5.761   2.440  14.898  0.2870  0.0240 -0.1118
15792TIP3    H168867   5.793   2.350  14.896  0.3712  0.0610 -0.4135
15792TIP3    H268868   5.798   2.481  14.820 -0.7627 -0.0259 -0.6646
15793TIP3   OH268869   4.293   0.491  15.225  0.2255  0.3662 -0.3797
15793TIP3    H168870   4.220   0.553  15.225  0.4968  0.6988  0.7300
15793TIP3    H268871   4.292   0.454  15.136 -0.0895  1.7793 -0.9989
15794TIP3   OH268872   0.812   0.271  12.652  0.5602  0.0712  0.5694
15794TIP3    H168873   0.759   0.224  12.588 -0.8792  3.9886 -1.4786
15794TIP3    H268874   0.896   0.285  12.608  0.0410  1.5722 -0.0405
15795TIP3   OH268875   6.132   0.384  14.428 -0.2100  0.0282 -0.0078
15795TIP3    H168876   6.181   0.302  14.435 -0.9187 -0.3387  0.8046
15795TIP3    H268877   6.041   0.359  14.440 -0.6284  0.7007 -1.5551
15796TIP3   OH268878   2.576   2.195   1.171  0.0405 -0.4399 -0.3051
15796TIP3    H168879   2.502   2.216   1.114 -0.6313 -1.7051  0.0632
15796TIP3    H268880   2.537   2.144   1.242  1.1989 -0.7121  0.1512
15797TIP3   OH268881   0.418   5.373   1.057  0.5184 -0.4221  0.1797
15797TIP3    H168882   0.325   5.387   1.076  0.6710 -0.4053  0.9849
15797TIP3    H268883   0.421   5.346   0.966 -0.0181  2.6336 -0.8525
15798TIP3   OH268884   1.222   0.087   2.904 -0.1755 -0.4995 -0.0459
15798TIP3    H168885   1.134   0.051   2.912 -0.1726 -0.6478 -0.6851
15798TIP3    H268886   1.228   0.116   2.813  0.9799 -1.9268 -0.4610
15799TIP3   OH268887   1.587   4.687   2.157 -0.1109  0.3078  0.1010
15799TIP3    H168888   1.616   4.667   2.068 -0.6537  1.5811 -0.3978
15799TIP3    H268889   1.527   4.617   2.180 -2.3379  1.5006 -1.7514
15800TIP3   OH268890   6.606   0.356  15.057  0.2275  0.0727  0.1859
15800TIP3    H168891   6.624   0.418  15.128 -0.1955 -0.7385  1.0233
15800TIP3    H268892   6.688   0.310  15.044 -0.2635 -1.3091  1.7011
15801TIP3   OH268893   4.369   4.282   5.104  0.3015 -0.2235  0.8865
15801TIP3    H168894   4.376   4.210   5.167 -0.2184  0.2786  1.5296
15801TIP3    H268895   4.420   4.252   5.029 -1.4132 -2.1030  0.3564
15802TIP3   OH268896   2.775   2.308  12.461  0.4761  0.0655 -0.4008
15802TIP3    H168897   2.727   2.322  12.543 -1.3807 -0.7487 -1.2886
15802TIP3    H268898   2.786   2.214  12.455  0.9697  0.1512 -0.9090
15803TIP3   OH268899   0.235   2.542   0.315  0.0282  0.6862  0.4548
15803TIP3    H168900   0.286   2.553   0.395  0.9348 -1.0176  0.1607
15803TIP3    H268901   0.299   2.519   0.248 -0.7856  1.5022 -0.6489
15804TIP3   OH268902   6.578   5.490   1.517  0.6655  0.4205  0.0069
15804TIP3    H168903   6.519   5.415   1.513 -1.9048  2.3038  0.3739
15804TIP3    H268904   6.521   5.566   1.510  3.3540  2.4177 -3.3410
15805TIP3   OH268905   1.325   2.540   3.927 -0.4768  0.4454  0.4834
15805TIP3    H168906   1.384   2.597   3.877  2.6356 -0.4884  2.8107
15805TIP3    H268907   1.286   2.483   3.861  0.2477  1.9021 -1.3038
15806TIP3   OH268908   4.556   6.702  17.326  0.1388  0.2326  0.0544
15806TIP3    H168909   4.482   6.654  17.289 -0.3572  0.3105  0.9230
15806TIP3    H268910   4.523   6.739  17.408  0.9101  0.9326  0.0656
15807TIP3   OH268911   4.373   6.604  15.750  0.2499  0.8271 -0.1985
15807TIP3    H168912   4.345   6.519  15.785 -1.6303  1.2222 -0.6114
15807TIP3    H268913   4.401   6.585  15.661 -0.7306  0.7043 -0.4932
15808TIP3   OH268914   1.028   3.829  16.533 -0.5117  0.0518 -0.6361
15808TIP3    H168915   1.019   3.920  16.506  0.6362 -0.4435 -3.0079
15808TIP3    H268916   0.953   3.784  16.493 -1.8070  0.0934  1.5989
15809TIP3   OH268917   1.032   6.009   0.710 -0.0422  0.3871  0.4310
15809TIP3    H168918   0.941   5.994   0.737 -0.2200  1.3102  0.3946
15809TIP3    H268919   1.079   6.024   0.792 -0.4320  2.4117  0.3490
15810TIP3   OH268920   4.631   3.695   5.992 -0.0298  0.5004 -0.2069
15810TIP3    H168921   4.725   3.680   5.981  0.0233  2.0743 -2.7837
15810TIP3    H268922   4.604   3.632   6.059  2.7897 -0.1732  0.4195
15811TIP3   OH268923   3.875   0.622  15.064 -0.5564 -0.0148  0.3503
15811TIP3    H168924   3.928   0.581  14.996 -1.2510 -0.7313  0.2247
15811TIP3    H268925   3.843   0.703  15.024  1.8823  1.3765  1.0432
15812TIP3   OH268926   4.075   0.413   4.368  0.1702 -0.9204  0.6568
15812TIP3    H168927   4.104   0.488   4.316  1.2469 -1.3134  0.6734
15812TIP3    H268928   3.984   0.401   4.343  0.6619 -1.1202 -1.1815
15813TIP3   OH268929   6.684   2.347   1.336 -0.1234  0.2066  0.1087
15813TIP3    H168930   6.687   2.297   1.418 -1.4345 -1.0234 -0.5469
15813TIP3    H268931   6.766   2.324   1.292 -0.2466 -0.5802  0.2712
15814TIP3   OH268932   4.346   2.985   3.837 -0.0266  0.3561  0.0381
15814TIP3    H168933   4.355   2.950   3.925 -0.6285  2.6077  1.0594
15814TIP3    H268934   4.265   3.036   3.839  0.8949  1.9697 -1.2576
15815TIP3   OH268935   2.517   2.807   2.861 -0.2337  0.3613 -0.7679
15815TIP3    H168936   2.546   2.871   2.925  0.4406 -1.1750  0.5112
15815TIP3    H268937   2.425   2.830   2.844  0.1620  1.9990 -0.7929
15816TIP3   OH268938   5.750   3.652   3.279  0.7265 -0.0905  0.3299
15816TIP3    H168939   5.746   3.557   3.267 -1.3392 -0.2014  1.5074
15816TIP3    H268940   5.838   3.668   3.313  0.2299 -1.9744  2.7592
15817TIP3   OH268941   1.950   5.610   0.619 -0.9090 -0.3205  0.1615
15817TIP3    H168942   1.988   5.687   0.575  0.3664 -0.7792  0.4195
15817TIP3    H268943   1.953   5.541   0.552 -0.4522 -0.5900  0.4509
15818TIP3   OH268944   4.676   1.305   3.511  0.1822  0.7032 -0.0215
15818TIP3    H168945   4.642   1.216   3.504  0.2957  0.7030 -0.6299
15818TIP3    H268946   4.731   1.304   3.589 -0.7351  0.5468  0.6422
15819TIP3   OH268947   3.574   2.391   1.967 -0.1801  0.1279  0.2664
15819TIP3    H168948   3.612   2.442   2.038  1.2597  0.7340 -0.8843
15819TIP3    H268949   3.504   2.341   2.008 -0.2443  1.4389  1.8372
15820TIP3   OH268950   6.251   0.932  15.547 -0.5145  0.0555  0.0513
15820TIP3    H168951   6.263   0.839  15.527  0.6289  0.2673 -0.3539
15820TIP3    H268952   6.307   0.977  15.484  0.7204  0.9110  1.6589
15821TIP3   OH268953   5.653   2.401   2.205 -0.2930  0.1370 -0.7229
15821TIP3    H168954   5.722   2.396   2.271 -0.4148 -1.9082 -0.6701
15821TIP3    H268955   5.670   2.482   2.158  0.6146  0.9458  0.9295
15822TIP3   OH268956   1.490   2.793  14.728 -0.4854 -0.3168 -0.0092
15822TIP3    H168957   1.547   2.814  14.655 -2.1904 -0.3246 -1.4052
15822TIP3    H268958   1.445   2.875  14.748  0.2709 -0.2020  1.3499
15823TIP3   OH268959   6.470   2.341   5.929 -0.0318 -0.1070 -0.0979
15823TIP3    H168960   6.450   2.310   6.017 -0.1774 -1.2041 -0.4895
15823TIP3    H268961   6.447   2.267   5.872 -0.1631  0.6617 -1.0771
15824TIP3   OH268962   1.816   1.578  14.362 -0.3902  0.0846 -0.0947
15824TIP3    H168963   1.882   1.509  14.355 -0.5354 -0.1028  0.3564
15824TIP3    H268964   1.763   1.569  14.283  0.1335  0.2483 -0.4698
15825TIP3   OH268965   5.542   3.652  14.804 -0.0696 -0.3072 -0.5012
15825TIP3    H168966   5.572   3.740  14.828 -0.5663 -0.7382  2.0782
15825TIP3    H268967   5.619   3.597  14.813  0.2030 -0.1902 -1.9550
15826TIP3   OH268968   0.470   4.365  10.666  0.1916 -0.9171  0.0286
15826TIP3    H168969   0.376   4.373  10.655 -0.1596 -2.7331  1.2286
15826TIP3    H268970   0.486   4.387  10.758  1.0605  0.0603 -0.3270
15827TIP3   OH268971   3.571   5.304  15.255  0.0188  0.3730 -0.2143
15827TIP3    H168972   3.552   5.266  15.340 -1.2202 -0.1801 -0.7078
15827TIP3    H268973   3.494   5.284  15.202 -0.2130  2.6230 -0.8366
15828TIP3   OH268974   6.248   1.777  12.477 -0.4374  0.1002  0.3482
15828TIP3    H168975   6.278   1.867  12.462  1.2755 -0.4418  0.2894
15828TIP3    H268976   6.318   1.722  12.442 -1.1987 -1.2617  0.8816
15829TIP3   OH268977   2.106   1.109   3.886 -0.1099 -0.3739 -0.3298
15829TIP3    H168978   2.105   1.104   3.790  1.2235 -3.1274 -0.3000
15829TIP3    H268979   2.015   1.128   3.910 -1.2167 -2.9652 -2.0841
15830TIP3   OH268980   1.600   5.113  12.218 -0.4424  0.1684  0.5786
15830TIP3    H168981   1.545   5.111  12.297 -1.5755 -0.2900 -0.1953
15830TIP3    H268982   1.538   5.115  12.146  0.5606 -0.7034 -0.3438
15831TIP3   OH268983   3.009   5.035  17.240  0.3430  0.4076  0.7837
15831TIP3    H168984   2.980   4.974  17.308 -0.6774  0.0150  0.0058
15831TIP3    H268985   3.037   5.112  17.289 -1.3078  0.5200  1.6235
15832TIP3   OH268986   0.934   4.655   3.125 -0.2483 -0.5897  0.4232
15832TIP3    H168987   0.991   4.593   3.171  0.0133 -0.6801 -0.0206
15832TIP3    H268988   0.987   4.735   3.118 -0.6618 -0.2365  1.1854
15833TIP3   OH268989   6.725   6.668  17.170  0.2135 -0.3543  0.0269
15833TIP3    H168990   6.674   6.680  17.250 -0.9050  1.8884 -0.9151
15833TIP3    H268991   6.734   6.573  17.160 -0.9696 -0.7128  1.9500
15834TIP3   OH268992   1.703   2.674   0.033 -0.2899  0.3291  0.3618
15834TIP3    H168993   1.742   2.664  -0.054  0.8085 -0.5159  0.9401
15834TIP3    H268994   1.770   2.718   0.085 -0.5268 -0.1328  1.0711
15835TIP3   OH268995   5.917   4.305  11.764 -0.9955 -0.0955 -0.0511
15835TIP3    H168996   5.839   4.355  11.736 -0.2817  0.9762 -0.1930
15835TIP3    H268997   5.966   4.291  11.683 -1.3769 -1.4153 -0.0786
15836TIP3   OH268998   5.153   5.469   3.182 -0.1502 -0.0227  0.4913
15836TIP3    H168999   5.232   5.443   3.135 -0.3837  1.9632 -1.1298
15836TIP3    H269000   5.111   5.386   3.205  1.2571 -1.0986 -0.6082
15837TIP3   OH269001   3.619   2.703   6.427  0.0025  0.1130 -0.3710
15837TIP3    H169002   3.624   2.610   6.447  3.1938  0.2732  0.2198
15837TIP3    H269003   3.633   2.747   6.511  1.5432  1.0166 -1.0550
15838TIP3   OH269004   3.675   0.984   2.380  0.1045  0.2389  0.6312
15838TIP3    H169005   3.740   0.914   2.371 -1.1011 -0.7644 -0.7516
15838TIP3    H269006   3.639   0.995   2.292  0.0440  2.4222  0.8729
15839TIP3   OH269007   3.424   4.686   1.917 -0.2831 -0.3111  0.5327
15839TIP3    H169008   3.334   4.657   1.929  0.1930 -1.6090  1.0965
15839TIP3    H269009   3.423   4.733   1.833 -1.1555 -1.7593 -0.3111
15840TIP3   OH269010   3.249   4.586  13.275 -0.0840  0.4842 -0.0484
15840TIP3    H169011   3.162   4.625  13.283  0.0637  0.7703  0.1525
15840TIP3    H269012   3.302   4.633  13.339  0.3004  0.5303 -0.4040
15841TIP3   OH269013   5.349   5.063  12.212 -0.1349 -0.8580 -0.2190
15841TIP3    H169014   5.303   5.131  12.163  1.5510 -0.0555 -0.7467
15841TIP3    H269015   5.392   5.010  12.145 -0.9026 -2.0939  0.2269
15842TIP3   OH269016   2.644   6.648  12.774 -0.0681 -0.1112 -0.8792
15842TIP3    H169017   2.731   6.649  12.735  0.0700  0.6599 -0.5665
15842TIP3    H269018   2.652   6.591  12.850  0.4846  0.8947 -0.1600
15843TIP3   OH269019   4.196   1.115   4.032  0.4406  0.1232  0.1162
15843TIP3    H169020   4.210   1.061   4.110  0.7469 -1.8705 -1.2432
15843TIP3    H269021   4.282   1.120   3.991  0.3921  1.6048  0.1395
15844TIP3   OH269022   1.536   4.764   4.799 -0.4440  0.2155 -0.2053
15844TIP3    H169023   1.605   4.750   4.863 -1.4814 -0.3223  0.8177
15844TIP3    H269024   1.465   4.804   4.848 -1.4251 -0.6209 -0.9058
15845TIP3   OH269025   1.634   5.967   5.655 -0.0491 -0.1704  0.1185
15845TIP3    H169026   1.694   5.981   5.728 -1.4050 -1.5972  1.5723
15845TIP3    H269027   1.547   5.983   5.692 -0.7025  0.2007 -1.4967
15846TIP3   OH269028   1.276   3.592  16.911 -0.6594  0.2743 -0.1112
15846TIP3    H169029   1.210   3.642  16.957 -1.6880 -1.0379 -0.1162
15846TIP3    H269030   1.277   3.506  16.954  2.0289  0.6508  0.8070
15847TIP3   OH269031   0.400   1.578   4.216  0.1560  0.6051  0.5898
15847TIP3    H169032   0.343   1.644   4.175 -1.0284 -1.2499 -0.9594
15847TIP3    H269033   0.473   1.629   4.252  0.1367  2.6451 -1.9168
15848TIP3   OH269034   5.022   0.305   1.528 -0.7490  0.1010  0.3995
15848TIP3    H169035   4.998   0.397   1.520  0.2973  0.3538  0.0473
15848TIP3    H269036   4.938   0.258   1.526 -1.2022  0.9114 -1.2465
15849TIP3   OH269037   0.317   4.830   2.861  0.4342 -0.2423 -0.0075
15849TIP3    H169038   0.396   4.819   2.808  0.7261 -0.2266  0.4219
15849TIP3    H269039   0.302   4.925   2.863  1.4828 -0.0848  1.4653
15850TIP3   OH269040   4.796   6.283  13.970 -0.2179 -0.2585  0.2543
15850TIP3    H169041   4.723   6.319  14.020 -0.3887 -0.3629  0.0799
15850TIP3    H269042   4.762   6.273  13.881  0.1140  0.0201  0.0921
15851TIP3   OH269043   1.689   4.447  12.223  0.3270  0.1398  0.3392
15851TIP3    H169044   1.711   4.404  12.140  0.7925 -1.2955  1.1788
15851TIP3    H269045   1.771   4.486  12.252 -0.2919  2.6526 -0.9261
15852TIP3   OH269046   3.221   3.835  13.757  0.4102  0.3719  0.1572
15852TIP3    H169047   3.145   3.844  13.814  0.2176 -1.8389  0.3443
15852TIP3    H269048   3.276   3.911  13.778 -0.9965  1.1605  1.1517
15853TIP3   OH269049   6.264   6.662  11.474  0.0016  1.1800 -0.4199
15853TIP3    H169050   6.317   6.607  11.417 -0.1841 -0.9422  1.3309
15853TIP3    H269051   6.219   6.722  11.414  0.2916 -0.5094 -2.4511
15854TIP3   OH269052   3.304   3.987  11.765 -0.2527 -0.0621  0.5861
15854TIP3    H169053   3.384   3.977  11.714 -1.8291  1.7306 -2.4743
15854TIP3    H269054   3.233   3.980  11.701 -2.4798  0.5864  2.8324
15855TIP3   OH269055   0.679   3.273   0.694  0.4084 -0.5698 -0.4175
15855TIP3    H169056   0.662   3.367   0.690  1.1280 -0.3573  0.8762
15855TIP3    H269057   0.629   3.244   0.771  1.2242 -0.9874 -0.0359
15856TIP3   OH269058   2.906   2.976  13.976 -0.0967 -0.8614 -0.3293
15856TIP3    H169059   2.972   2.946  14.038 -2.4376 -0.6145  2.4976
15856TIP3    H269060   2.824   2.937  14.007 -1.6217  0.4033 -2.4847
15857TIP3   OH269061   0.358   3.722  12.920  0.4436  0.4831  0.0403
15857TIP3    H169062   0.412   3.660  12.871  0.8712  0.0632  1.0246
15857TIP3    H269063   0.306   3.766  12.853 -0.3856 -1.4031 -0.6265
15858TIP3   OH269064   5.610   6.328  13.358  0.2921 -0.1859 -0.0369
15858TIP3    H169065   5.698   6.318  13.322  0.2527  2.3636 -1.0232
15858TIP3    H269066   5.552   6.308  13.284  0.0096 -1.2508  0.4452
15859TIP3   OH269067   4.771   1.521   4.590  0.4065  0.0038 -0.2842
15859TIP3    H169068   4.709   1.581   4.547  0.1378 -0.7715 -1.0239
15859TIP3    H269069   4.790   1.562   4.674  0.2690  1.1474 -0.7869
15860TIP3   OH269070   4.434   3.288  11.258  0.0768 -0.7698 -0.1193
15860TIP3    H169071   4.472   3.296  11.170  1.8587 -0.7493  0.6229
15860TIP3    H269072   4.500   3.241  11.309  0.2169  1.4178  1.8798
15861TIP3   OH269073   5.601   4.937   3.486  0.1170  0.0853  0.0600
15861TIP3    H169074   5.637   5.018   3.522 -1.0199  0.2582  0.8726
15861TIP3    H269075   5.566   4.890   3.562 -0.0407 -0.7542 -0.5145
15862TIP3   OH269076   2.393   1.031   0.829 -0.1276 -0.0825 -0.3111
15862TIP3    H169077   2.382   1.111   0.880  0.0539 -0.3429  0.1332
15862TIP3    H269078   2.306   1.013   0.794 -0.1603  0.3305 -0.4465
15863TIP3   OH269079   4.405   5.250   5.489  0.0070 -0.3709 -0.3318
15863TIP3    H169080   4.415   5.213   5.576 -1.0026 -0.3145 -0.1842
15863TIP3    H269081   4.464   5.198   5.434  1.5918  0.3687  0.5690
15864TIP3   OH269082   6.014   0.189  11.349 -0.4281 -0.2646  0.3599
15864TIP3    H169083   6.026   0.269  11.297  0.4664 -1.0476 -0.6884
15864TIP3    H269084   6.071   0.125  11.307  1.2813 -0.6331  3.0248
15865TIP3   OH269085   6.759   0.825   3.831  0.4734 -0.4360  0.0268
15865TIP3    H169086   6.767   0.887   3.758 -1.6576 -0.0554  0.0633
15865TIP3    H269087   6.799   0.871   3.905 -1.5195  1.2037  0.1887
15866TIP3   OH269088   2.219   6.130   5.919  0.0621 -0.4548 -0.1822
15866TIP3    H169089   2.155   6.194   5.950 -1.7322 -1.4613 -1.6236
15866TIP3    H269090   2.188   6.046   5.953  0.6164 -0.9660 -0.9111
15867TIP3   OH269091   5.108   4.814   5.599 -1.0319  0.4917  0.6415
15867TIP3    H169092   5.093   4.866   5.678  2.2640  0.4191  1.4844
15867TIP3    H269093   5.163   4.741   5.629 -0.6519 -0.1666 -1.5190
15868TIP3   OH269094   3.045   3.410  13.606 -0.5205  0.1744 -0.5687
15868TIP3    H169095   3.094   3.412  13.688 -2.3666  0.1260  0.6064
15868TIP3    H269096   3.065   3.325  13.568  0.5809  0.3101 -0.3284
15869TIP3   OH269097   0.553   1.566   1.986  0.4403 -0.9812 -0.0167
15869TIP3    H169098   0.611   1.569   1.910 -0.4222 -0.1348 -0.6754
15869TIP3    H269099   0.486   1.502   1.962  0.3422 -0.9453  0.1585
15870TIP3   OH269100   2.612   5.296   4.434 -0.2110 -0.0072 -0.1971
15870TIP3    H169101   2.688   5.310   4.378  1.0519  1.5675  1.7504
15870TIP3    H269102   2.595   5.202   4.429  3.2976 -0.8651  0.9739
15871TIP3   OH269103   2.898   2.761   4.255 -0.2230 -0.0274  0.0380
15871TIP3    H169104   2.911   2.668   4.239  0.9124 -0.0091  0.7541
15871TIP3    H269105   2.948   2.804   4.185 -0.0574  0.0400  0.1967
15872TIP3   OH269106   1.495   4.445   2.208 -0.8663  0.1944  1.0430
15872TIP3    H169107   1.442   4.407   2.277 -0.0198 -0.0471  1.5658
15872TIP3    H269108   1.586   4.429   2.234 -0.5281  0.1629 -0.0801
15873TIP3   OH269109   6.685   3.683  16.832 -0.5562 -0.0767  0.2843
15873TIP3    H169110   6.671   3.641  16.748  1.2794  1.9868 -1.1812
15873TIP3    H269111   6.683   3.777  16.813  0.2353  0.4561  2.4708
15874TIP3   OH269112   3.567   3.293   3.540  0.2023 -0.2413  0.1612
15874TIP3    H169113   3.620   3.241   3.479 -0.2447  1.2516 -1.5778
15874TIP3    H269114   3.552   3.376   3.495  2.1705  2.1381  3.3966
15875TIP3   OH269115   5.686   2.834  14.791  0.4918 -0.1991  0.0111
15875TIP3    H169116   5.713   2.815  14.701  0.7600 -0.7089  0.1971
15875TIP3    H269117   5.591   2.848  14.785  0.7956  2.0181 -0.7162
15876TIP3   OH269118   4.524   0.230   5.700  0.2305  0.1329  0.0600
15876TIP3    H169119   4.556   0.293   5.764 -0.3250  0.6007 -0.1196
15876TIP3    H269120   4.444   0.194   5.739 -0.1170  0.4319 -0.3825
15877TIP3   OH269121   3.849   1.548   0.078  0.2303 -0.2102 -0.0261
15877TIP3    H169122   3.844   1.489   0.003 -0.7025 -0.2496  0.0582
15877TIP3    H269123   3.887   1.494   0.148  1.8938  0.0565 -0.6698
15878TIP3   OH269124   3.631   5.393  13.013 -0.3646 -0.4146  0.4022
15878TIP3    H169125   3.687   5.324  12.976 -1.0558 -0.6197 -0.2846
15878TIP3    H269126   3.641   5.383  13.107 -0.6055 -1.6039  0.3246
15879TIP3   OH269127   2.701   2.173   3.060 -0.2879  0.6509 -0.7981
15879TIP3    H169128   2.774   2.120   3.093 -0.7488 -0.9127 -2.1639
15879TIP3    H269129   2.642   2.183   3.135  0.3819  0.2354 -0.2095
15880TIP3   OH269130   2.041   0.349  11.348  0.2975  0.4287 -0.1111
15880TIP3    H169131   1.956   0.306  11.341  0.3170 -0.0763  2.0932
15880TIP3    H269132   2.085   0.305  11.420  1.0822  2.8419  1.0198
15881TIP3   OH269133   3.273   5.195  13.626 -0.3589  0.3484  0.2899
15881TIP3    H169134   3.233   5.255  13.563  0.2502  1.4239  0.8882
15881TIP3    H269135   3.208   5.126  13.640  0.2620 -1.0992 -3.0586
15882TIP3   OH269136   0.616   6.046  17.376 -0.4394 -0.2742  0.2042
15882TIP3    H169137   0.577   5.984  17.315 -0.8432  1.1863 -1.0644
15882TIP3    H269138   0.705   6.013  17.389 -1.3834 -2.5359  1.6024
15883TIP3   OH269139   6.544   4.331   4.328  0.6424 -0.2268  0.0878
15883TIP3    H169140   6.504   4.278   4.397  1.2391  0.2859  0.8502
15883TIP3    H269141   6.609   4.384   4.374  0.6044  0.5934 -0.7758
15884TIP3   OH269142   1.788   4.062   2.957  0.1346 -1.2429  0.6342
15884TIP3    H169143   1.756   4.095   2.873  1.8919  0.7184  0.6417
15884TIP3    H269144   1.844   3.988   2.935  0.6041 -0.7233  0.0520
15885TIP3   OH269145   4.697   0.144  16.770 -0.0267 -0.1012  0.6803
15885TIP3    H169146   4.691   0.154  16.865 -2.0761  1.2718  0.4811
15885TIP3    H269147   4.742   0.223  16.740  1.1263 -0.7978  0.5248
15886TIP3   OH269148   4.208   2.400  10.889 -0.1919  0.6195  0.2993
15886TIP3    H169149   4.191   2.312  10.922 -0.4981  0.8825  0.8626
15886TIP3    H269150   4.136   2.453  10.925  0.6339  1.3295  0.9390
15887TIP3   OH269151   6.118   4.106   3.110  0.5971  0.0342  0.4170
15887TIP3    H169152   6.032   4.065   3.106  0.4591  0.3461  0.2212
15887TIP3    H269153   6.173   4.052   3.052  0.7809 -0.7467  1.2976
15888TIP3   OH269154   3.385   1.582  14.777 -0.1870 -0.6953 -0.2015
15888TIP3    H169155   3.321   1.653  14.791  0.0120 -0.4713 -0.4277
15888TIP3    H269156   3.457   1.623  14.730 -0.1853 -1.1109 -0.5689
15889TIP3   OH269157   3.976   5.307  17.389 -0.2914 -0.0835 -0.1323
15889TIP3    H169158   3.938   5.314  17.302  0.5554  1.3957 -0.4198
15889TIP3    H269159   3.936   5.379  17.439  0.9628  0.5463 -0.0050
15890TIP3   OH269160   5.259   0.458  17.294  0.4538  0.1498  0.2440
15890TIP3    H169161   5.188   0.521  17.288  1.4361  1.6641  2.7740
15890TIP3    H269162   5.321   0.484  17.226 -0.2787  0.3435 -0.3536
15891TIP3   OH269163   3.378   2.862  11.507  0.4579  0.2709  0.1343
15891TIP3    H169164   3.387   2.768  11.490 -1.5634  0.0588 -0.0655
15891TIP3    H269165   3.333   2.896  11.430  0.4872  1.2713  0.5435
15892TIP3   OH269166   3.755   5.131  14.940 -0.4130  0.3861  0.6432
15892TIP3    H169167   3.795   5.199  14.994  1.0173  0.7263 -0.7691
15892TIP3    H269168   3.710   5.179  14.870 -0.5311 -0.0791  0.3951
15893TIP3   OH269169   1.805   5.319  15.277  0.2695  0.6111 -0.5885
15893TIP3    H169170   1.730   5.366  15.314 -1.9016 -2.7827 -0.1722
15893TIP3    H269171   1.849   5.280  15.353  0.8160  0.3762 -1.0194
15894TIP3   OH269172   5.446   6.630  12.203 -0.3618  0.2727  0.0951
15894TIP3    H169173   5.464   6.716  12.167  1.1613  0.8959  2.1375
15894TIP3    H269174   5.356   6.636  12.235 -0.0058  1.4000  0.9305
15895TIP3   OH269175   5.073   0.925  15.214 -1.0146  0.4414 -0.1493
15895TIP3    H169176   5.087   0.843  15.263  0.1015  0.4782 -0.3825
15895TIP3    H269177   5.062   0.896  15.123  0.0022  0.5688 -0.3302
15896TIP3   OH269178   2.986   6.025  11.375 -0.5817 -0.3014  0.6510
15896TIP3    H169179   2.971   5.944  11.424 -0.3873 -0.5839  0.2422
15896TIP3    H269180   2.899   6.049  11.343 -0.8201  0.2055  1.6126
15897TIP3   OH269181   3.910   1.725  13.389  0.4429  0.4093  0.0203
15897TIP3    H169182   3.962   1.662  13.439 -0.3698  0.1132  0.5026
15897TIP3    H269183   3.820   1.709  13.416  0.0011  0.3663 -1.4067
15898TIP3   OH269184   3.445   6.636   6.870 -0.2191  0.7316 -0.2848
15898TIP3    H169185   3.433   6.567   6.935  0.2931  0.8220 -0.0917
15898TIP3    H269186   3.516   6.605   6.814 -0.2217  0.9481 -0.4105
15899TIP3   OH269187   2.095   2.999  11.366 -0.0675  0.0610 -0.6918
15899TIP3    H169188   2.042   3.032  11.293 -3.5603 -1.2384  1.0295
15899TIP3    H269189   2.109   2.907  11.347 -2.4247 -0.7032  0.9024
15900TIP3   OH269190   4.884   6.326  12.798  0.0601  0.3564  0.3437
15900TIP3    H169191   4.978   6.330  12.782  0.0307  1.0700  0.2965
15900TIP3    H269192   4.867   6.398  12.859 -0.6424  1.0930 -0.6729
15901TIP3   OH269193   0.911   0.041  13.656 -0.1896 -0.5439  0.4719
15901TIP3    H169194   0.838   0.033  13.717  0.7435  0.9328  1.8600
15901TIP3    H269195   0.984  -0.002  13.700 -0.0312 -1.4512 -0.6216
15902TIP3   OH269196   4.502   1.176  11.763  0.2692 -0.0592  0.0966
15902TIP3    H169197   4.586   1.157  11.806  1.3103 -0.0485 -1.8233
15902TIP3    H269198   4.477   1.093  11.722  0.1105  0.3296 -0.5995
15903TIP3   OH269199   3.473   2.855  11.774 -0.4104 -0.1212  0.0063
15903TIP3    H169200   3.542   2.816  11.720  0.8146  1.4792  0.3440
15903TIP3    H269201   3.415   2.897  11.711 -0.4233 -0.4455 -0.2039
15904TIP3   OH269202   2.761   1.188  12.169  0.0377  0.2875  0.4436
15904TIP3    H169203   2.762   1.246  12.245 -0.4580  1.1605 -0.2056
15904TIP3    H269204   2.679   1.139  12.177  0.8305 -0.9528  1.4274
15905TIP3   OH269205   0.570   2.478  16.356  0.0428  0.1166  0.2817
15905TIP3    H169206   0.662   2.451  16.361  0.1722  0.4892 -0.0669
15905TIP3    H269207   0.562   2.517  16.269  0.1348  2.2683  1.1778
15906TIP3   OH269208   2.397   5.029   6.059  0.3622  0.0101  0.1508
15906TIP3    H169209   2.370   5.111   6.100 -0.4702  0.1849 -0.7098
15906TIP3    H269210   2.346   5.024   5.979  2.3304 -0.0218 -1.1913
15907TIP3   OH269211   4.408   3.374   2.482 -0.2060 -0.5863  0.2042
15907TIP3    H169212   4.346   3.324   2.536  1.2698 -2.0376  0.6149
15907TIP3    H269213   4.494   3.354   2.519  0.7156 -0.3597 -1.7029
15908TIP3   OH269214   5.195   1.928   2.877  0.4814 -0.1373  0.0188
15908TIP3    H169215   5.226   1.890   2.796  0.5303 -0.9674  0.4219
15908TIP3    H269216   5.262   1.992   2.901  2.1208 -2.1721  1.0846
15909TIP3   OH269217   6.120   3.957  14.855 -0.2131 -0.2626 -0.2303
15909TIP3    H169218   6.042   3.917  14.892  0.4765  0.0995  1.7493
15909TIP3    H269219   6.192   3.899  14.883  0.3932  0.3163 -0.5657
15910TIP3   OH269220   4.255   2.220   0.693 -0.0775 -0.6886  1.0616
15910TIP3    H169221   4.207   2.213   0.611 -0.8501 -1.3618  1.5585
15910TIP3    H269222   4.225   2.302   0.733  0.1940 -0.4335  0.7487
15911TIP3   OH269223   5.269   5.436   4.652 -0.2006  0.7108 -0.3606
15911TIP3    H169224   5.315   5.449   4.569  0.3562 -3.3634 -0.8755
15911TIP3    H269225   5.336   5.404   4.713 -1.1556  0.8108  0.7868
15912TIP3   OH269226   3.208   4.549  16.279  0.0520  0.8398 -0.3539
15912TIP3    H169227   3.116   4.532  16.301 -0.1227  2.0091 -0.0725
15912TIP3    H269228   3.233   4.478  16.220 -0.7482 -0.0204  0.3030
15913TIP3   OH269229   0.403   5.391  13.981  0.4657 -0.0312  0.1842
15913TIP3    H169230   0.348   5.416  13.907  1.8981  2.9645 -0.0233
15913TIP3    H269231   0.480   5.350  13.941  0.1983 -0.5671  0.2073
15914TIP3   OH269232   1.360   1.561  13.748  0.4444  1.1747  0.1773
15914TIP3    H169233   1.265   1.561  13.745  0.3680  3.2619  1.0267
15914TIP3    H269234   1.385   1.469  13.748 -1.6896  0.4565  3.3827
15915TIP3   OH269235   4.305   5.554   2.266  0.3078  0.2323 -0.4622
15915TIP3    H169236   4.299   5.644   2.297 -1.8789  0.8377 -2.3444
15915TIP3    H269237   4.231   5.509   2.307  1.6243 -0.8744  0.7978
15916TIP3   OH269238   1.444   5.863  12.565  0.3751 -0.0342 -0.1019
15916TIP3    H169239   1.397   5.801  12.509 -1.5549  1.2843 -0.0346
15916TIP3    H269240   1.513   5.899  12.509  0.1526 -0.6755 -0.8030
15917TIP3   OH269241   2.060   5.211  12.914  0.1414 -0.2508  0.0023
15917TIP3    H169242   2.154   5.228  12.912  0.1425 -0.1963  0.5321
15917TIP3    H269243   2.020   5.298  12.909  0.1049 -0.3033 -0.8221
15918TIP3   OH269244   1.502   3.097  11.865  0.4123  0.3106  0.3437
15918TIP3    H169245   1.422   3.045  11.863  0.6261 -0.0283 -2.1809
15918TIP3    H269246   1.481   3.172  11.922 -1.8261  0.4123 -0.5228
15919TIP3   OH269247   5.464   1.218   1.218 -0.8064  0.0516 -0.7740
15919TIP3    H169248   5.507   1.274   1.153  0.5257 -0.2674 -0.2054
15919TIP3    H269249   5.411   1.158   1.166  0.4914 -0.4078 -1.6338
15920TIP3   OH269250   0.192   0.465  11.607 -0.5836 -0.0945  0.3736
15920TIP3    H169251   0.233   0.429  11.685 -0.0112  0.1674  0.1941
15920TIP3    H269252   0.235   0.420  11.534 -1.6732 -0.9334  0.2184
15921TIP3   OH269253   4.062   4.192   1.398  0.4027  0.5178 -0.4050
15921TIP3    H169254   4.045   4.099   1.414 -0.4039  0.3670 -1.9880
15921TIP3    H269255   4.042   4.205   1.305  0.9057  2.1924 -0.3156
15922TIP3   OH269256   0.009   5.791   1.276 -0.1448 -0.1441  0.0064
15922TIP3    H169257   0.045   5.817   1.191 -0.1850 -0.7677 -0.2083
15922TIP3    H269258   0.030   5.698   1.283 -3.4770 -1.1017 -1.0630
15923TIP3   OH269259   4.188   3.643   3.275 -0.2500 -0.0773 -0.0285
15923TIP3    H169260   4.177   3.580   3.347  0.6675 -2.4633 -1.8490
15923TIP3    H269261   4.264   3.695   3.302 -0.0746 -0.7509  0.8664
15924TIP3   OH269262   6.272   1.178  11.670  0.2996  0.5945 -0.0208
15924TIP3    H169263   6.353   1.192  11.621 -0.1398 -0.1515 -0.9873
15924TIP3    H269264   6.281   1.089  11.706  0.0944  0.6774  0.2358
15925TIP3   OH269265   1.490   3.791  16.856 -0.0056 -0.9148 -0.8323
15925TIP3    H169266   1.430   3.716  16.854  1.0689 -1.8021 -1.1848
15925TIP3    H269267   1.435   3.866  16.836 -1.0487 -1.6606 -0.8663
15926TIP3   OH269268   4.111   5.073   4.951  0.2134 -0.6369 -0.0370
15926TIP3    H169269   4.092   5.166   4.942 -0.7533 -0.8301 -0.0763
15926TIP3    H269270   4.035   5.037   4.997  0.5492 -1.4158 -0.0721
15927TIP3   OH269271   0.165   6.736   3.248 -0.3656 -0.4455 -0.0480
15927TIP3    H169272   0.080   6.730   3.203 -0.2640 -0.9992 -0.1722
15927TIP3    H269273   0.221   6.784   3.188  0.3329 -2.8063 -1.4096
15928TIP3   OH269274   5.658   0.113  15.571  0.0524 -0.1274 -0.1538
15928TIP3    H169275   5.704   0.102  15.654 -1.4251 -0.6232  0.6347
15928TIP3    H269276   5.688   0.040  15.517  2.0088  0.9143 -0.5760
15929TIP3   OH269277   6.039   3.187  12.673 -0.0601  0.1021  0.0120
15929TIP3    H169278   6.097   3.117  12.645 -0.0139  0.7978 -1.7495
15929TIP3    H269279   5.960   3.175  12.621 -0.6935  0.3989  0.8825
15930TIP3   OH269280   6.258   1.539  16.099  0.3185 -0.1885 -0.2860
15930TIP3    H169281   6.311   1.597  16.154  0.2128 -0.3495 -0.0120
15930TIP3    H269282   6.212   1.483  16.161  0.2388 -0.4081 -0.5422
15931TIP3   OH269283   5.121   0.370   0.127 -0.1817 -0.0694  0.0433
15931TIP3    H169284   5.077   0.358   0.043 -0.7393 -0.8782  0.4341
15931TIP3    H269285   5.140   0.464   0.132  1.4566 -0.2583 -1.7512
15932TIP3   OH269286   6.145   6.687   4.548  0.3272 -0.0667 -0.1606
15932TIP3    H169287   6.166   6.696   4.455  0.8783 -3.6684 -0.5338
15932TIP3    H269288   6.197   6.612   4.577 -0.1334  0.7047  2.9885
15933TIP3   OH269289   2.920   4.032   1.488  0.4744 -0.6447 -0.1600
15933TIP3    H169290   2.997   4.004   1.538  0.6416 -0.0409 -0.0684
15933TIP3    H269291   2.934   4.125   1.472 -1.1044 -0.0477  1.5055
15934TIP3   OH269292   4.901   3.370   2.788  0.2550 -0.0128 -0.2167
15934TIP3    H169293   4.949   3.384   2.869 -1.0082 -2.1562  0.9948
15934TIP3    H269294   4.955   3.309   2.738 -0.0585 -0.5458  0.0851
15935TIP3   OH269295   1.430   1.663   5.019 -0.2554  0.0818  0.6706
15935TIP3    H169296   1.472   1.691   5.100  0.0752  0.1671  0.4754
15935TIP3    H269297   1.479   1.586   4.992  0.8369  1.0964 -0.3955
15936TIP3   OH269298   1.729   3.156   0.861 -0.3469 -0.3194  0.1733
15936TIP3    H169299   1.691   3.131   0.945  0.2107  0.3790  0.6603
15936TIP3    H269300   1.703   3.087   0.800  1.9317 -2.6383  1.6250
15937TIP3   OH269301   2.137   2.027   1.510 -0.5890 -0.3068 -0.0468
15937TIP3    H169302   2.167   1.940   1.537 -3.6744 -0.9393  1.7701
15937TIP3    H269303   2.105   2.015   1.421  2.3118 -0.0553 -1.2542
15938TIP3   OH269304   3.462   6.580  12.797 -0.0750 -0.2944  0.7108
15938TIP3    H169305   3.554   6.565  12.775 -0.3825 -0.5218 -0.4644
15938TIP3    H269306   3.412   6.530  12.733 -1.0311 -0.0097  1.1991
15939TIP3   OH269307   4.700   3.083   4.258 -0.1626  0.3786 -0.3452
15939TIP3    H169308   4.792   3.059   4.268 -1.0366 -3.0000  1.1225
15939TIP3    H269309   4.676   3.048   4.172 -0.1685  0.9932 -0.5979
15940TIP3   OH269310   0.111   5.684   3.207  0.4132  0.0726 -0.0995
15940TIP3    H169311   0.120   5.718   3.118 -0.9235  0.2563 -0.1876
15940TIP3    H269312   0.043   5.617   3.200  0.0468  0.3359  0.8468
15941TIP3   OH269313   1.788   3.864   5.263 -0.3417 -0.1560 -0.1778
15941TIP3    H169314   1.752   3.838   5.178 -0.3626 -0.8650  0.0396
15941TIP3    H269315   1.883   3.850   5.254 -0.1920  0.9792 -0.4978
15942TIP3   OH269316   4.865   1.079  12.948 -0.1307 -0.5905  0.0178
15942TIP3    H169317   4.936   1.143  12.946 -2.9628  2.9036 -0.2574
15942TIP3    H269318   4.820   1.096  13.032 -1.3208 -1.7902 -0.3439
15943TIP3   OH269319   4.280   3.051  12.441  0.0554 -0.1387  0.4148
15943TIP3    H169320   4.268   3.030  12.533 -1.6765  0.3814  0.3374
15943TIP3    H269321   4.330   3.133  12.442 -1.0833  0.5792  0.9570
15944TIP3   OH269322   0.997   3.444   0.599 -0.0664  0.1173  0.2407
15944TIP3    H169323   0.970   3.529   0.632 -2.2370 -0.7982  1.0370
15944TIP3    H269324   0.931   3.383   0.633 -0.3530 -1.4572 -2.7502
15945TIP3   OH269325   2.506   2.385  13.929  0.1279 -0.1336 -0.3008
15945TIP3    H169326   2.424   2.433  13.922  0.3746  0.4081  0.4121
15945TIP3    H269327   2.553   2.405  13.849 -0.7699 -1.1059 -1.0961
15946TIP3   OH269328   3.407   0.343  17.184 -0.5052  0.2587 -0.0692
15946TIP3    H169329   3.371   0.260  17.215 -1.1451  1.1553  1.7531
15946TIP3    H269330   3.366   0.357  17.099 -2.4724 -0.0381  0.7792
15947TIP3   OH269331   1.544   1.608   3.805 -0.1653 -0.1169  0.4298
15947TIP3    H169332   1.623   1.603   3.751 -0.2568  1.0669  0.1647
15947TIP3    H269333   1.474   1.579   3.747  0.1473 -1.8802  0.8840
15948TIP3   OH269334   6.286   2.755  12.520  0.1758 -0.0631 -0.0293
15948TIP3    H169335   6.322   2.701  12.450 -0.2105 -0.5477  0.1390
15948TIP3    H269336   6.360   2.807  12.552  0.7022 -0.9673  0.2422
15949TIP3   OH269337   3.170   4.680  15.006 -0.1009  0.9237  0.4882
15949TIP3    H169338   3.132   4.698  15.092  0.0590 -1.8080  1.2256
15949TIP3    H269339   3.260   4.655  15.025 -0.2978 -0.5122 -0.3482
15950TIP3   OH269340   1.552   5.770   0.579 -1.1356  0.1198  1.1022
15950TIP3    H169341   1.470   5.741   0.539 -0.4647  1.6496 -1.6078
15950TIP3    H269342   1.550   5.865   0.570  1.1294  0.1494  0.5036
15951TIP3   OH269343   3.128   2.679   3.233  0.0650 -0.0880  0.3237
15951TIP3    H169344   3.090   2.702   3.148 -1.0644  1.6271  1.2311
15951TIP3    H269345   3.065   2.619   3.273 -1.5598  2.2724  1.5676
15952TIP3   OH269346   0.736   5.997  17.014 -0.0993 -0.3852 -0.0420
15952TIP3    H169347   0.754   6.084  16.979  1.5066  0.2158  2.0719
15952TIP3    H269348   0.797   5.939  16.970  0.2172 -0.0724 -0.0168
15953TIP3   OH269349   2.615   1.070  16.071 -0.5363 -0.1569  0.1128
15953TIP3    H169350   2.521   1.061  16.082 -0.7922  2.8469  1.1691
15953TIP3    H269351   2.626   1.111  15.986 -0.1569 -0.4265  0.0250
15954TIP3   OH269352   4.653   6.016  10.788 -0.2049 -0.7468  0.6328
15954TIP3    H169353   4.642   6.076  10.714  1.7069 -0.0108  0.8838
15954TIP3    H269354   4.616   5.933  10.757 -2.1148  0.2965 -0.0393
15955TIP3   OH269355   5.984   2.361  15.404 -0.5773 -0.8525  0.1475
15955TIP3    H169356   5.954   2.362  15.314 -1.2316 -0.2467  0.3613
15955TIP3    H269357   6.076   2.334  15.399 -1.1279 -2.7484 -0.5314
15956TIP3   OH269358   0.867   3.475  11.708 -0.6300 -0.2178 -0.0227
15956TIP3    H169359   0.928   3.508  11.774 -1.0587 -1.0863  0.8330
15956TIP3    H269360   0.796   3.538  11.707 -1.3636 -0.9700  1.4772
15957TIP3   OH269361   0.802   3.637  15.136  0.5853  0.3933 -0.8942
15957TIP3    H169362   0.763   3.724  15.132 -0.9623 -0.2833 -1.7476
15957TIP3    H269363   0.813   3.619  15.229  1.3504  1.6645 -0.7253
15958TIP3   OH269364   0.479   5.943  13.276 -0.2939 -0.7915  0.1327
15958TIP3    H169365   0.536   5.993  13.219  2.0241 -0.5018  2.5071
15958TIP3    H269366   0.506   5.852  13.263  0.1601 -0.7358  0.6749
15959TIP3   OH269367   4.235   2.690  13.326 -0.8191  0.0571  0.3001
15959TIP3    H169368   4.204   2.726  13.243 -0.7984 -1.3088 -0.3197
15959TIP3    H269369   4.299   2.624  13.301 -0.1814  0.2244  1.4426
15960TIP3   OH269370   2.133   3.644   1.581 -0.2197 -0.4817 -0.2360
15960TIP3    H169371   2.222   3.610   1.573 -0.0804 -0.4182  0.8888
15960TIP3    H269372   2.144   3.739   1.581  0.0400 -0.4245  2.5627
15961TIP3   OH269373   4.312   0.203   0.384 -0.2080  0.2555 -0.6280
15961TIP3    H169374   4.265   0.247   0.455 -1.2752 -0.8084 -0.6325
15961TIP3    H269375   4.246   0.193   0.315 -0.2592 -2.0763 -0.2976
15962TIP3   OH269376   4.946   1.403   5.675 -0.0295  0.3363 -0.1605
15962TIP3    H169377   4.862   1.448   5.664  0.6233  1.3370 -1.3419
15962TIP3    H269378   5.007   1.472   5.700  0.7817 -0.0619 -0.9731
15963TIP3   OH269379   1.225   5.721  16.440 -0.5850 -0.2731  0.4226
15963TIP3    H169380   1.201   5.728  16.532 -0.4283 -2.6176  0.7195
15963TIP3    H269381   1.314   5.685  16.441 -0.6601 -0.5483 -0.6347
15964TIP3   OH269382   2.605   5.095  12.092 -0.2543 -0.0688  0.0186
15964TIP3    H169383   2.607   5.170  12.033 -0.3014  1.3338  1.7162
15964TIP3    H269384   2.616   5.019  12.035 -3.8219  0.8859 -2.2556
15965TIP3   OH269385   4.164   0.052   3.925 -0.1971 -0.5212 -0.6683
15965TIP3    H169386   4.201  -0.032   3.952  1.5986  0.2268 -0.6824
15965TIP3    H269387   4.150   0.042   3.831  1.2939 -0.3735 -0.9255
15966TIP3   OH269388   4.008   0.111   4.452  0.1419 -0.8552 -0.0492
15966TIP3    H169389   3.949   0.138   4.523  0.9692 -0.5864  0.5469
15966TIP3    H269390   4.033   0.193   4.409 -1.9597 -1.1328 -2.0049
15967TIP3   OH269391   5.599   6.313   5.832 -0.1212 -0.1436 -0.7150
15967TIP3    H169392   5.648   6.390   5.804 -0.0086  0.2309  0.4813
15967TIP3    H269393   5.660   6.240   5.821  0.2652  0.1432 -0.4628
15968TIP3   OH269394   4.614   3.664  12.601 -0.3216  0.0777 -0.0165
15968TIP3    H169395   4.642   3.648  12.511 -0.2286  0.8264 -0.1252
15968TIP3    H269396   4.611   3.759  12.608 -0.2737  0.0207  0.7931
15969TIP3   OH269397   1.948   2.041   3.062  0.6552  0.1683  0.2455
15969TIP3    H169398   1.917   2.118   3.109 -0.3234 -0.6622  1.0217
15969TIP3    H269399   2.014   2.074   3.001  1.1651  1.4449  1.4302
15970TIP3   OH269400   5.270   1.510   0.258  0.4051  0.0051 -0.7513
15970TIP3    H169401   5.220   1.515   0.176  0.6622 -1.3198 -1.0104
15970TIP3    H269402   5.204   1.516   0.327 -0.0015 -0.6970 -1.0775
15971TIP3   OH269403   6.461   4.179   4.109 -0.0996  0.1040  0.3935
15971TIP3    H169404   6.500   4.231   4.179  1.9062 -1.0876  0.2377
15971TIP3    H269405   6.522   4.106   4.096 -1.3462 -0.7112 -1.3477
15972TIP3   OH269406   4.797   2.433   2.078  0.2265  0.3846  0.0765
15972TIP3    H169407   4.813   2.507   2.019  1.4243  1.5497  1.7651
15972TIP3    H269408   4.839   2.458   2.160 -1.5219 -1.0869  1.5207
15973TIP3   OH269409   6.164   0.483   0.351  0.3094  0.2978  0.5944
15973TIP3    H169410   6.090   0.542   0.363  0.0872  0.4388 -1.1770
15973TIP3    H269411   6.142   0.433   0.272  1.0636 -1.2891  1.3401
15974TIP3   OH269412   0.166   3.310   3.324 -0.2312 -1.0130  0.0060
15974TIP3    H169413   0.149   3.386   3.267 -2.2962 -1.5277 -0.1387
15974TIP3    H269414   0.124   3.237   3.279 -0.1023 -1.8256  1.1746
15975TIP3   OH269415   2.186   1.691   3.397  0.2789 -0.2442 -0.0224
15975TIP3    H169416   2.265   1.644   3.370 -0.1234 -0.6037 -0.6016
15975TIP3    H269417   2.135   1.700   3.316 -1.2450 -1.8668  0.7074
15976TIP3   OH269418   6.061   1.793   5.459 -0.4257  0.4368  0.3234
15976TIP3    H169419   5.976   1.810   5.498 -0.8758 -0.1488 -0.3856
15976TIP3    H269420   6.043   1.774   5.367  0.8847  4.8508 -1.0547
15977TIP3   OH269421   6.223   4.265   0.030  0.0202 -0.7021  0.3462
15977TIP3    H169422   6.192   4.223  -0.050 -1.0562 -0.1308  0.4461
15977TIP3    H269423   6.161   4.236   0.097 -0.0398  0.1060  0.6454
15978TIP3   OH269424   0.823   3.106   4.542  0.5509  0.0683  0.2259
15978TIP3    H169425   0.885   3.081   4.609 -0.1547  0.6497  1.1228
15978TIP3    H269426   0.876   3.123   4.464  1.3805 -0.5536  0.6519
15979TIP3   OH269427   6.192   0.393   5.407 -0.0349  0.9230  0.4630
15979TIP3    H169428   6.111   0.443   5.415 -0.9654 -0.4259 -0.3392
15979TIP3    H269429   6.224   0.385   5.497 -0.9032  1.2452  0.8083
15980TIP3   OH269430   0.852   0.832  12.672  0.7122 -0.2534  0.3002
15980TIP3    H169431   0.873   0.804  12.761  1.2566 -0.5920  0.0695
15980TIP3    H269432   0.937   0.849  12.632  0.5100 -0.7452 -0.3567
15981TIP3   OH269433   3.329   6.316  16.949 -0.2640  0.4100  0.1771
15981TIP3    H169434   3.236   6.322  16.970 -0.5828 -0.9016 -0.7400
15981TIP3    H269435   3.343   6.382  16.881 -0.7077  0.0356 -0.2775
15982TIP3   OH269436   2.144   5.019  12.199 -0.2534  0.2487 -0.0565
15982TIP3    H169437   2.192   5.046  12.277 -0.6574 -1.7418  0.9602
15982TIP3    H269438   2.210   4.977  12.144  0.1592  2.2046 -1.1368
15983TIP3   OH269439   5.220   4.512  11.175 -0.4462 -0.1949 -0.0494
15983TIP3    H169440   5.138   4.552  11.147 -0.1292 -0.2171 -1.0500
15983TIP3    H269441   5.287   4.575  11.151 -0.0848 -0.6157 -0.1515
15984TIP3   OH269442   6.590   4.269  14.649  0.3214  0.1922 -0.0047
15984TIP3    H169443   6.599   4.234  14.738 -2.2821 -2.1791 -0.5303
15984TIP3    H269444   6.534   4.346  14.660 -0.2250 -0.2530  0.4113
15985TIP3   OH269445   3.987   2.399  12.644  0.7060 -0.1457 -0.7449
15985TIP3    H169446   3.947   2.406  12.558  0.2597  1.1732 -0.4472
15985TIP3    H269447   3.929   2.340  12.693 -2.1047  3.1885  0.2984
15986TIP3   OH269448   3.808   0.305   1.524  0.0039 -0.5620  0.5606
15986TIP3    H169449   3.891   0.269   1.554 -0.0967 -1.3090 -0.0304
15986TIP3    H269450   3.831   0.389   1.484  0.7621 -1.5550 -1.2292
15987TIP3   OH269451   3.872   2.344   6.405  0.0957  0.5085  0.6525
15987TIP3    H169452   3.790   2.379   6.440  0.0834 -0.0750  1.2164
15987TIP3    H269453   3.916   2.420   6.367 -0.4608  0.9210  0.8142
15988TIP3   OH269454   1.734   2.853   0.465 -0.3018 -0.3027  0.1772
15988TIP3    H169455   1.661   2.901   0.426  0.1008 -0.1531 -0.3985
15988TIP3    H269456   1.734   2.879   0.557 -1.4009 -0.8253  0.3420
15989TIP3   OH269457   1.620   1.149  13.383  0.5307  0.0521  0.0608
15989TIP3    H169458   1.528   1.167  13.367  0.0677  0.5223  2.8197
15989TIP3    H269459   1.664   1.233  13.373  0.3014  0.2729  0.8527
15990TIP3   OH269460   6.615   3.335  13.200  0.1078  0.2943  0.3020
15990TIP3    H169461   6.574   3.304  13.281 -0.2113  1.1498  0.4776
15990TIP3    H269462   6.707   3.350  13.224 -0.1169  1.1321  0.6803
15991TIP3   OH269463   1.976   5.739   5.456  0.3218  0.1477 -0.2553
15991TIP3    H169464   1.894   5.785   5.438 -0.0708 -0.4247  0.0351
15991TIP3    H269465   1.977   5.728   5.552  0.0514 -1.0819 -0.3764
15992TIP3   OH269466   3.609   0.265  15.537  0.0794  0.3705  0.5663
15992TIP3    H169467   3.607   0.246  15.444 -0.7330 -1.1370  0.8438
15992TIP3    H269468   3.682   0.325  15.549  0.1619  0.6206 -1.0331
15993TIP3   OH269469   0.774   3.187  14.926 -0.2768  0.4766 -0.1203
15993TIP3    H169470   0.804   3.153  14.842  0.9309  1.0184  0.0690
15993TIP3    H269471   0.692   3.140  14.943  0.8804 -1.7239 -0.2721
15994TIP3   OH269472   5.812   1.075   2.934 -0.0777 -0.2983  0.4253
15994TIP3    H169473   5.717   1.069   2.936 -0.0924 -0.8072 -0.8551
15994TIP3    H269474   5.831   1.139   2.865  0.5026 -0.1974  0.6722
15995TIP3   OH269475   0.232   4.027  14.248  0.4207 -0.6331 -0.0812
15995TIP3    H169476   0.248   4.120  14.264  0.1959 -0.8984  1.9553
15995TIP3    H269477   0.230   3.988  14.336  1.2649 -2.6846 -0.9108
15996TIP3   OH269478   3.591   4.666   4.444  0.1786  0.5833 -0.8041
15996TIP3    H169479   3.574   4.614   4.366 -0.5492 -0.5289  0.0557
15996TIP3    H269480   3.541   4.746   4.431  0.2453  0.5082 -1.5668
15997TIP3   OH269481   5.654   3.173   3.055 -0.2825  0.2368 -0.1769
15997TIP3    H169482   5.567   3.144   3.026 -0.2713 -0.1246  0.1370
15997TIP3    H269483   5.703   3.091   3.066  0.3748  0.4777 -1.1931
15998TIP3   OH269484   6.078   5.545   2.666  0.0253 -0.1685 -0.0854
15998TIP3    H169485   6.078   5.626   2.615  0.0533 -0.3320 -0.3466
15998TIP3    H269486   6.165   5.509   2.655  1.1476  1.3825  2.6390
15999TIP3   OH269487   4.257   6.360  14.945  0.5869  0.0956 -0.0892
15999TIP3    H169488   4.199   6.434  14.926  2.1110  1.3277 -0.2399
15999TIP3    H269489   4.303   6.386  15.025 -0.2722 -1.6231  1.0133
16000TIP3   OH269490   6.181   3.931   1.750  0.6021 -0.2623 -0.1474
16000TIP3    H169491   6.193   4.024   1.730 -2.2255  0.0273 -0.9403
16000TIP3    H269492   6.210   3.886   1.671 -0.5110  0.1845 -0.8457
16001TIP3   OH269493   1.908   2.762   1.591  0.7373  0.5373  0.0784
16001TIP3    H169494   1.890   2.719   1.507 -0.7345 -0.1693  0.7227
16001TIP3    H269495   1.998   2.794   1.582  1.0815 -0.6708 -1.2922
16002TIP3   OH269496   5.966   3.946   4.641  0.3089 -0.3412  0.3620
16002TIP3    H169497   5.954   4.026   4.590  0.4594  0.6030  1.7598
16002TIP3    H269498   5.942   3.875   4.581 -0.5073  0.7886 -0.6799
16003TIP3   OH269499   1.676   4.725  11.416 -0.2091 -0.0344  0.1093
16003TIP3    H169500   1.603   4.781  11.389  0.0329  0.0401 -0.4147
16003TIP3    H269501   1.754   4.778  11.399  0.3479 -1.7516 -4.0583
16004TIP3   OH269502   4.241   3.892   0.831 -0.2316 -0.2144 -0.4566
16004TIP3    H169503   4.264   3.815   0.779  0.1498 -0.6244  0.3046
16004TIP3    H269504   4.158   3.869   0.873  0.7161 -0.8994  1.1095
16005TIP3   OH269505   0.693   3.155  10.815 -0.1218 -0.1043  0.0901
16005TIP3    H169506   0.787   3.151  10.833  0.1006  1.1742 -0.6330
16005TIP3    H269507   0.687   3.208  10.735 -1.4270 -0.6217 -0.1760
16006TIP3   OH269508   6.718   1.139   5.299  0.0514 -0.0651 -0.4566
16006TIP3    H169509   6.680   1.073   5.241  0.6632 -1.4473  0.6278
16006TIP3    H269510   6.653   1.151   5.368 -0.1846  0.7011 -0.8101
16007TIP3   OH269511   5.326   5.817   2.534  0.5806 -0.1997 -0.1037
16007TIP3    H169512   5.394   5.813   2.601  1.5899 -0.3220 -1.1160
16007TIP3    H269513   5.345   5.743   2.476 -0.5639 -0.3868 -0.2682
16008TIP3   OH269514   0.190   0.857   4.027  0.1171 -0.4807  0.9394
16008TIP3    H169515   0.132   0.889   4.096 -0.0854  0.2855  0.4315
16008TIP3    H269516   0.267   0.824   4.073  0.1418  0.3628  1.5112
16009TIP3   OH269517   5.497   3.912  14.334 -0.2086  0.4413 -0.0859
16009TIP3    H169518   5.431   3.951  14.390 -1.2471 -2.3700  0.8276
16009TIP3    H269519   5.464   3.922  14.245 -2.5217 -1.8105  0.4093
16010TIP3   OH269520   2.381   4.848   1.026  0.2289 -0.1848  0.0509
16010TIP3    H169521   2.400   4.797   0.947  1.9714 -1.9030  1.4727
16010TIP3    H269522   2.289   4.831   1.044  0.1892 -0.9506 -0.8252
16011TIP3   OH269523   0.146   0.354   1.171  0.0782  0.4365 -0.3956
16011TIP3    H169524   0.058   0.375   1.140  0.2076 -0.1568 -1.1985
16011TIP3    H269525   0.197   0.432   1.152 -0.3166  0.8634  0.2656
16012TIP3   OH269526   1.947   4.237  11.825 -0.7071 -0.4565 -0.5661
16012TIP3    H169527   1.973   4.169  11.886  0.6544 -0.9037 -1.5854
16012TIP3    H269528   1.885   4.195  11.766 -1.0449 -0.3717 -0.2779
16013TIP3   OH269529   4.229   0.803   3.441  0.5325  0.0045 -0.0553
16013TIP3    H169530   4.211   0.867   3.510  2.4579  0.1622  0.3515
16013TIP3    H269531   4.239   0.855   3.362  0.1063  0.0037 -0.1100
16014TIP3   OH269532   2.867   2.807  14.932 -0.2364 -0.1789  0.2745
16014TIP3    H169533   2.861   2.770  14.844 -0.7542  1.4157 -0.4092
16014TIP3    H269534   2.878   2.901  14.917 -1.5717  0.2738  1.9266
16015TIP3   OH269535   5.440   0.927  11.507 -0.5381 -0.2869  0.2288
16015TIP3    H169536   5.470   1.015  11.483  0.2092 -0.7814 -0.7770
16015TIP3    H269537   5.521   0.875  11.509 -1.2110 -1.5957 -2.1992
16016TIP3   OH269538   1.394   3.167   6.684 -0.6018 -0.0740  0.2024
16016TIP3    H169539   1.477   3.205   6.714 -0.7919  0.1043  0.5090
16016TIP3    H269540   1.361   3.120   6.760 -1.1205  0.4313  0.2994
16017TIP3   OH269541   5.039   4.967   0.064  0.1348  0.1792  0.3792
16017TIP3    H169542   5.017   4.971   0.157 -2.3229 -1.0719 -0.0849
16017TIP3    H269543   5.016   5.054   0.030 -1.9109 -0.3340  0.3812
16018TIP3   OH269544   0.350   4.409  11.971  0.0455 -0.3296  0.5194
16018TIP3    H169545   0.377   4.448  12.054  0.4718  0.5600 -0.0250
16018TIP3    H269546   0.261   4.440  11.958  0.2398  0.1312  0.2858
16019TIP3   OH269547   2.744   6.246   1.100 -0.4582 -0.5877  0.3050
16019TIP3    H169548   2.685   6.184   1.144  0.1236  0.3609  2.5479
16019TIP3    H269549   2.723   6.331   1.138 -0.1665  0.3955 -1.5969
16020TIP3   OH269550   5.901   3.853  14.119  0.0597  0.3976  0.0889
16020TIP3    H169551   5.870   3.908  14.190  0.4256  1.2247 -0.3695
16020TIP3    H269552   5.903   3.764  14.155 -0.7658  0.6472  0.7650
16021TIP3   OH269553   3.980   4.867  16.805 -0.3137  0.1585  0.3235
16021TIP3    H169554   3.979   4.923  16.882 -2.0542  2.0267 -0.9472
16021TIP3    H269555   4.001   4.926  16.732  0.5679 -1.4019 -0.7502
16022TIP3   OH269556   2.897   0.506   1.523 -0.2419 -0.2257 -0.2129
16022TIP3    H169557   2.867   0.415   1.524 -0.5835 -0.1207 -0.6052
16022TIP3    H269558   2.992   0.500   1.527 -0.3049 -0.5675  0.9209
16023TIP3   OH269559   2.493   3.429  14.217  0.9074 -0.2486  0.6724
16023TIP3    H169560   2.573   3.420  14.166  1.1154 -2.0186  1.2149
16023TIP3    H269561   2.433   3.366  14.178 -0.7199  1.8884 -0.4981
16024TIP3   OH269562   1.589   2.627   5.352 -0.7440  0.9910  0.0479
16024TIP3    H169563   1.679   2.655   5.340  0.3282 -1.1093  2.3139
16024TIP3    H269564   1.555   2.614   5.263  1.2409  1.5022 -0.8328
16025TIP3   OH269565   4.352   5.348   6.257 -0.3517 -0.4014 -0.3234
16025TIP3    H169566   4.408   5.367   6.182 -0.8169  0.2806 -0.5099
16025TIP3    H269567   4.305   5.430   6.273 -0.7299 -0.7340  0.3067
16026TIP3   OH269568   6.486   2.044  11.733  0.1841  0.5464 -0.1222
16026TIP3    H169569   6.557   2.024  11.672  2.1999  2.7840  1.3337
16026TIP3    H269570   6.485   2.139  11.739 -0.2864  0.4505  2.9026
16027TIP3   OH269571   4.619   5.641  13.031 -0.2229  0.6273  0.0626
16027TIP3    H169572   4.628   5.681  12.944 -0.1527  1.2739  0.3645
16027TIP3    H269573   4.708   5.643  13.067  0.1826 -1.5602 -0.6666
16028TIP3   OH269574   4.807   1.359   4.018  0.2836  0.0318  0.8443
16028TIP3    H169575   4.889   1.410   4.015  0.2839  0.0111  0.5458
16028TIP3    H269576   4.809   1.318   4.104  0.1937  0.6929  1.1719
16029TIP3   OH269577   5.129   1.047  16.396  0.9207 -0.5580  0.3173
16029TIP3    H169578   5.128   0.952  16.405 -0.2202 -0.4905  1.0755
16029TIP3    H269579   5.169   1.062  16.310 -0.4160 -1.8058 -0.5784
16030TIP3   OH269580   3.863   3.407   2.534  0.2405  0.1469 -0.1656
16030TIP3    H169581   3.819   3.370   2.610  0.0549 -0.5706 -0.6156
16030TIP3    H269582   3.927   3.468   2.571 -0.6566  0.6910  0.5121
16031TIP3   OH269583   3.003   0.823  12.739  0.0593  0.2499  0.4026
16031TIP3    H169584   2.987   0.786  12.652 -1.1887 -0.8639  1.0673
16031TIP3    H269585   3.071   0.767  12.777  0.5881  0.7226  0.1696
16032TIP3   OH269586   5.879   4.073   2.172  0.2696 -0.5439  0.0792
16032TIP3    H169587   5.943   4.084   2.242  1.2416  1.9228 -1.0837
16032TIP3    H269588   5.798   4.111   2.207  0.6947  0.4837 -0.0149
16033TIP3   OH269589   5.041   0.516  12.343  0.1496 -0.3341  0.6694
16033TIP3    H169590   4.986   0.538  12.267 -0.1707 -0.6174  0.8152
16033TIP3    H269591   5.029   0.421  12.354 -1.3136 -0.0239  2.2208
16034TIP3   OH269592   5.872   3.284   1.365 -0.1432 -0.2486  0.0211
16034TIP3    H169593   5.867   3.236   1.448 -1.7218  1.1567  0.8207
16034TIP3    H269594   5.781   3.292   1.337  0.1004  1.6912 -0.3722
16035TIP3   OH269595   3.216   2.483  13.844 -0.0624 -0.2999 -0.1078
16035TIP3    H169596   3.148   2.416  13.834 -0.0232 -0.3636  0.0366
16035TIP3    H269597   3.298   2.433  13.845  0.0491 -0.1585 -1.0796
16036TIP3   OH269598   3.344   4.258  14.291  0.0933  0.0169 -0.5279
16036TIP3    H169599   3.249   4.251  14.304 -0.1494  1.2685 -1.3454
16036TIP3    H269600   3.382   4.191  14.347 -1.2058  0.4581  0.9593
16037TIP3   OH269601   6.477   5.530  11.493  0.0203 -0.1926 -0.2079
16037TIP3    H169602   6.469   5.589  11.568  1.0738  0.1939 -0.3774
16037TIP3    H269603   6.403   5.554  11.437  0.7780  1.4449 -0.5746
16038TIP3   OH269604   4.124   0.399  16.093  0.7805 -0.0927 -0.4171
16038TIP3    H169605   4.090   0.325  16.043  1.5619 -0.7654  0.0221
16038TIP3    H269606   4.049   0.459  16.101  0.6216  0.0165 -2.3232
16039TIP3   OH269607   3.051   4.985  15.401  0.2297  0.0500 -0.3665
16039TIP3    H169608   3.099   4.929  15.462 -1.0301 -2.4973 -1.5999
16039TIP3    H269609   2.965   4.995  15.441 -0.7729 -2.0435 -1.8316
16040TIP3   OH269610   6.375   2.206   1.824 -0.2198  0.3910  0.9396
16040TIP3    H169611   6.298   2.172   1.869 -0.4052 -0.2043  0.1900
16040TIP3    H269612   6.348   2.291   1.789 -0.4848  0.2599  0.8266
16041TIP3   OH269613   3.888   0.743   3.323 -0.2310  0.1477  0.3485
16041TIP3    H169614   3.970   0.718   3.281  0.3451  0.2233  1.3947
16041TIP3    H269615   3.912   0.813   3.384 -1.1967  0.6665  0.1543
16042TIP3   OH269616   2.353   4.268  13.589  0.1928  0.7764  0.0585
16042TIP3    H169617   2.411   4.331  13.546  0.7008  0.7359  0.6840
16042TIP3    H269618   2.380   4.268  13.680  0.2542 -0.4154  0.0575
16043TIP3   OH269619   5.833   1.329  14.546 -0.0525 -0.3483  0.2577
16043TIP3    H169620   5.864   1.252  14.498 -0.7183 -0.3064 -0.2567
16043TIP3    H269621   5.880   1.403  14.508  0.0746 -0.4206  0.2758
16044TIP3   OH269622   3.123   6.095  16.073  0.2298 -0.1061  0.4955
16044TIP3    H169623   3.101   6.051  16.155 -0.3717  0.6876  0.7816
16044TIP3    H269624   3.213   6.068  16.054  0.3616 -0.3261  1.3982
16045TIP3   OH269625   3.628   3.843  14.852 -0.3489 -0.1592  0.8539
16045TIP3    H169626   3.592   3.888  14.929  0.4007 -0.2076  1.2390
16045TIP3    H269627   3.576   3.762  14.846 -1.1374  0.3534  0.6556
16046TIP3   OH269628   2.365   5.323  12.886  0.6864  0.3440 -0.2934
16046TIP3    H169629   2.387   5.415  12.874 -1.8916  1.1384  0.4086
16046TIP3    H269630   2.407   5.298  12.968 -1.5253  2.0565  1.4965
16047TIP3   OH269631   0.330   2.856   5.644 -0.4357  0.1920 -0.3450
16047TIP3    H169632   0.256   2.901   5.602 -0.4601  0.1062 -0.3938
16047TIP3    H269633   0.299   2.767   5.658 -1.2505  0.7454  1.8684
16048TIP3   OH269634   6.770   4.188   2.022  0.3475 -0.1120  0.6784
16048TIP3    H169635   6.789   4.173   2.115 -0.5740 -0.5239  0.8057
16048TIP3    H269636   6.699   4.127   2.002  1.1117 -0.6367 -0.5227
16049TIP3   OH269637   5.579   6.044   6.408  0.1704  0.2500 -0.5966
16049TIP3    H169638   5.564   5.989   6.484  2.8757  0.3635  0.1235
16049TIP3    H269639   5.603   6.130   6.445 -0.8001  0.9896 -1.6334
16050TIP3   OH269640   1.566   3.919  13.974  0.1246  0.5878  0.6406
16050TIP3    H169641   1.511   3.924  13.896 -0.3163 -0.0723  0.9035
16050TIP3    H269642   1.518   3.967  14.041 -1.0035 -1.4250  1.3574
16051TIP3   OH269643   6.013   0.274  12.868  0.1380 -0.5610 -0.2861
16051TIP3    H169644   5.985   0.319  12.788  0.9385 -1.3915 -1.0596
16051TIP3    H269645   6.046   0.344  12.924 -1.7193  0.2136 -0.0837
16052TIP3   OH269646   0.377   0.638  17.328  0.8234 -0.2950 -0.6585
16052TIP3    H169647   0.347   0.605  17.243  1.6077 -1.8750 -0.3641
16052TIP3    H269648   0.299   0.634  17.384 -0.6166  3.8223 -1.9975
16053TIP3   OH269649   4.936   6.473  17.284 -0.1096  0.1446  0.1200
16053TIP3    H169650   4.896   6.386  17.279 -1.7421  0.9037 -0.9196
16053TIP3    H269651   4.974   6.476  17.372 -1.7519 -0.9110  0.9240
16054TIP3   OH269652   0.536   0.539   4.018 -0.5232  0.0801 -0.7178
16054TIP3    H169653   0.443   0.558   4.007 -0.3428  1.3710 -0.2687
16054TIP3    H269654   0.539   0.455   4.063 -1.5847  1.1854  1.6056
16055TIP3   OH269655   5.326   3.075  13.958 -0.2664 -0.3235 -0.3476
16055TIP3    H169656   5.244   3.077  13.909 -0.2716  1.2772 -0.3420
16055TIP3    H269657   5.384   3.133  13.909  0.3605 -0.2346  0.4810
16056TIP3   OH269658   3.295   4.844  11.762 -0.0035  0.5936  0.3467
16056TIP3    H169659   3.377   4.823  11.807  1.6904 -1.3837 -3.2254
16056TIP3    H269660   3.272   4.763  11.716 -2.5185  1.9111 -0.9057
16057TIP3   OH269661   4.115   0.782  12.847 -0.6227  0.1017 -0.1197
16057TIP3    H169662   4.081   0.700  12.883  0.0807  0.6560  1.9575
16057TIP3    H269663   4.159   0.757  12.766  2.1921 -2.1548  1.8879
16058TIP3   OH269664   6.229   3.388  13.663 -0.1433 -0.2758  0.0952
16058TIP3    H169665   6.275   3.468  13.638  0.2842 -0.9534 -1.4011
16058TIP3    H269666   6.285   3.348  13.730  0.3875 -0.0661 -0.2191
16059TIP3   OH269667   4.477   0.836   4.119  0.3376 -0.1219  0.5898
16059TIP3    H169668   4.458   0.922   4.155  0.5439  1.0838 -1.9479
16059TIP3    H269669   4.400   0.815   4.065  1.2403 -0.4785 -0.5999
16060TIP3   OH269670   5.892   2.595  16.274 -0.5503  0.2808 -0.0332
16060TIP3    H169671   5.868   2.678  16.314 -1.4515  1.8204 -3.3945
16060TIP3    H269672   5.808   2.550  16.262 -0.1521 -0.7770  0.9828
16061TIP3   OH269673   1.817   4.858  10.801  0.6228  0.2435 -0.2605
16061TIP3    H169674   1.733   4.834  10.841  0.2969 -1.9719 -2.0817
16061TIP3    H269675   1.793   4.900  10.719  1.2923 -0.4196 -0.8047
16062TIP3   OH269676   0.378   5.427   2.495 -0.6044  0.2897  0.5385
16062TIP3    H169677   0.383   5.373   2.417  0.0815  0.8624  0.1741
16062TIP3    H269678   0.387   5.517   2.462  3.0163  0.4519  1.5175
16063TIP3   OH269679   4.229   6.008   6.258  0.1489  0.5018 -0.1519
16063TIP3    H169680   4.310   6.025   6.307 -0.0234  2.1631 -0.3932
16063TIP3    H269681   4.258   5.959   6.181  1.1075  1.9514 -0.7559
16064TIP3   OH269682   5.194   2.222   2.629  0.7795  0.6731  0.5933
16064TIP3    H169683   5.164   2.266   2.708  2.1466  0.8543  1.0340
16064TIP3    H269684   5.145   2.140   2.627  0.8851  0.5728  1.7389
16065TIP3   OH269685   5.374   5.332  15.989  0.2697 -0.0340 -0.5149
16065TIP3    H169686   5.418   5.249  15.970  0.0047  0.0198 -1.4315
16065TIP3    H269687   5.308   5.340  15.920 -0.8388  0.1369  0.5245
16066TIP3   OH269688   5.939   0.885   1.971  0.5495  0.0374 -0.1094
16066TIP3    H169689   6.017   0.940   1.983  0.2821  0.1332  1.3044
16066TIP3    H269690   5.956   0.838   1.890  1.5597  0.9245 -0.4409
16067TIP3   OH269691   0.287   4.679   2.570  0.1746  0.5808  0.1143
16067TIP3    H169692   0.223   4.734   2.615  0.3985 -0.3132  1.5710
16067TIP3    H269693   0.368   4.691   2.618  0.7781  0.6359 -0.8851
16068TIP3   OH269694   4.851   5.649  12.724 -0.2062 -0.8253 -0.6969
16068TIP3    H169695   4.834   5.716  12.791 -3.2282 -0.1629 -1.9704
16068TIP3    H269696   4.947   5.644  12.719  0.1541 -0.1600  2.8551
16069TIP3   OH269697   3.304   5.047  12.322  0.3717  0.2940  0.6081
16069TIP3    H169698   3.390   5.004  12.317  0.5020  0.4296  1.5793
16069TIP3    H269699   3.273   5.046  12.232  0.6619 -1.2589  0.4850
16070TIP3   OH269700   3.108   1.272   2.696  0.6483  0.3315 -0.3656
16070TIP3    H169701   3.060   1.293   2.616  1.7591  2.1213 -0.6222
16070TIP3    H269702   3.100   1.351   2.750 -0.2697 -0.9173  1.4224
16071TIP3   OH269703   0.122   0.628  12.946  0.6788  0.2915  0.3350
16071TIP3    H169704   0.038   0.654  12.907 -0.8936 -1.9233  2.0158
16071TIP3    H269705   0.109   0.638  13.040  1.4759 -2.1674  0.7711
16072TIP3   OH269706   2.907   3.028  13.226 -0.6802 -0.1404 -0.1872
16072TIP3    H169707   2.957   2.975  13.164 -0.8871  0.0537 -0.5208
16072TIP3    H269708   2.826   3.049  13.180 -1.2657 -0.8067  0.5030
16073TIP3   OH269709   4.168   2.973   1.401 -0.0591 -0.1260 -0.6822
16073TIP3    H169710   4.208   2.918   1.334 -0.1828 -0.0517 -0.8156
16073TIP3    H269711   4.238   3.034   1.427 -0.1527  0.1511 -1.0770
16074TIP3   OH269712   4.179   4.883   6.412 -0.2126 -0.4980 -0.2955
16074TIP3    H169713   4.197   4.977   6.423  1.2211 -0.8417  0.5034
16074TIP3    H269714   4.242   4.840   6.469 -0.3643 -1.9844 -1.2027
16075TIP3   OH269715   6.392   4.555   2.562 -0.2033 -0.1752  0.3174
16075TIP3    H169716   6.472   4.563   2.510 -0.3535  1.2503  0.2812
16075TIP3    H269717   6.396   4.627   2.624 -0.4219 -1.3579  1.7816
16076TIP3   OH269718   1.486   0.059  13.743  0.6637 -0.6589  0.0106
16076TIP3    H169719   1.427  -0.011  13.714  1.0433 -1.7124  1.6562
16076TIP3    H269720   1.568   0.042  13.696 -0.0351  0.3272 -1.6551
16077TIP3   OH269721   3.540   3.154   7.892 -0.3017  0.1320  0.5233
16077TIP3    H169722   3.611   3.091   7.881 -1.1511 -0.5639 -1.6523
16077TIP3    H269723   3.582   3.232   7.926  1.6110 -0.1300 -1.0257
16078TIP3   OH269724   2.156   3.119  16.986  0.2877 -0.4157  0.4457
16078TIP3    H169725   2.211   3.192  17.015  0.7855 -1.1856  1.4888
16078TIP3    H269726   2.185   3.045  17.038 -0.8117 -1.1690  0.0193
16079TIP3   OH269727   1.864   1.958  11.765 -0.4047 -0.2884  0.3881
16079TIP3    H169728   1.953   1.970  11.800 -0.4620 -0.2763  0.5281
16079TIP3    H269729   1.818   1.909  11.832 -0.5173 -0.2590  0.3323
16080TIP3   OH269730   4.894   1.282   1.314 -0.3338 -0.4105 -0.2435
16080TIP3    H169731   4.807   1.296   1.351 -0.0748  2.3717 -0.4699
16080TIP3    H269732   4.901   1.187   1.305 -3.4477 -0.7246 -0.5159
16081TIP3   OH269733   6.631   1.544   3.780  0.6189 -0.3038  0.2210
16081TIP3    H169734   6.666   1.577   3.697  1.3114 -1.2302  0.1272
16081TIP3    H269735   6.602   1.456   3.760 -2.1502  0.5193  0.2188
16082TIP3   OH269736   5.906   0.823  14.327  0.3054  0.2749  0.6524
16082TIP3    H169737   5.979   0.809  14.388  1.2170 -1.6932 -0.7868
16082TIP3    H269738   5.844   0.753  14.349  0.4830 -0.2275 -0.4168
16083TIP3   OH269739   4.251   4.268  12.512 -0.1026  0.4802 -0.3032
16083TIP3    H169740   4.213   4.277  12.599 -0.2930 -0.9943 -0.2198
16083TIP3    H269741   4.198   4.201  12.469  2.8688 -2.3921  0.1435
16084TIP3   OH269742   6.392   4.888   1.793  0.2557  0.0358 -0.5752
16084TIP3    H169743   6.406   4.959   1.730  2.5360  0.5119  0.3784
16084TIP3    H269744   6.372   4.933   1.875  0.2994 -0.4773 -0.2820
16085TIP3   OH269745   4.647   5.296  14.638  0.6108  0.6796  0.4536
16085TIP3    H169746   4.559   5.290  14.676  0.5004 -0.1162  0.0779
16085TIP3    H269747   4.644   5.374  14.583 -0.2791 -0.1051 -0.6326
16086TIP3   OH269748   4.507   4.006  10.858  0.0135 -0.4825  0.4520
16086TIP3    H169749   4.597   4.012  10.892  0.3505 -0.3275 -0.4495
16086TIP3    H269750   4.495   3.913  10.839 -0.2814 -0.6166  1.2527
16087TIP3   OH269751   2.460   1.511  12.056  0.2724  0.4336  0.3793
16087TIP3    H169752   2.434   1.430  12.101  0.9627  0.2607  0.4878
16087TIP3    H269753   2.514   1.482  11.983  1.0129  0.8203  0.7628
16088TIP3   OH269754   2.111   1.695  14.633  0.7805 -0.6886  0.2164
16088TIP3    H169755   2.023   1.675  14.666  1.0790 -0.9065  0.8919
16088TIP3    H269756   2.136   1.776  14.678  0.9629 -0.6695  0.0851
16089TIP3   OH269757   0.309   3.364  15.626 -0.6547 -0.6383  0.2923
16089TIP3    H169758   0.221   3.383  15.593 -0.0413  0.8816 -0.5799
16089TIP3    H269759   0.355   3.325  15.552  0.2521  1.3073 -0.2377
16090TIP3   OH269760   5.817   3.026  12.422  0.1173 -0.2508  0.4137
16090TIP3    H169761   5.795   2.957  12.484 -0.4775 -0.3471  0.0986
16090TIP3    H269762   5.813   3.107  12.474 -0.0358 -0.3686  0.5862
16091TIP3   OH269763   5.230   1.662   5.991 -0.2955 -0.1801 -0.9000
16091TIP3    H169764   5.147   1.618   6.011 -0.0544 -0.3391 -0.2263
16091TIP3    H269765   5.206   1.734   5.934 -1.2649  1.3111  1.2434
16092TIP3   OH269766   4.065   3.870   1.191  0.4333 -0.3180 -0.1492
16092TIP3    H169767   3.990   3.930   1.186  0.8190  0.0633 -2.3314
16092TIP3    H269768   4.032   3.789   1.152  0.9131 -0.3835 -0.4245
16093TIP3   OH269769   1.503   2.664   3.067 -0.0165  0.6364  0.0740
16093TIP3    H169770   1.440   2.592   3.058  0.5126  0.2354 -0.4581
16093TIP3    H269771   1.587   2.621   3.081 -0.0408  1.1749  2.2737
16094TIP3   OH269772   1.672   0.280   1.888 -0.0038  0.2862  0.3639
16094TIP3    H169773   1.659   0.372   1.912  0.2049 -0.0923  2.0500
16094TIP3    H269774   1.710   0.240   1.966  1.0316 -0.9880 -0.7358
16095TIP3   OH269775   3.881   1.599  16.849 -0.0472 -0.2212 -0.0220
16095TIP3    H169776   3.871   1.592  16.943  0.0449  1.5622  0.1474
16095TIP3    H269777   3.796   1.573  16.813 -0.3253 -0.1509  0.5845
16096TIP3   OH269778   5.977   3.488  12.507 -0.0099 -0.3770  0.3219
16096TIP3    H169779   6.066   3.485  12.543 -0.6607 -0.0517  2.0687
16096TIP3    H269780   5.922   3.457  12.579 -1.4552  0.8919 -0.2009
16097TIP3   OH269781   0.206   4.496  10.799 -0.0566 -0.3768  0.1988
16097TIP3    H169782   0.263   4.569  10.825 -1.5623  1.2138 -0.7859
16097TIP3    H269783   0.134   4.498  10.862 -0.1431 -0.9812  0.1272
16098TIP3   OH269784   1.433   0.828  17.301 -0.6405 -0.1598 -0.0082
16098TIP3    H169785   1.438   0.835  17.206 -0.5099 -0.6168 -0.0381
16098TIP3    H269786   1.340   0.816  17.320 -0.6670 -0.0634 -0.0780
16099TIP3   OH269787   0.418   1.455   1.327 -0.0857  0.9628 -0.4656
16099TIP3    H169788   0.400   1.416   1.242  1.6847 -0.7441 -0.1107
16099TIP3    H269789   0.338   1.503   1.348 -0.9855  0.5105 -2.5612
16100TIP3   OH269790   0.158   2.270  16.799 -0.2046 -0.3438  0.4434
16100TIP3    H169791   0.228   2.206  16.808  0.5168  0.4390  0.5456
16100TIP3    H269792   0.192   2.349  16.842 -0.4457  0.5940 -1.0315
16101TIP3   OH269793   2.669   4.786   5.716 -0.0022  0.0513  0.5103
16101TIP3    H169794   2.758   4.799   5.749  0.1540  0.0806  0.0917
16101TIP3    H269795   2.682   4.746   5.629 -0.3970  0.0155  0.4679
16102TIP3   OH269796   3.524   5.840   3.379  0.3528  0.4449 -0.2001
16102TIP3    H169797   3.451   5.902   3.386 -0.0026  0.2655 -1.8591
16102TIP3    H269798   3.580   5.876   3.310  0.0155 -1.1497 -1.3674
16103TIP3   OH269799   6.261   1.964  13.678 -0.5153  0.7602  0.1367
16103TIP3    H169800   6.303   1.930  13.757 -1.5992 -1.2058 -0.0607
16103TIP3    H269801   6.270   1.893  13.614  0.9769  2.5758 -1.7980
16104TIP3   OH269802   4.273   5.457  13.544 -0.7100  0.7539  0.4733
16104TIP3    H169803   4.271   5.479  13.450 -0.7371 -0.0463  0.2793
16104TIP3    H269804   4.344   5.394  13.552  0.7355  2.3964  1.3710
16105TIP3   OH269805   3.230   2.763   8.099  0.6783 -0.7136 -0.4635
16105TIP3    H169806   3.297   2.822   8.065  1.2275 -1.4302 -0.6681
16105TIP3    H269807   3.208   2.706   8.025 -1.5230  0.6614 -0.9549
16106TIP3   OH269808   3.964   2.659  16.914 -0.2636  0.0620  0.4493
16106TIP3    H169809   3.999   2.572  16.934 -0.5994 -0.3687 -0.7542
16106TIP3    H269810   4.030   2.699  16.857 -1.4609 -0.5852 -1.4688
16107TIP3   OH269811   0.895   4.700  13.624 -0.3074 -0.2086  0.3736
16107TIP3    H169812   0.912   4.624  13.679  0.0314 -0.2028  0.2757
16107TIP3    H269813   0.804   4.723  13.643 -0.4156 -0.6444  0.3978
16108TIP3   OH269814   1.629   3.258   0.582 -0.2066 -0.5033  0.4101
16108TIP3    H169815   1.645   3.315   0.657  2.3203 -1.4508  0.6847
16108TIP3    H269816   1.682   3.295   0.512 -1.0205 -0.7461 -0.3584
16109TIP3   OH269817   2.992   5.956  14.647 -0.3262  0.2596 -0.2638
16109TIP3    H169818   2.974   6.043  14.612 -1.3693 -0.3963 -1.4543
16109TIP3    H269819   3.057   5.919  14.587  0.4580  0.3617  0.4980
16110TIP3   OH269820   0.148   5.688  14.379 -0.0691 -0.1839  0.5494
16110TIP3    H169821   0.166   5.644  14.296 -0.7635 -0.9794  0.8087
16110TIP3    H269822   0.190   5.774  14.370  2.5352 -1.3675  0.5772
16111TIP3   OH269823   5.995   0.410  13.722  0.0663  0.0998  0.5231
16111TIP3    H169824   5.928   0.403  13.655  0.7202 -1.5997 -0.0124
16111TIP3    H269825   6.076   0.428  13.673  0.5345 -1.0795  0.8262
16112TIP3   OH269826   5.380   3.402   2.128 -0.2723 -0.1271  0.5846
16112TIP3    H169827   5.293   3.395   2.168 -0.3287 -0.3693  0.4222
16112TIP3    H269828   5.433   3.335   2.173 -0.0264  0.3706  1.0481
16113TIP3   OH269829   2.116   5.492   0.276 -0.5753 -0.0632  0.6061
16113TIP3    H169830   2.164   5.544   0.341  0.3206 -0.0237 -0.0543
16113TIP3    H269831   2.064   5.556   0.227 -1.9093 -0.1953  1.8031
16114TIP3   OH269832   2.078   5.681  13.144 -0.0528 -0.1642 -0.2053
16114TIP3    H169833   2.050   5.702  13.055  1.3893  2.2463 -0.1885
16114TIP3    H269834   2.159   5.632  13.133  0.0554  0.0192 -0.2327
16115TIP3   OH269835   4.186   0.381  17.290  0.2090 -0.1787  0.1403
16115TIP3    H169836   4.166   0.441  17.217 -0.2269  1.2259  1.3584
16115TIP3    H269837   4.101   0.342  17.313 -0.6162  2.6706  2.6270
16116TIP3   OH269838   6.111   3.081   2.213  0.5846  0.0151  0.4736
16116TIP3    H169839   6.126   2.999   2.167 -1.5393 -0.1559  0.0056
16116TIP3    H269840   6.034   3.065   2.267 -0.5692  1.9958 -0.4831
16117TIP3   OH269841   4.292   5.056  11.300 -0.1007 -0.0649 -0.0381
16117TIP3    H169842   4.319   5.094  11.216 -2.1801  0.1537 -0.6801
16117TIP3    H269843   4.248   5.128  11.346  0.3402 -0.3932  0.9210
16118TIP3   OH269844   6.671   6.058   5.835 -0.0363  0.5163  0.0798
16118TIP3    H169845   6.674   6.060   5.930  0.8407 -0.2266  0.0801
16118TIP3    H269846   6.717   5.978   5.811 -1.8389 -0.2762 -0.9194
16119TIP3   OH269847   6.277   2.414  15.288  0.0776  0.7054  0.1789
16119TIP3    H169848   6.298   2.357  15.214 -0.4938 -0.6244  1.0153
16119TIP3    H269849   6.362   2.445  15.320  0.3814  0.4652 -0.3770
16120TIP3   OH269850   4.591   0.775  12.472  0.5246  0.3315  0.0324
16120TIP3    H169851   4.506   0.733  12.459 -0.6985  2.9228 -1.2200
16120TIP3    H269852   4.638   0.761  12.390  2.3929 -3.0092  1.4628
16121TIP3   OH269853   0.490   4.971  13.038 -0.1387  0.5167 -0.3507
16121TIP3    H169854   0.452   4.923  12.964  1.4065  0.5706 -1.2117
16121TIP3    H269855   0.560   4.914  13.070 -1.1051  0.2522  1.4563
16122TIP3   OH269856   6.355   0.493  15.025  0.4976  0.1198 -0.5117
16122TIP3    H169857   6.388   0.555  15.089 -0.1629 -0.9235  0.8956
16122TIP3    H269858   6.417   0.420  15.028 -0.8674 -1.0508  0.8385
16123TIP3   OH269859   2.795   2.795   1.935 -0.5624 -0.1594 -0.2002
16123TIP3    H169860   2.768   2.748   1.856 -0.7942 -0.5990  0.1381
16123TIP3    H269861   2.886   2.768   1.948 -0.8312 -0.8940  0.2526
16124TIP3   OH269862   3.780   3.385   1.760  0.1199 -0.5753  0.1892
16124TIP3    H169863   3.836   3.444   1.810 -0.5076 -0.5254  0.8638
16124TIP3    H269864   3.709   3.441   1.728  0.3339 -0.6766 -0.4696
16125TIP3   OH269865   0.384   0.673   0.263 -0.4665  0.2687 -0.5799
16125TIP3    H169866   0.440   0.747   0.240 -0.6562  0.2056 -1.2521
16125TIP3    H269867   0.445   0.601   0.278 -0.2772  0.5593  0.1152
16126TIP3   OH269868   4.269   0.149   2.770 -0.2179 -0.0531 -0.1884
16126TIP3    H169869   4.276   0.210   2.843  2.3892 -0.7526  0.2538
16126TIP3    H269870   4.341   0.172   2.712 -2.8619  1.2586 -3.3144
16127TIP3   OH269871   3.855   0.875   5.570 -0.4073  0.2185  0.4262
16127TIP3    H169872   3.846   0.911   5.658  0.4097 -0.6802  0.8958
16127TIP3    H269873   3.796   0.800   5.567 -0.0113 -0.0954  0.4046
16128TIP3   OH269874   4.961   3.632  16.625 -0.7758  0.0078 -0.2993
16128TIP3    H169875   5.052   3.614  16.601  0.7407  3.1769  2.3180
16128TIP3    H269876   4.937   3.561  16.684 -0.1886 -1.0449 -1.2789
16129TIP3   OH269877   5.456   3.087  10.248 -0.4804  0.1083 -0.0168
16129TIP3    H169878   5.382   3.134  10.211  1.2558  1.2949 -2.2300
16129TIP3    H269879   5.503   3.153  10.299 -0.3733 -0.3881  0.5429
16130TIP3   OH269880   2.275   4.622  16.602 -0.4537 -0.3880  0.4700
16130TIP3    H169881   2.358   4.580  16.578 -1.3183 -2.2726  0.5886
16130TIP3    H269882   2.222   4.619  16.523 -0.5353  0.5362  0.4798
16131TIP3   OH269883   0.243   4.085  11.073  0.3936 -1.0060 -0.5032
16131TIP3    H169884   0.200   4.081  11.159  1.2593 -1.5408 -0.0750
16131TIP3    H269885   0.255   3.993  11.049  1.2046 -0.8621 -0.6579
16132TIP3   OH269886   5.634   2.002   5.198  0.9637 -0.2052  0.6273
16132TIP3    H169887   5.626   2.095   5.218  0.9255 -0.0875  0.0844
16132TIP3    H269888   5.584   1.958   5.266  2.1545  0.0804  1.7333
16133TIP3   OH269889   0.740   0.570   3.604  0.0883  0.4275  0.1046
16133TIP3    H169890   0.685   0.517   3.546  0.6438 -2.4864  2.0096
16133TIP3    H269891   0.701   0.559   3.690  2.7881 -0.6597  1.3074
16134TIP3   OH269892   3.684   5.866  14.836 -0.4397  0.3295 -0.2929
16134TIP3    H169893   3.730   5.790  14.800  0.5049  0.6245  0.2603
16134TIP3    H269894   3.703   5.937  14.774  1.3715  0.8931  0.8294
16135TIP3   OH269895   1.906   2.283   2.527  0.7291  0.8451 -0.5166
16135TIP3    H169896   1.860   2.353   2.574  1.5663  0.2178  1.3456
16135TIP3    H269897   1.950   2.328   2.455 -0.0067  1.9859 -0.2859
16136TIP3   OH269898   1.906   4.843  16.642  0.1916  0.4086 -0.3608
16136TIP3    H169899   1.857   4.770  16.679  2.0567 -1.1393 -0.7614
16136TIP3    H269900   1.964   4.871  16.713  1.0411  0.0063 -0.8803
16137TIP3   OH269901   2.542   6.678  12.110 -0.2030  0.3382 -0.4586
16137TIP3    H169902   2.600   6.608  12.139 -0.7766 -0.2784 -0.7596
16137TIP3    H269903   2.527   6.731  12.188  1.5895  1.1169 -0.6151
16138TIP3   OH269904   3.917   5.089   1.462  0.4406  0.3879  0.1684
16138TIP3    H169905   4.004   5.084   1.501  0.9497 -1.6135 -1.0601
16138TIP3    H269906   3.933   5.095   1.368 -0.7015 -1.2657 -0.1868
16139TIP3   OH269907   1.749   5.426  12.159  0.6432  1.0880  0.3016
16139TIP3    H169908   1.783   5.514  12.169  2.0715  0.3455  2.9446
16139TIP3    H269909   1.740   5.393  12.249 -3.0941 -0.3113 -0.4068
16140TIP3   OH269910   0.793   4.026   4.829  0.0594  0.4795 -0.4472
16140TIP3    H169911   0.766   4.111   4.864 -2.1860 -0.0942 -0.6771
16140TIP3    H269912   0.754   4.022   4.742  0.8590 -0.4613 -0.7882
16141TIP3   OH269913   1.356   4.528  13.604  0.3580  0.3250  0.1512
16141TIP3    H169914   1.381   4.461  13.540  1.0514 -1.0291  1.7591
16141TIP3    H269915   1.279   4.569  13.567  0.0192 -1.2455 -0.9918
16142TIP3   OH269916   6.137   2.943  11.110  0.6315  0.0203  0.1419
16142TIP3    H169917   6.129   3.024  11.060  0.1039 -2.3436 -4.0789
16142TIP3    H269918   6.222   2.950  11.154  0.5443  2.8065  0.0495
16143TIP3   OH269919   6.433   3.420   2.681  0.1876 -0.1762 -0.3581
16143TIP3    H169920   6.447   3.408   2.587  1.2784 -0.1534 -0.2191
16143TIP3    H269921   6.432   3.332   2.717 -0.1070 -0.1797 -0.3733
16144TIP3   OH269922   4.932   2.965  12.767 -0.4369 -0.4719 -0.0132
16144TIP3    H169923   4.985   3.014  12.704  0.1015 -0.0008  0.7915
16144TIP3    H269924   4.916   2.881  12.725  0.6608 -0.4919 -0.4140
16145TIP3   OH269925   1.676   2.698   3.999  0.0559  0.2678 -0.2231
16145TIP3    H169926   1.721   2.741   4.072 -0.0213 -1.1854  0.7331
16145TIP3    H269927   1.591   2.673   4.036 -0.2851  0.1923 -1.0540
16146TIP3   OH269928   0.589   4.502   0.297  0.2088 -0.3638  0.2151
16146TIP3    H169929   0.655   4.432   0.296  1.1001  0.4616  0.5183
16146TIP3    H269930   0.533   4.483   0.222  2.3097  0.3490 -1.6168
16147TIP3   OH269931   3.462   2.144  15.035 -0.0891  0.0997  0.1719
16147TIP3    H169932   3.550   2.171  15.063  0.1635 -1.3479  0.8878
16147TIP3    H269933   3.423   2.105  15.114 -1.0524 -0.0537 -0.3679
16148TIP3   OH269934   6.472   5.449   4.785  0.4146  0.4410  0.0749
16148TIP3    H169935   6.475   5.494   4.700  1.8946  0.5817  0.1732
16148TIP3    H269936   6.562   5.455   4.818  0.0046 -0.1941  1.3547
16149TIP3   OH269937   5.284   4.890  17.465 -0.0865  0.2803  0.6623
16149TIP3    H169938   5.197   4.925  17.485  0.1864  0.4104  1.6667
16149TIP3    H269939   5.338   4.914  17.540  0.8193  0.1794  0.0599
16150TIP3   OH269940   0.035   3.022   6.485 -0.9003 -0.2849  0.2790
16150TIP3    H169941  -0.015   2.967   6.425 -1.3905  1.0178 -0.5538
16150TIP3    H269942   0.056   3.100   6.433  1.6929 -0.6093  0.7171
16151TIP3   OH269943   0.561   3.713   6.187  0.3946  0.0668  0.7829
16151TIP3    H169944   0.484   3.689   6.237  1.5199  1.7094  3.5372
16151TIP3    H269945   0.614   3.633   6.183 -1.0405 -0.8600 -0.4734
16152TIP3   OH269946   0.559   3.933  12.294  0.2873 -0.1115 -0.4125
16152TIP3    H169947   0.569   3.928  12.389  0.3350 -0.9991 -0.4559
16152TIP3    H269948   0.483   3.989  12.281 -0.9803 -1.6124  0.2217
16153TIP3   OH269949   4.686   2.809  15.482  0.2316  0.6650 -0.3257
16153TIP3    H169950   4.656   2.763  15.561  0.0712 -0.5728 -1.0707
16153TIP3    H269951   4.744   2.878  15.515 -0.3773  0.6202  0.9087
16154TIP3   OH269952   5.739   1.134   4.438 -0.2422 -0.0800 -0.1579
16154TIP3    H169953   5.778   1.048   4.445 -1.3109 -0.5749 -0.0867
16154TIP3    H269954   5.754   1.175   4.524  1.8331  0.5273 -0.7527
16155TIP3   OH269955   6.741   5.320  16.176  0.1051  0.5863  0.2328
16155TIP3    H169956   6.800   5.290  16.107 -1.1332  0.8068 -0.9551
16155TIP3    H269957   6.797   5.369  16.236  1.1038  0.9226 -0.9449
16156TIP3   OH269958   0.410   2.287   1.130  0.1285  0.0082 -0.0472
16156TIP3    H169959   0.383   2.221   1.066  0.7208 -0.7591  0.4757
16156TIP3    H269960   0.481   2.245   1.179 -0.5582  0.4275  1.3597
16157TIP3   OH269961   1.316   2.064   0.175 -0.6076 -0.0746  0.2679
16157TIP3    H169962   1.344   2.021   0.255 -0.1660  1.3031  0.8917
16157TIP3    H269963   1.338   2.156   0.189 -1.5403  0.3647 -0.9872
16158TIP3   OH269964   5.638   2.037   6.250 -0.1633 -0.0293 -0.2968
16158TIP3    H169965   5.713   1.998   6.207 -1.0447 -1.3096 -0.7203
16158TIP3    H269966   5.671   2.066   6.335  0.3631 -2.4699  0.3830
16159TIP3   OH269967   0.684   3.761  14.753 -0.1668  0.3518 -0.8820
16159TIP3    H169968   0.731   3.822  14.810  0.2480 -0.2792 -0.5339
16159TIP3    H269969   0.747   3.739  14.684 -0.8802  1.6255 -1.9988
16160TIP3   OH269970   6.725   3.527  17.141  0.1141  0.5580 -0.6655
16160TIP3    H169971   6.779   3.591  17.187 -0.0874  1.4374 -1.6092
16160TIP3    H269972   6.659   3.500  17.205  0.9065  0.4041  0.1030
16161TIP3   OH269973   4.487   3.493   1.964 -0.0465  0.5364 -0.0609
16161TIP3    H169974   4.391   3.487   1.964  0.0103 -0.4817  0.1715
16161TIP3    H269975   4.515   3.427   2.027  0.8230  0.6315 -0.3426
16162TIP3   OH269976   4.242   1.815  11.729 -0.0025  0.2345  0.0118
16162TIP3    H169977   4.155   1.818  11.768 -0.3310 -0.9625 -0.5813
16162TIP3    H269978   4.284   1.738  11.767  0.0709 -0.3206 -1.1295
16163TIP3   OH269979   3.611   6.474  17.455  0.0055  0.4003 -0.0163
16163TIP3    H169980   3.695   6.427  17.451  0.0686  0.5640 -0.8929
16163TIP3    H269981   3.562   6.430  17.524  1.0260  0.6588  0.8879
16164TIP3   OH269982   3.319   4.074  14.665 -0.0341 -0.5152  0.0421
16164TIP3    H169983   3.380   4.135  14.624 -0.2638 -0.4458 -0.1952
16164TIP3    H269984   3.251   4.060  14.600 -1.1451  0.6699  0.9137
16165TIP3   OH269985   1.524   4.319   0.057 -0.1146  0.4691 -0.5455
16165TIP3    H169986   1.495   4.228   0.068 -1.6165  1.0634  0.9538
16165TIP3    H269987   1.478   4.349  -0.021  2.0861 -0.6214 -2.3827
16166TIP3   OH269988   4.787   6.369   3.355 -0.0409  0.2196  0.5918
16166TIP3    H169989   4.829   6.283   3.364 -0.3332 -0.2461 -1.7763
16166TIP3    H269990   4.696   6.353   3.379  0.0686  0.0574  0.9059
16167TIP3   OH269991   6.118   2.362  12.479  0.1353  0.3048  0.2197
16167TIP3    H169992   6.144   2.408  12.559 -0.2292  0.9140 -0.0046
16167TIP3    H269993   6.199   2.327  12.443  0.3446  0.3070  0.6811
16168TIP3   OH269994   4.183   2.430   3.982  0.4047 -0.0115 -0.1082
16168TIP3    H169995   4.123   2.363   4.015  1.6655 -1.2419 -0.2325
16168TIP3    H269996   4.152   2.512   4.022 -0.2424 -0.8975  1.2740
16169TIP3   OH269997   1.418   3.052   1.158 -0.0523  0.5283  0.2303
16169TIP3    H169998   1.470   2.978   1.128 -1.1476 -1.2657  2.4106
16169TIP3    H269999   1.464   3.083   1.236  0.0637  1.7985 -0.3192
16170TIP3   OH270000   4.095   0.580  10.933  0.5657 -0.0998 -0.7027
16170TIP3    H170001   4.176   0.563  10.884  0.2110 -0.2059 -1.2497
16170TIP3    H270002   4.086   0.503  10.990 -0.7409 -1.5760 -2.7828
16171TIP3   OH270003   1.284   2.302  14.410  0.5837  0.3631 -0.4106
16171TIP3    H170004   1.373   2.339  14.411  0.0516  1.6792  0.5708
16171TIP3    H270005   1.234   2.363  14.356 -0.2762  1.0343  1.1034
16172TIP3   OH270006   4.760   2.375   1.299  0.0255  0.1569  0.3228
16172TIP3    H170007   4.800   2.316   1.363  2.1706 -0.3901 -1.4064
16172TIP3    H270008   4.676   2.335   1.279  0.3097 -0.8844  1.1296
16173TIP3   OH270009   4.132   3.206  14.653  0.3230  0.4803  0.4454
16173TIP3    H170010   4.175   3.142  14.597  0.9240 -0.2928  1.7412
16173TIP3    H270011   4.060   3.240  14.600  1.9569  1.1564 -1.4687
16174TIP3   OH270012   2.202   0.710  17.239 -0.6253  0.0455  0.0010
16174TIP3    H170013   2.175   0.692  17.149  1.0713 -1.3152 -0.2765
16174TIP3    H270014   2.124   0.694  17.291 -0.7214 -2.8196 -0.8555
16175TIP3   OH270015   3.898   0.364  17.283  0.4296 -0.0388  0.4759
16175TIP3    H170016   3.844   0.414  17.345  1.2312  1.8657 -0.2690
16175TIP3    H270017   3.867   0.393  17.197  2.1945  0.6708  0.0295
16176TIP3   OH270018   1.362   4.860   5.777  0.2046  0.2563 -0.0462
16176TIP3    H170019   1.293   4.911   5.819  2.1048  1.2341  2.1031
16176TIP3    H270020   1.438   4.918   5.776  1.8233 -1.7290  0.4160
16177TIP3   OH270021   2.531   2.284  12.234  0.0023 -0.1461  0.0116
16177TIP3    H170022   2.622   2.266  12.258 -0.2777 -2.0935 -0.2712
16177TIP3    H270023   2.534   2.301  12.140  0.0320 -0.4978 -0.0511
16178TIP3   OH270024   5.867   5.239   2.390 -0.1385 -0.2783 -0.4837
16178TIP3    H170025   5.917   5.207   2.315 -0.0469  0.6886 -0.8449
16178TIP3    H270026   5.789   5.182   2.392 -0.5730  0.2158 -1.8478
16179TIP3   OH270027   2.805   3.475   3.562  0.4946  0.0434  0.1642
16179TIP3    H170028   2.885   3.432   3.593  0.9479  0.2649 -0.6793
16179TIP3    H270029   2.741   3.457   3.631  0.7637 -1.6950  0.0115
16180TIP3   OH270030   0.700   5.254  15.399 -0.0779  0.0116  0.6462
16180TIP3    H170031   0.688   5.202  15.320 -0.0303  0.0934  0.5847
16180TIP3    H270032   0.644   5.331  15.386 -0.4224 -0.1959  0.8935
16181TIP3   OH270033   6.572   6.122   3.905 -0.5107 -0.7679  0.6242
16181TIP3    H170034   6.625   6.193   3.871  0.1693 -0.9754  1.2382
16181TIP3    H270035   6.612   6.043   3.870 -2.3042 -0.8198 -1.5268
16182TIP3   OH270036   6.387   2.975  16.040 -0.6744 -0.2399  0.7100
16182TIP3    H170037   6.418   2.950  15.953 -1.3573 -2.7185  1.0933
16182TIP3    H270038   6.326   3.047  16.024 -0.3966 -0.3180 -0.8155
16183TIP3   OH270039   5.807   2.786  12.609  0.1912 -0.0802 -0.5258
16183TIP3    H170040   5.852   2.790  12.694 -2.3898 -0.1182  0.9272
16183TIP3    H270041   5.836   2.704  12.570  3.0590  0.9064 -0.7437
16184TIP3   OH270042   2.134   4.384   5.724 -0.1840  0.8510 -0.3279
16184TIP3    H170043   2.151   4.479   5.724 -0.0250  0.8745 -2.6189
16184TIP3    H270044   2.068   4.371   5.656 -0.7055 -0.6179  0.4237
16185TIP3   OH270045   4.907   4.509  16.737 -0.0025 -0.1861 -0.7860
16185TIP3    H170046   4.912   4.500  16.832  2.0559  0.3277 -0.8041
16185TIP3    H270047   4.929   4.421  16.704 -0.6313 -0.3422 -0.7968
16186TIP3   OH270048   0.749   1.521  14.108 -0.0992  0.6267  0.1947
16186TIP3    H170049   0.659   1.550  14.122  0.2444  1.5457  0.5716
16186TIP3    H270050   0.791   1.593  14.062 -0.2489 -0.9068 -2.5442
16187TIP3   OH270051   4.318   5.356  14.541 -0.2172 -0.1650 -0.3828
16187TIP3    H170052   4.258   5.290  14.575  0.0250 -0.2305 -0.0708
16187TIP3    H270053   4.333   5.415  14.615 -1.5478  1.0710 -1.0598
16188TIP3   OH270054   1.571   5.809   1.771  0.4780 -0.2462  0.2848
16188TIP3    H170055   1.539   5.896   1.795 -0.1900 -0.5808  0.6282
16188TIP3    H270056   1.666   5.819   1.768  0.3745  0.6682 -0.3774
16189TIP3   OH270057   3.316   5.945  13.300  0.4723 -0.1629  0.1780
16189TIP3    H170058   3.281   5.888  13.232 -0.0255 -0.1238  0.3914
16189TIP3    H270059   3.378   5.890  13.348  1.2587 -0.0152 -0.6607
16190TIP3   OH270060   6.601   1.211   2.957  0.3354  0.3974  0.5719
16190TIP3    H170061   6.516   1.224   2.915  0.4406  0.4788  0.3815
16190TIP3    H270062   6.584   1.220   3.050 -0.2018 -1.3218  0.6856
16191TIP3   OH270063   6.648   6.602   1.220 -0.3154  0.1566  0.0135
16191TIP3    H170064   6.675   6.694   1.222  1.1500 -0.2435 -0.2285
16191TIP3    H270065   6.585   6.594   1.291  1.2572  0.8634  1.5719
16192TIP3   OH270066   5.930   3.737  13.522 -0.0520 -0.3869  0.4250
16192TIP3    H170067   5.908   3.705  13.609 -1.8937 -0.1983  0.0806
16192TIP3    H270068   5.887   3.822  13.516  0.3154 -0.2570 -0.5486
16193TIP3   OH270069   3.364   3.104  12.563  0.0677  0.4555  0.0294
16193TIP3    H170070   3.318   3.135  12.641  1.5403  0.4155  0.9382
16193TIP3    H270071   3.345   3.170  12.496 -2.0620 -0.0314  0.0793
16194TIP3   OH270072   2.114   3.492  15.458  0.0215  0.3090  0.1032
16194TIP3    H170073   2.027   3.479  15.422  0.7556  0.2533 -1.7765
16194TIP3    H270074   2.136   3.583  15.435  1.0462 -0.1559 -0.8913
16195TIP3   OH270075   4.839   4.145   1.970  0.1431 -0.6157 -0.5175
16195TIP3    H170076   4.889   4.069   1.999  0.1252  0.0467  1.3337
16195TIP3    H270077   4.748   4.122   1.988 -0.0595 -0.8781 -1.7318
16196TIP3   OH270078   3.382   5.084   1.458 -0.1402 -0.3817  0.4026
16196TIP3    H170079   3.428   5.138   1.394 -2.6758  1.9851  0.3843
16196TIP3    H270080   3.359   5.145   1.529 -1.0197 -2.0063  1.5831
16197TIP3   OH270081   5.987   2.547   6.353  0.0147  0.1733  0.6184
16197TIP3    H170082   5.922   2.483   6.380 -1.6895  1.5753  0.0017
16197TIP3    H270083   6.018   2.516   6.268  0.8568 -0.9642  1.3089
16198TIP3   OH270084   5.388   0.637   6.316 -0.0862  0.3961  0.1342
16198TIP3    H170085   5.395   0.731   6.297  1.2931  0.1678 -0.6524
16198TIP3    H270086   5.318   0.605   6.259 -0.7097  0.9708  0.5618
16199TIP3   OH270087   2.691   0.718  17.205  0.2339  0.1113  0.0315
16199TIP3    H170088   2.775   0.721  17.251 -0.8071 -0.3241  2.1225
16199TIP3    H270089   2.713   0.724  17.112  2.3788  3.2572  0.5807
16200TIP3   OH270090   5.686   1.926  13.574 -0.4657  0.0252  0.5976
16200TIP3    H170091   5.630   1.970  13.638 -0.5005  0.3391  0.3540
16200TIP3    H270092   5.627   1.872  13.523 -0.4423 -0.2008  0.8096
16201TIP3   OH270093   3.003   4.402  13.383  0.5237  0.1773 -0.0842
16201TIP3    H170094   3.089   4.365  13.399  0.0620 -1.1987 -0.6024
16201TIP3    H270095   2.942   4.332  13.408 -0.4051  0.7260 -0.7442
16202TIP3   OH270096   4.646   0.719   4.289  0.5757 -0.1238 -0.6213
16202TIP3    H170097   4.719   0.776   4.314  1.4547 -1.0149 -1.0876
16202TIP3    H270098   4.589   0.776   4.236 -0.1047  1.1225  1.3421
16203TIP3   OH270099   5.661   1.148   3.525  0.0127  0.4586  0.6261
16203TIP3    H170100   5.735   1.087   3.531 -0.7371 -0.5741 -0.2136
16203TIP3    H270101   5.693   1.229   3.565  1.2320 -0.3024  1.2510
16204TIP3   OH270102   1.760   6.519  13.356 -0.0789 -0.2416  0.0103
16204TIP3    H170103   1.803   6.601  13.380 -0.1136 -0.1778 -0.1418
16204TIP3    H270104   1.821   6.477  13.295 -0.5732  0.2155 -0.8191
16205TIP3   OH270105   0.221   0.012  13.834  0.4795  0.2078  0.4816
16205TIP3    H170106   0.258  -0.076  13.844 -2.5834 -1.5094 -1.5659
16205TIP3    H270107   0.130   0.004  13.864  0.4183  3.0477  1.3716
16206TIP3   OH270108   5.876   3.540  14.198 -0.5345  0.3348 -0.3582
16206TIP3    H170109   5.796   3.590  14.212 -1.0192 -0.5286 -0.0311
16206TIP3    H270110   5.915   3.533  14.285 -0.3971  0.2475 -0.4268
16207TIP3   OH270111   2.110   3.959   1.777 -0.8175 -0.9320  0.1698
16207TIP3    H170112   2.162   3.986   1.853  0.3947 -2.2780 -0.1453
16207TIP3    H270113   2.038   4.022   1.774 -0.0894  0.0205  1.5721
16208TIP3   OH270114   0.224   5.480   0.780 -0.2980  0.1591  0.5256
16208TIP3    H170115   0.281   5.412   0.817 -0.5588  0.3594  1.3172
16208TIP3    H270116   0.206   5.450   0.690  3.7496  1.7228 -1.0053
16209TIP3   OH270117   3.670   6.171  16.416  0.3035  0.6952 -0.0137
16209TIP3    H170118   3.665   6.076  16.408  0.7255  0.6390  0.3229
16209TIP3    H270119   3.586   6.198  16.451  0.6716  0.2940  1.2088
16210TIP3   OH270120   6.250   2.744   6.257  0.0662  0.2087 -0.0518
16210TIP3    H170121   6.297   2.826   6.268 -0.3135  0.1985  1.9865
16210TIP3    H270122   6.168   2.756   6.304  0.0608 -1.3595  0.4135
16211TIP3   OH270123   3.640   0.229  12.956 -0.0188 -0.2427 -0.1491
16211TIP3    H170124   3.689   0.170  12.899 -1.0067 -2.5204  1.2132
16211TIP3    H270125   3.663   0.201  13.044 -0.6442  1.3653  0.5626
16212TIP3   OH270126   3.411   4.109   2.435 -0.2862 -0.2552 -0.4627
16212TIP3    H170127   3.487   4.099   2.492 -0.0886  0.5048 -0.5774
16212TIP3    H270128   3.366   4.025   2.440 -0.9388  0.1670  1.7470
16213TIP3   OH270129   6.713   0.507  14.581 -0.1494  0.3975  0.3963
16213TIP3    H170130   6.794   0.556  14.591  0.7084 -0.9629  0.2610
16213TIP3    H270131   6.740   0.418  14.562 -1.6856  0.1935 -1.0821
16214TIP3   OH270132   3.257   6.437   1.701  0.3044 -0.2289 -0.1587
16214TIP3    H170133   3.348   6.406   1.710 -0.8772 -3.9586  0.8756
16214TIP3    H270134   3.216   6.411   1.783 -1.1806  4.0314  0.6898
16215TIP3   OH270135   1.132   3.013   2.120 -0.0553  0.4829 -0.0896
16215TIP3    H170136   1.095   3.037   2.205 -0.3061  1.3191 -0.4265
16215TIP3    H270137   1.070   2.950   2.084 -1.3146  2.0378 -0.7462
16216TIP3   OH270138   2.927   1.052   3.387 -0.0979 -0.3338  0.2097
16216TIP3    H170139   2.966   1.138   3.374  0.6605 -0.7549 -0.3968
16216TIP3    H270140   2.870   1.040   3.310  0.9647 -0.9834 -0.5046
16217TIP3   OH270141   6.243   5.973  16.391 -0.0311 -0.0591  0.2919
16217TIP3    H170142   6.298   5.967  16.469 -0.5894 -1.6015  0.5912
16217TIP3    H270143   6.154   5.982  16.425 -0.1489  0.7569 -0.1947
16218TIP3   OH270144   6.156   3.357  15.157  0.0148  0.1941 -0.2452
16218TIP3    H170145   6.145   3.447  15.126  1.4986  0.0130 -1.4029
16218TIP3    H270146   6.096   3.306  15.102 -1.6291  0.5489  1.1223
16219TIP3   OH270147   1.674   3.700   2.318  0.8744  0.6517  0.3089
16219TIP3    H170148   1.733   3.694   2.243  0.5751  1.8030 -0.0420
16219TIP3    H270149   1.587   3.686   2.282  0.8187  0.1926  0.6174
16220TIP3   OH270150   0.002   6.351   4.236 -0.6169 -0.2719  0.3351
16220TIP3    H170151  -0.050   6.292   4.180  2.1235 -1.0158 -1.5938
16220TIP3    H270152   0.047   6.409   4.175  0.3168  0.8011  1.9761
16221TIP3   OH270153   1.967   4.613   3.486  0.5722  0.4990 -0.0326
16221TIP3    H170154   1.885   4.567   3.470 -0.0486  1.7695 -0.5814
16221TIP3    H270155   2.028   4.544   3.512 -0.4674 -0.5588 -0.3223
16222TIP3   OH270156   2.124   4.425  13.583 -0.0008  0.5623 -0.4231
16222TIP3    H170157   2.059   4.394  13.520  0.9303  0.1552 -1.2004
16222TIP3    H270158   2.180   4.349  13.599 -0.0494  0.7472  0.6734
16223TIP3   OH270159   3.193   1.264  15.123  0.0209 -0.1969  0.3166
16223TIP3    H170160   3.274   1.213  15.116  0.3608  0.2631  0.8392
16223TIP3    H270161   3.123   1.199  15.109  0.2743 -1.6363  4.3786
16224TIP3   OH270162   5.277   6.619   3.280 -0.0854  0.1790 -0.0031
16224TIP3    H170163   5.191   6.589   3.309 -0.4677  1.6414  0.4831
16224TIP3    H270164   5.339   6.560   3.322 -0.8133 -0.3393  0.3620
16225TIP3   OH270165   3.044   2.604  12.775  0.3370  0.3990  0.1637
16225TIP3    H170166   3.075   2.662  12.706 -0.3113 -0.3564 -0.7945
16225TIP3    H270167   3.124   2.574  12.818  0.8052  0.3194 -0.7319
16226TIP3   OH270168   5.440   3.615  16.204 -0.3054  0.3745  0.4895
16226TIP3    H170169   5.481   3.562  16.273  0.8745  0.0750 -0.4085
16226TIP3    H270170   5.363   3.652  16.246  0.5289  0.4349  2.0663
16227TIP3   OH270171   2.909   5.885   0.529 -0.7067  0.3502  0.2120
16227TIP3    H170172   3.003   5.872   0.511 -0.6572 -0.1291  0.7707
16227TIP3    H270173   2.874   5.796   0.533 -1.4791  0.5399 -1.4102
16228TIP3   OH270174   0.357   0.216   5.463  0.2393  0.1991 -0.3593
16228TIP3    H170175   0.422   0.145   5.467  0.1250  0.0134 -1.5511
16228TIP3    H270176   0.406   0.291   5.429  0.0296  0.3038 -0.4286
16229TIP3   OH270177   6.131   3.493  15.582 -0.2254 -0.3548  0.7874
16229TIP3    H170178   6.215   3.492  15.535  0.2994  0.5470  1.6662
16229TIP3    H270179   6.118   3.402  15.608 -0.9347 -1.0697 -1.7087
16230TIP3   OH270180   6.688   0.479  15.586  0.0159 -0.2954  0.2118
16230TIP3    H170181   6.734   0.409  15.633 -2.7340 -0.7186  2.5542
16230TIP3    H270182   6.606   0.491  15.634 -0.8715  2.6900 -1.7393
16231TIP3   OH270183   0.670   3.788   5.447 -0.4972  0.5163  0.1308
16231TIP3    H170184   0.747   3.824   5.491 -0.9454  1.3887  0.2233
16231TIP3    H270185   0.596   3.819   5.499 -0.8671 -1.4280  0.8209
16232TIP3   OH270186   2.283   6.250  14.896  0.7644 -0.0985  0.1438
16232TIP3    H170187   2.281   6.323  14.957  2.0271  0.3724 -0.3501
16232TIP3    H270188   2.245   6.176  14.944  1.4516  0.3364  1.3818
16233TIP3   OH270189   3.720   4.199   5.469  0.1353  0.0253 -0.4466
16233TIP3    H170190   3.636   4.241   5.452  0.5795  0.6354 -1.2206
16233TIP3    H270191   3.743   4.226   5.558 -0.9746 -1.0126  0.1810
16234TIP3   OH270192   5.371   0.223  13.661  0.1491  0.1555  0.0990
16234TIP3    H170193   5.332   0.273  13.733  0.5680 -0.6902  0.9446
16234TIP3    H270194   5.455   0.265  13.646  0.0490  0.3533  0.0999
16235TIP3   OH270195   1.822   6.438   6.114 -0.8428 -0.1427 -0.1237
16235TIP3    H170196   1.828   6.378   6.189  1.4317  0.1051 -0.0374
16235TIP3    H270197   1.781   6.517   6.150  0.3029  0.0109  0.9424
16236TIP3   OH270198   6.390   2.496  16.913 -0.2082  0.3923 -0.4788
16236TIP3    H170199   6.407   2.402  16.916  0.7770  0.5595 -0.5177
16236TIP3    H270200   6.403   2.520  16.822  1.2048  0.8443 -0.1842
16237TIP3   OH270201   0.844   0.771  17.471  0.6239 -0.1512 -0.4468
16237TIP3    H170202   0.802   0.782  17.556 -0.2812 -0.3020 -0.8728
16237TIP3    H270203   0.775   0.786  17.407  1.0623 -1.0322 -1.1503
16238TIP3   OH270204   5.674   3.737   4.967  0.5414  0.2469 -1.1601
16238TIP3    H170205   5.661   3.642   4.963  2.3955 -0.0745 -0.5041
16238TIP3    H270206   5.702   3.762   4.879  1.4532 -0.0745 -0.9731
16239TIP3   OH270207   5.727   1.518   0.258 -0.4301 -0.4133 -0.1361
16239TIP3    H170208   5.713   1.436   0.305 -0.2571 -0.8555 -0.8443
16239TIP3    H270209   5.818   1.541   0.275 -0.9239  0.5249  1.4339
16240TIP3   OH270210   3.515   0.152   6.417  0.3875 -0.4993  0.5133
16240TIP3    H170211   3.520   0.060   6.445 -2.4277 -1.0073 -0.3620
16240TIP3    H270212   3.426   0.178   6.438  1.0337  1.9836  0.4229
16241TIP3   OH270213   3.923   2.399  14.295  0.2778 -0.0063 -0.6134
16241TIP3    H170214   3.833   2.394  14.265  0.0302  0.0176  0.0950
16241TIP3    H270215   3.922   2.355  14.381  0.7069  0.9375 -0.1099
16242TIP3   OH270216   6.696   1.151   2.525  0.3725  0.1078  0.3634
16242TIP3    H170217   6.758   1.160   2.453  0.6067 -0.3580  0.5040
16242TIP3    H270218   6.698   1.058   2.546  1.2006  0.4118  1.7527
16243TIP3   OH270219   0.649   6.120   3.042 -0.3321 -0.4178  0.6492
16243TIP3    H170220   0.712   6.182   3.007 -1.7856  0.5378 -0.3806
16243TIP3    H270221   0.565   6.149   3.008 -1.1040 -2.8590  0.2605
16244TIP3   OH270222   0.888   0.700  13.778 -0.1376 -0.2634 -0.8586
16244TIP3    H170223   0.829   0.774  13.790 -0.0538 -0.1818 -0.9382
16244TIP3    H270224   0.893   0.689  13.683 -0.8204 -0.9201 -0.8266
16245TIP3   OH270225   3.775   6.393  12.250 -0.2765 -0.6793  0.6788
16245TIP3    H170226   3.845   6.373  12.189 -0.0865  0.1404  0.6164
16245TIP3    H270227   3.792   6.336  12.325  0.2504 -0.7386  0.5185
16246TIP3   OH270228   4.353   1.783  10.738  0.0601  0.0716  0.2406
16246TIP3    H170229   4.344   1.853  10.674 -1.7064 -1.1523 -0.9326
16246TIP3    H270230   4.406   1.717  10.694 -0.4012 -0.3863  0.3587
16247TIP3   OH270231   6.289   0.452   4.905 -0.1035  0.1390 -0.2169
16247TIP3    H170232   6.276   0.382   4.968 -1.6493  0.6547  0.0836
16247TIP3    H270233   6.215   0.444   4.845  0.1876  0.9631 -0.6986
16248TIP3   OH270234   5.247   4.207  14.835 -0.3693 -0.4221  0.1738
16248TIP3    H170235   5.165   4.236  14.875 -0.2642 -0.6627  0.5695
16248TIP3    H270236   5.306   4.283  14.843 -0.4203 -0.3933  0.2757
16249TIP3   OH270237   2.638   1.483  15.549 -0.0930 -0.6840  0.6322
16249TIP3    H170238   2.708   1.484  15.616  0.5931  2.2069  0.0022
16249TIP3    H270239   2.592   1.566  15.562 -1.5180 -1.1914 -0.9388
16250TIP3   OH270240   4.672   1.392  12.058 -0.1690  0.5733  0.1671
16250TIP3    H170241   4.764   1.412  12.048  0.9151 -3.0400  1.1971
16250TIP3    H270242   4.661   1.307  12.015 -3.4843  1.6780 -1.5199
16251TIP3   OH270243   2.834   5.664   5.223 -0.0205  0.1734 -0.2024
16251TIP3    H170244   2.789   5.744   5.197 -0.7658 -0.5678 -1.3292
16251TIP3    H270245   2.798   5.597   5.164  1.0699 -0.8494  0.2596
16252TIP3   OH270246   6.119   0.593  15.141  0.1800  0.5101 -0.1583
16252TIP3    H170247   6.076   0.570  15.223 -0.5645  1.0902 -0.3744
16252TIP3    H270248   6.197   0.537  15.138 -0.1621 -0.0209  0.5957
16253TIP3   OH270249   5.273   4.128   6.144 -0.1263  0.1278  0.0074
16253TIP3    H170250   5.222   4.097   6.069 -0.0903 -3.1485  1.1450
16253TIP3    H270251   5.224   4.098   6.221  1.9508 -0.4620  1.1870
16254TIP3   OH270252   3.257   3.234   4.877 -0.2486  0.0750  0.5573
16254TIP3    H170253   3.179   3.255   4.928 -0.1992 -1.5593  1.3798
16254TIP3    H270254   3.263   3.139   4.881  0.4695 -0.0200 -1.4958
16255TIP3   OH270255   2.188   0.720  12.561 -0.0329  0.7448  0.6182
16255TIP3    H170256   2.259   0.774  12.596 -1.2455  2.7356  0.1534
16255TIP3    H270257   2.111   0.747  12.610 -1.0092  0.7386 -0.8718
16256TIP3   OH270258   3.249   3.819   1.138  0.1491 -0.4360  0.0011
16256TIP3    H170259   3.330   3.857   1.171 -0.0458 -0.6952  0.8027
16256TIP3    H270260   3.269   3.727   1.124  0.5193 -0.1452 -1.6057
16257TIP3   OH270261   0.595   1.574  16.828  0.2818  0.0327 -0.2542
16257TIP3    H170262   0.654   1.501  16.807 -2.7952 -3.1868  1.0886
16257TIP3    H270263   0.622   1.602  16.915 -0.1931 -1.6070  0.4676
16258TIP3   OH270264   5.873   6.193  13.299 -0.5205 -0.2927  0.3642
16258TIP3    H170265   5.918   6.193  13.384 -0.7626  1.1418  0.5169
16258TIP3    H270266   5.815   6.116  13.303  0.2376 -0.8530  1.0582
16259TIP3   OH270267   5.758   6.380  12.959 -0.5556  0.1209  0.0087
16259TIP3    H170268   5.677   6.338  12.989  1.2126 -2.4979  1.4911
16259TIP3    H270269   5.793   6.319  12.893  1.5228 -0.2668  1.3817
16260TIP3   OH270270   5.403   0.041  11.250 -0.2212  0.0233 -0.0005
16260TIP3    H170271   5.413  -0.041  11.203 -1.5341 -0.0065 -0.2837
16260TIP3    H270272   5.418   0.019  11.342 -0.8797 -0.6230 -0.0352
16261TIP3   OH270273   5.241   0.883   1.390  0.0382 -0.1542 -0.3332
16261TIP3    H170274   5.150   0.867   1.368  0.5163 -0.0042 -2.8166
16261TIP3    H270275   5.245   0.878   1.485 -2.5213 -0.2370 -0.1662
16262TIP3   OH270276   0.439   5.737   2.477 -0.4589  0.6145  0.1045
16262TIP3    H170277   0.383   5.810   2.447 -1.1459  0.6033  1.2792
16262TIP3    H270278   0.493   5.776   2.546  0.5631  0.4622 -0.5910
16263TIP3   OH270279   4.253   6.414   4.518 -0.9032  0.3049 -0.3759
16263TIP3    H170280   4.292   6.378   4.598  0.8821  0.3463 -1.1708
16263TIP3    H270281   4.174   6.458   4.547 -0.2035  0.4789  1.3978
16264TIP3   OH270282   3.336   2.020  16.554 -0.1347 -0.1631 -0.0870
16264TIP3    H170283   3.410   2.059  16.506  0.9263  0.5272  1.9876
16264TIP3    H270284   3.265   2.083  16.544  0.0860 -0.0043 -0.7015
16265TIP3   OH270285   5.582   2.654   5.522 -0.2136  0.5277  0.5251
16265TIP3    H170286   5.542   2.621   5.603  1.5490 -1.8870  0.5227
16265TIP3    H270287   5.675   2.634   5.532  0.4650  2.5629 -1.0459
16266TIP3   OH270288   3.350   1.825   4.470  0.1758 -0.3326  0.3485
16266TIP3    H170289   3.328   1.902   4.522 -0.6210 -0.0482 -0.3775
16266TIP3    H270290   3.363   1.859   4.381 -2.4791 -1.2619 -0.4992
16267TIP3   OH270291   0.163   1.778   1.723  0.2880 -0.1295  0.3309
16267TIP3    H170292   0.141   1.761   1.814  0.3281  0.1779  0.3974
16267TIP3    H270293   0.202   1.696   1.692 -1.3037 -0.8277  0.0901
16268TIP3   OH270294   6.749   1.340  13.695  0.9009 -0.6253 -0.2335
16268TIP3    H170295   6.708   1.405  13.752  1.5427 -1.4138  1.1779
16268TIP3    H270296   6.688   1.330  13.622 -0.1331  0.1389  0.4947
16269TIP3   OH270297   5.449   6.047  12.178 -1.0988  0.3071 -0.4775
16269TIP3    H170298   5.366   6.026  12.135 -1.3380  2.4074 -1.1990
16269TIP3    H270299   5.424   6.104  12.251 -0.3947 -0.1685  0.1405
16270TIP3   OH270300   2.474   1.620   4.787  0.5922 -0.5922  0.4497
16270TIP3    H170301   2.505   1.692   4.842 -1.6698 -0.2480  1.3981
16270TIP3    H270302   2.417   1.663   4.722  0.4035 -1.3720  0.0909
16271TIP3   OH270303   1.034   4.094   3.753 -0.0662 -0.1326  0.1237
16271TIP3    H170304   1.062   4.060   3.838 -0.8531 -0.8509  0.1123
16271TIP3    H270305   1.085   4.174   3.741 -0.0292  0.0423  1.3326
16272TIP3   OH270306   0.856   5.456   6.166 -0.5454  0.2193  0.5356
16272TIP3    H170307   0.797   5.529   6.147 -0.2830  0.4299  0.5144
16272TIP3    H270308   0.927   5.496   6.217  0.4662  0.3061 -0.8993
16273TIP3   OH270309   5.665   2.350   5.510  0.2424  0.3719  0.2719
16273TIP3    H170310   5.575   2.379   5.526  0.5950  1.9885 -0.4249
16273TIP3    H270311   5.719   2.418   5.550  1.1303  0.8178 -1.5985
16274TIP3   OH270312   3.519   5.376   1.918  0.4494  0.3221  0.1527
16274TIP3    H170313   3.565   5.370   2.001 -1.5104  0.5421  1.3202
16274TIP3    H270314   3.548   5.459   1.881  1.5045  0.1198  0.4927
16275TIP3   OH270315   5.421   4.579   0.030 -0.4688  0.2844 -0.4903
16275TIP3    H170316   5.491   4.617  -0.023 -0.4992  0.0503 -0.6992
16275TIP3    H270317   5.355   4.551  -0.034 -0.4753 -0.0588 -0.3313
16276TIP3   OH270318   4.713   4.488   2.851  0.6461 -0.3553  0.1411
16276TIP3    H170319   4.797   4.532   2.843  0.0453  0.9214  0.6713
16276TIP3    H270320   4.648   4.558   2.852 -0.4751 -1.3277 -0.6159
16277TIP3   OH270321   6.496   3.289  16.553 -0.1162 -0.7477 -0.1846
16277TIP3    H170322   6.477   3.200  16.524  2.6332 -0.9458 -1.7206
16277TIP3    H270323   6.493   3.342  16.473 -1.2254  0.4780  0.6362
16278TIP3   OH270324   6.484   4.794  17.292 -0.6329 -0.5708 -0.4593
16278TIP3    H170325   6.489   4.808  17.387 -1.1700 -0.0598 -0.5004
16278TIP3    H270326   6.406   4.843  17.265  0.2832  0.4291 -1.3658
16279TIP3   OH270327   5.414   3.542  14.569  0.2114  0.0833  0.4387
16279TIP3    H170328   5.340   3.510  14.621  0.7510  0.5487  1.5414
16279TIP3    H270329   5.480   3.566  14.635  0.7752  1.0557 -0.4548
16280TIP3   OH270330   0.535   2.442  11.020 -0.0477 -0.3286 -0.6478
16280TIP3    H170331   0.581   2.454  10.937 -0.8601  1.6774 -0.8716
16280TIP3    H270332   0.575   2.507  11.078 -0.9264 -0.2381 -0.1320
16281TIP3   OH270333   2.554   1.710  14.723 -0.2994  0.1327  0.4664
16281TIP3    H170334   2.525   1.782  14.667  3.0604  1.0148 -0.3845
16281TIP3    H270335   2.570   1.751  14.808  1.5757  0.4820 -0.0072
16282TIP3   OH270336   5.645   2.647  15.677 -0.1333 -0.0697 -0.1000
16282TIP3    H170337   5.723   2.632  15.624 -0.0825  1.1061 -0.3931
16282TIP3    H270338   5.648   2.580  15.745  2.4840  1.3963  1.3997
16283TIP3   OH270339   0.952   0.879  14.748 -0.4485 -0.0080  0.1007
16283TIP3    H170340   0.954   0.787  14.720 -0.2618 -0.3197  1.0893
16283TIP3    H270341   0.949   0.875  14.844 -0.9150  1.0174  0.1459
16284TIP3   OH270342   2.557   6.100  12.748  0.0890  0.0237 -0.0770
16284TIP3    H170343   2.620   6.084  12.818  1.3541 -1.0276 -1.4247
16284TIP3    H270344   2.487   6.037  12.765  0.0552  0.2299  0.6042
16285TIP3   OH270345   1.155   3.902  14.081 -0.3089 -0.1349 -0.0193
16285TIP3    H170346   1.225   3.953  14.040  0.5373  0.0613  1.6047
16285TIP3    H270347   1.195   3.865  14.160 -2.3938  1.1949  1.7641
16286TIP3   OH270348   3.560   5.367   1.523 -0.6066  0.3053  0.5923
16286TIP3    H170349   3.502   5.361   1.446 -1.5658  0.5758  1.2687
16286TIP3    H270350   3.590   5.458   1.522 -0.2081  0.1735  0.2588
16287TIP3   OH270351   3.462   3.201  11.738  0.2397 -0.5497 -0.5723
16287TIP3    H170352   3.371   3.189  11.767  0.5515  1.4597  1.5461
16287TIP3    H270353   3.514   3.158  11.806  0.9159 -0.0132 -0.7439
16288TIP3   OH270354   2.090   5.265  11.809  0.3768 -0.8975 -0.5188
16288TIP3    H170355   2.086   5.174  11.780 -1.3803 -1.8435  2.2771
16288TIP3    H270356   2.003   5.300  11.792  0.2354 -0.5716  0.7596
16289TIP3   OH270357   1.810   2.298   2.240  0.4716  0.2058 -0.0250
16289TIP3    H170358   1.760   2.377   2.217 -0.5458 -0.8093 -1.5086
16289TIP3    H270359   1.892   2.331   2.278 -0.4288  1.9401  0.4887
16290TIP3   OH270360   2.697   4.030   2.851 -0.8026 -0.4647  0.3642
16290TIP3    H170361   2.665   4.034   2.761 -3.3745 -0.7657  1.1977
16290TIP3    H270362   2.623   3.998   2.902  1.0374 -1.7850  2.4078
16291TIP3   OH270363   2.625   6.008   5.849 -0.5493 -0.3148  0.0366
16291TIP3    H170364   2.581   6.044   5.772  0.1675 -1.3393 -0.8736
16291TIP3    H270365   2.651   5.920   5.823  3.3171  0.6799  0.0255
16292TIP3   OH270366   0.906   6.578  11.886 -0.3933  0.3317  0.2631
16292TIP3    H170367   0.915   6.540  11.973 -1.1916  1.8875  1.0813
16292TIP3    H270368   0.995   6.583  11.852 -0.2263 -1.7027  0.3307
16293TIP3   OH270369   1.476   4.410   0.773 -0.0633 -0.2832  0.0387
16293TIP3    H170370   1.568   4.424   0.748 -0.3905  1.3922 -0.3777
16293TIP3    H270371   1.476   4.422   0.868 -0.1694  2.0709 -0.1966
16294TIP3   OH270372   5.930   1.703  13.051  0.0388  0.6633  0.3550
16294TIP3    H170373   5.985   1.669  13.122 -1.7769 -0.1799  1.4341
16294TIP3    H270374   5.858   1.746  13.096 -0.2037  1.7474 -1.0251
16295TIP3   OH270375   1.985   1.140  13.743 -0.4283  0.0437 -0.3605
16295TIP3    H170376   1.958   1.166  13.831 -1.0890 -0.7755 -0.3131
16295TIP3    H270377   2.035   1.060  13.756 -0.3297  0.0484 -0.7132
16296TIP3   OH270378   1.933   3.764   1.775 -0.2922 -0.0649  0.2328
16296TIP3    H170379   1.902   3.744   1.863 -1.7664 -2.0714 -0.6471
16296TIP3    H270380   1.993   3.838   1.786 -0.8133  0.0582  2.8230
16297TIP3   OH270381   0.186   2.095  11.662 -0.1863 -0.2131  0.5818
16297TIP3    H170382   0.255   2.057  11.716  1.1606  1.1141 -0.1373
16297TIP3    H270383   0.144   2.020  11.621 -0.1606 -1.1427  2.1510
16298TIP3   OH270384   6.619   1.603   5.496 -0.0290  0.6886 -0.3565
16298TIP3    H170385   6.705   1.646   5.494 -0.4520  1.5220 -1.3689
16298TIP3    H270386   6.574   1.643   5.571  1.0861 -1.0844  1.3714
16299TIP3   OH270387   3.222   5.536   2.534 -0.1421  0.0214 -0.0904
16299TIP3    H170388   3.138   5.523   2.490 -0.0556  1.2711 -0.6841
16299TIP3    H270389   3.277   5.464   2.502 -1.2285 -1.3538  1.0196
16300TIP3   OH270390   0.821   5.263   4.733  0.8412 -0.7457  0.1630
16300TIP3    H170391   0.778   5.179   4.748  1.4863 -1.0845  0.1337
16300TIP3    H270392   0.751   5.328   4.743  0.6698 -1.1551  1.8556
16301TIP3   OH270393   6.724   4.694   5.968  0.0887 -0.1355  0.4072
16301TIP3    H170394   6.692   4.603   5.975 -1.5996  0.2421 -1.4464
16301TIP3    H270395   6.673   4.742   6.032  0.8323 -0.4256  1.2402
16302TIP3   OH270396   1.758   1.100   0.944  0.2238  0.3210 -0.0957
16302TIP3    H170397   1.846   1.114   0.979  0.1767  0.2507  0.0527
16302TIP3    H270398   1.767   1.027   0.883  0.1703 -0.0162  0.2994
16303TIP3   OH270399   6.085   2.616  15.225  0.6146 -0.1915  0.1312
16303TIP3    H170400   6.117   2.527  15.238 -2.4385 -1.2940  0.9738
16303TIP3    H270401   6.079   2.625  15.130  0.2039 -1.1921  0.0511
16304TIP3   OH270402   1.597   5.430  16.612 -0.0761  0.1042  0.1724
16304TIP3    H170403   1.658   5.356  16.612 -2.3161 -1.8579 -0.7165
16304TIP3    H270404   1.633   5.491  16.548  0.0791 -1.8527 -1.7298
16305TIP3   OH270405   5.185   3.305  11.849 -0.2227  0.4632 -0.1355
16305TIP3    H170406   5.114   3.294  11.912  0.2649  0.5456  0.4420
16305TIP3    H270407   5.154   3.263  11.769 -1.0325  0.7571  0.0197
16306TIP3   OH270408   2.909   2.115   2.296  0.2678  0.0631  0.0833
16306TIP3    H170409   2.842   2.096   2.230  0.7472  1.3786 -0.8100
16306TIP3    H270410   2.980   2.054   2.277 -0.1634 -0.4998  0.2586
16307TIP3   OH270411   6.255   5.048  16.020  0.4064 -0.4585 -0.1425
16307TIP3    H170412   6.260   5.142  16.036  1.0732 -0.5358  0.1844
16307TIP3    H270413   6.334   5.028  15.970  1.1716 -1.0995  1.2530
16308TIP3   OH270414   0.499   0.088  14.960 -0.6910  0.5218 -0.6487
16308TIP3    H170415   0.494   0.095  14.865  1.9540  0.0697 -0.9185
16308TIP3    H270416   0.592   0.100  14.979 -0.9149 -0.9964  1.7401
16309TIP3   OH270417   5.892   4.544   2.900  0.1231  0.3221  0.6518
16309TIP3    H170418   5.942   4.616   2.937  1.2285 -1.5933  3.1643
16309TIP3    H270419   5.860   4.495   2.976  0.1354 -2.2938 -0.9149
16310TIP3   OH270420   3.274   5.421   4.286 -0.1622  0.2353  0.7035
16310TIP3    H170421   3.185   5.454   4.296  0.0874  0.5938  1.9630
16310TIP3    H270422   3.281   5.351   4.352  0.6545  0.5790  0.9925
16311TIP3   OH270423   4.316   2.814   1.255  0.3265 -0.1022 -0.5279
16311TIP3    H170424   4.400   2.799   1.210 -0.5468  0.1896 -2.3497
16311TIP3    H270425   4.250   2.793   1.189 -1.0821 -1.5002  1.2564
16312TIP3   OH270426   6.422   5.706   3.956 -0.2192  0.0926  0.6352
16312TIP3    H170427   6.388   5.750   4.034  1.2779  0.2598  1.2171
16312TIP3    H270428   6.387   5.758   3.883 -0.3709  0.8671  1.2397
16313TIP3   OH270429   6.640   0.148  16.536 -0.1779 -0.0882 -0.1219
16313TIP3    H170430   6.619   0.055  16.531  1.5909 -0.5830  0.6284
16313TIP3    H270431   6.730   0.154  16.502  0.4517  1.0330  1.5735
16314TIP3   OH270432   6.029   3.419   2.968  0.1414 -0.3960 -0.0120
16314TIP3    H170433   5.973   3.390   2.895 -1.6017  0.6400  0.8563
16314TIP3    H270434   6.113   3.438   2.926 -0.9554  0.6922 -1.8959
16315TIP3   OH270435   4.621   2.845   1.558 -0.5402  0.5211 -0.0630
16315TIP3    H170436   4.606   2.863   1.651  2.5650  3.0620  0.1343
16315TIP3    H270437   4.594   2.926   1.514 -2.6476 -0.9085 -1.5720
16316TIP3   OH270438   5.017   6.400  16.687 -0.1372  0.9778 -0.0853
16316TIP3    H170439   4.997   6.492  16.701 -2.8506  0.4005  0.4113
16316TIP3    H270440   5.024   6.363  16.775 -0.0152  0.5179 -0.2843
16317TIP3   OH270441   4.327   5.553  12.101 -0.1054  0.2935  0.0103
16317TIP3    H170442   4.254   5.608  12.074  1.0186  1.1128 -1.5645
16317TIP3    H270443   4.304   5.522  12.188 -1.5328  1.9217  0.2560
16318TIP3   OH270444   5.032   5.358   0.538 -0.1532 -0.1789 -0.0530
16318TIP3    H170445   5.098   5.290   0.553  0.1577  0.3765  1.2359
16318TIP3    H270446   5.011   5.390   0.626 -0.4482  1.2473 -0.6205
16319TIP3   OH270447   6.492   2.907  15.798 -0.3617  0.3487 -0.2017
16319TIP3    H170448   6.556   2.862  15.743  1.8622  1.9817  0.8755
16319TIP3    H270449   6.444   2.964  15.738  0.0736  0.0357 -0.8550
16320TIP3   OH270450   3.032   0.669  14.971  0.3954 -0.1367  0.5076
16320TIP3    H170451   2.992   0.625  14.896  0.9754  1.5515 -0.8669
16320TIP3    H270452   2.966   0.732  14.999  0.9645  0.6583  0.0784
16321TIP3   OH270453   0.424   2.308   2.115  0.2839 -0.0838 -0.5020
16321TIP3    H170454   0.365   2.244   2.075  0.1221 -1.0530  1.1986
16321TIP3    H270455   0.494   2.256   2.154  1.2946  0.9392 -0.8662
16322TIP3   OH270456   2.194   5.414  13.214 -0.1051 -0.2017  0.0649
16322TIP3    H170457   2.106   5.397  13.182 -0.3543  0.5378  0.3293
16322TIP3    H270458   2.181   5.442  13.305  0.5892 -2.3563  0.8866
16323TIP3   OH270459   5.979   2.132  15.209  0.1997  0.0223 -0.3945
16323TIP3    H170460   6.009   2.087  15.288  1.7659 -1.2934 -1.6573
16323TIP3    H270461   5.884   2.124  15.211  0.1999  0.1045  1.3757
16324TIP3   OH270462   1.350   1.756   6.588 -0.2844  0.5422  0.1899
16324TIP3    H170463   1.287   1.748   6.517 -0.9712  1.0459  0.7335
16324TIP3    H270464   1.343   1.674   6.637  1.5751 -0.6690 -1.3924
16325TIP3   OH270465   6.717   0.716  15.203 -0.2524  0.0377 -0.0525
16325TIP3    H170466   6.766   0.787  15.243 -0.2584  0.3714 -0.6196
16325TIP3    H270467   6.761   0.701  15.119 -1.4156  0.7023 -0.8125
16326TIP3   OH270468   4.008   3.184  12.469 -0.2296 -0.5828 -0.4483
16326TIP3    H170469   3.938   3.124  12.445 -0.7068  0.1745 -0.9808
16326TIP3    H270470   4.086   3.147  12.427 -0.5758 -0.6673 -1.0264
16327TIP3   OH270471   5.500   5.580  14.388  0.0775 -0.5558 -0.8552
16327TIP3    H170472   5.421   5.609  14.343  0.3482  0.1299 -0.9018
16327TIP3    H270473   5.572   5.607  14.330  0.3102 -2.0886 -1.3190
16328TIP3   OH270474   6.663   6.306  16.740  0.0241 -0.0768 -0.3871
16328TIP3    H170475   6.629   6.347  16.661 -0.9415  0.9959  0.5379
16328TIP3    H270476   6.754   6.285  16.719 -0.3356 -0.2265 -1.9105
16329TIP3   OH270477   2.237   3.994  11.374  0.0102 -0.1100 -0.3260
16329TIP3    H170478   2.308   3.928  11.374 -1.4436 -1.7889 -1.9381
16329TIP3    H270479   2.221   4.011  11.282 -0.2422  1.9617  0.0549
16330TIP3   OH270480   3.947   4.695  12.115 -0.0060 -0.4279 -0.4397
16330TIP3    H170481   3.957   4.787  12.089  0.0571 -0.4246 -0.4038
16330TIP3    H270482   3.983   4.691  12.203 -1.2428 -0.2079  0.0934
16331TIP3   OH270483   1.449   1.282  12.096 -0.4928  0.1361  0.2187
16331TIP3    H170484   1.380   1.218  12.085 -0.4796  0.0992  0.3543
16331TIP3    H270485   1.530   1.231  12.101 -0.5905  0.0723  1.5447
16332TIP3   OH270486   6.098   1.822   5.880 -0.6323  0.4339 -0.8699
16332TIP3    H170487   6.073   1.796   5.969 -0.8180 -2.3593 -1.6618
16332TIP3    H270488   6.179   1.872   5.892  0.1081 -1.0373  0.7991
16333TIP3   OH270489   4.816   5.943   6.187  0.2861 -0.0473  0.8472
16333TIP3    H170490   4.798   5.852   6.164  1.6612 -0.0470 -0.3907
16333TIP3    H270491   4.876   5.973   6.119 -2.6723  2.8263 -0.7750
16334TIP3   OH270492   3.035   0.200   3.906 -0.5985  0.5033 -0.0375
16334TIP3    H170493   2.967   0.134   3.894  0.1756 -0.0010 -2.3592
16334TIP3    H270494   3.090   0.165   3.976  0.7977 -2.3740 -2.3467
16335TIP3   OH270495   2.930   0.302  17.204  0.4702 -0.0890 -0.2350
16335TIP3    H170496   3.004   0.345  17.248 -0.6703 -0.4081  2.1813
16335TIP3    H270497   2.901   0.366  17.139  1.6330  0.8806  0.1488
16336TIP3   OH270498   2.224   5.488  13.721 -0.1764  0.2371 -0.3494
16336TIP3    H170499   2.244   5.417  13.660 -0.1218 -1.5780  1.6348
16336TIP3    H270500   2.183   5.556  13.667  0.1175 -1.1381 -2.4098
16337TIP3   OH270501   1.843   3.300   3.584 -0.1999 -0.0925  0.0011
16337TIP3    H170502   1.841   3.205   3.574 -0.0992 -0.0674 -0.2580
16337TIP3    H270503   1.754   3.323   3.611 -0.4542 -0.1715 -0.7428
16338TIP3   OH270504   4.320   5.872  12.159  0.3793 -0.5536 -0.5319
16338TIP3    H170505   4.298   5.816  12.085 -1.0622  0.7075 -1.1054
16338TIP3    H270506   4.237   5.884  12.205  1.2329 -1.3035  1.3262
16339TIP3   OH270507   0.246   4.735  11.388 -0.0306  0.8931 -0.1711
16339TIP3    H170508   0.232   4.810  11.330 -1.5728  1.3784  0.7619
16339TIP3    H270509   0.341   4.722  11.389  0.0744  1.2258 -2.3214
16340TIP3   OH270510   1.803   3.263   3.934 -0.2158  0.4960  0.8417
16340TIP3    H170511   1.886   3.234   3.896 -0.8235 -1.5328  0.9657
16340TIP3    H270512   1.742   3.262   3.860 -0.5556  0.1504  1.1257
16341TIP3   OH270513   5.317   0.855  17.385  0.0757  0.2332  0.5412
16341TIP3    H170514   5.257   0.927  17.368  0.0380 -0.0760 -0.7713
16341TIP3    H270515   5.272   0.778  17.349  0.7845 -0.1791  0.5248
16342TIP3   OH270516   5.245   3.656  14.357 -0.3345  0.1653 -0.3313
16342TIP3    H170517   5.257   3.588  14.291 -1.1978 -0.4169  0.0871
16342TIP3    H270518   5.294   3.624  14.434 -0.8778 -0.0767 -0.0802
16343TIP3   OH270519   2.830   6.218   6.637  0.0194  0.1716 -0.0715
16343TIP3    H170520   2.874   6.172   6.709  0.4930  1.8718  0.7731
16343TIP3    H270521   2.880   6.299   6.627 -0.7154  0.4574 -1.5969
16344TIP3   OH270522   3.929   5.555   3.468 -0.3464 -0.0935 -0.5407
16344TIP3    H170523   3.848   5.590   3.431 -0.4904  0.4412  0.2627
16344TIP3    H270524   3.911   5.548   3.562  0.5040 -0.0638 -0.3697
16345TIP3   OH270525   4.203   4.251   4.817  0.2283  0.6900  0.7409
16345TIP3    H170526   4.166   4.188   4.878 -1.0624  0.0088 -0.6964
16345TIP3    H270527   4.274   4.205   4.774  0.7586  0.9797  1.2902
16346TIP3   OH270528   1.426   4.129   4.091 -0.8257 -1.0201  0.1898
16346TIP3    H170529   1.514   4.164   4.108 -0.6349 -0.7060 -1.3345
16346TIP3    H270530   1.440   4.035   4.083 -0.8073 -1.0934  0.9370
16347TIP3   OH270531   3.824   3.018  10.875  0.1925 -0.5856 -0.2310
16347TIP3    H170532   3.903   3.071  10.867 -0.1428 -0.1077 -0.3945
16347TIP3    H270533   3.803   2.992  10.785  0.2726 -0.8687 -0.1677
16348TIP3   OH270534   1.948   1.207  15.929  0.0335  0.1296  0.1548
16348TIP3    H170535   2.030   1.246  15.959 -0.0359 -0.0509  0.5922
16348TIP3    H270536   1.934   1.242  15.842  0.2502  0.6529  0.3317
16349TIP3   OH270537   1.412   4.875   6.180 -0.0251 -0.2096  0.6702
16349TIP3    H170538   1.337   4.837   6.226  1.6345 -0.6091  3.2446
16349TIP3    H270539   1.467   4.799   6.157  0.3731  0.1902  0.2773
16350TIP3   OH270540   3.613   4.027   2.598 -0.8169  0.4144 -0.1597
16350TIP3    H170541   3.609   4.029   2.694 -1.6289  0.0014 -0.1770
16350TIP3    H270542   3.661   3.948   2.578 -0.0567  0.8491 -0.0888
16351TIP3   OH270543   2.127   6.692  13.320  0.4173 -0.5089 -0.1592
16351TIP3    H170544   2.100   6.665  13.232  0.7001  0.0675 -0.4330
16351TIP3    H270545   2.222   6.703  13.314  0.2452  1.1729 -0.2624
16352TIP3   OH270546   1.647   2.905   1.573 -0.4788  0.6635 -0.1544
16352TIP3    H170547   1.696   2.922   1.654  0.8361 -0.7782 -0.6037
16352TIP3    H270548   1.660   2.812   1.556  0.5693  1.1957 -2.8383
16353TIP3   OH270549   4.603   5.996   4.154  0.3421  0.1663 -0.2194
16353TIP3    H170550   4.644   5.969   4.072 -0.6192 -0.0128 -0.6578
16353TIP3    H270551   4.604   5.917   4.209 -3.6391 -1.3628 -1.9656
16354TIP3   OH270552   6.065   1.193   0.417 -0.3833  0.3913 -0.5340
16354TIP3    H170553   6.121   1.270   0.405  1.2382 -0.4816  1.0474
16354TIP3    H270554   6.004   1.219   0.486 -0.3051  0.5016 -0.5054
16355TIP3   OH270555   4.024   2.269  12.076 -0.1024  0.3018  0.2956
16355TIP3    H170556   4.102   2.249  12.025  0.4270 -0.0147  1.2019
16355TIP3    H270557   4.027   2.208  12.150 -1.2000  0.2953  0.3514
16356TIP3   OH270558   2.899   4.281   0.007  0.3747  0.3427  0.3614
16356TIP3    H170559   2.808   4.251   0.005 -0.3017  2.2231 -1.6135
16356TIP3    H270560   2.902   4.343   0.080  0.2413 -0.1595  0.8010
16357TIP3   OH270561   6.751   1.622   2.491  0.5398 -0.1429 -0.5363
16357TIP3    H170562   6.829   1.660   2.531  1.2089 -0.9400 -1.0653
16357TIP3    H270563   6.778   1.596   2.403  0.1259 -1.8137 -0.2134
16358TIP3   OH270564   1.630   0.895  12.054  0.0531 -0.1142  0.2709
16358TIP3    H170565   1.659   0.809  12.025  0.7090 -0.4201  1.7394
16358TIP3    H270566   1.644   0.894  12.149 -0.9173  1.2331  0.4505
16359TIP3   OH270567   5.554   1.034  16.323  0.4593  0.3917  0.6030
16359TIP3    H170568   5.589   1.018  16.236  0.7284 -0.2618  0.8320
16359TIP3    H270569   5.525   1.126  16.320  1.8763  0.8568  0.3139
16360TIP3   OH270570   6.756   0.364  13.930 -0.4475  0.2177 -0.2397
16360TIP3    H170571   6.750   0.303  14.003 -1.5102  0.6688  0.0616
16360TIP3    H270572   6.849   0.389  13.927  0.2903 -2.2654 -1.1054
16361TIP3   OH270573   6.343   1.821   1.605 -0.5497  0.2866  0.7648
16361TIP3    H170574   6.279   1.756   1.631  0.7118 -0.5973  1.7799
16361TIP3    H270575   6.403   1.828   1.679  0.5140  1.1046 -0.1199
16362TIP3   OH270576   2.912   6.491  11.342  0.3176 -0.1316  0.3632
16362TIP3    H170577   2.868   6.504  11.259  1.9910  0.9607 -0.4140
16362TIP3    H270578   2.911   6.396  11.355 -0.1826 -0.2997 -0.7748
16363TIP3   OH270579   2.073   6.090  15.062 -0.2810 -0.2483  0.8051
16363TIP3    H170580   2.069   6.175  15.106  2.3646 -0.3365  1.3540
16363TIP3    H270581   2.158   6.054  15.086  0.9249 -0.7968 -3.4792
16364TIP3   OH270582   4.001   6.142   6.308  0.1615 -0.4381 -0.5388
16364TIP3    H170583   4.039   6.070   6.258 -0.3091 -1.0507 -0.0429
16364TIP3    H270584   4.074   6.177   6.359  0.7530  0.5098 -1.9736
16365TIP3   OH270585   1.921   4.142   1.837  0.9114 -0.2403 -0.0185
16365TIP3    H170586   1.863   4.139   1.913  0.6800 -0.6399 -0.2023
16365TIP3    H270587   1.879   4.202   1.776  1.4481  0.6246  0.4371
16366TIP3   OH270588   2.637   5.468  12.319 -1.3367  0.5565  0.5390
16366TIP3    H170589   2.598   5.435  12.400 -1.8725 -0.4240 -0.1034
16366TIP3    H270590   2.597   5.416  12.250  0.3274  0.2468 -0.2360
16367TIP3   OH270591   0.667   0.777   0.639 -0.4212 -0.2768 -0.2565
16367TIP3    H170592   0.644   0.793   0.731 -0.1642  0.3060 -0.2944
16367TIP3    H270593   0.583   0.777   0.593 -0.4165  1.2844 -0.3060
16368TIP3   OH270594   4.834   1.812  16.014 -0.1416  0.1056 -0.7219
16368TIP3    H170595   4.784   1.894  16.010 -1.4704 -0.5302  1.3763
16368TIP3    H270596   4.775   1.746  15.979  0.0729 -0.3081 -0.3148
16369TIP3   OH270597   1.059   6.397   4.590 -0.2445 -0.1178 -0.5585
16369TIP3    H170598   1.050   6.456   4.665 -0.2645  1.5885 -1.8367
16369TIP3    H270599   0.981   6.342   4.593 -0.8042  0.6762  0.0692
16370TIP3   OH270600   4.748   3.922   0.837 -0.0274 -0.4106  0.1277
16370TIP3    H170601   4.678   3.889   0.894  0.1646  0.8779  1.1583
16370TIP3    H270602   4.764   4.011   0.868  2.2570 -0.7540  0.1027
16371TIP3   OH270603   6.574   3.376  14.830  0.3578 -0.0100 -0.2882
16371TIP3    H170604   6.490   3.357  14.787  0.2660  0.2385 -0.2207
16371TIP3    H270605   6.550   3.410  14.916  0.4636  1.7523 -0.9200
16372TIP3   OH270606   6.265   0.951  11.394  0.0106  0.4638 -0.0504
16372TIP3    H170607   6.332   1.005  11.437  0.3199  0.1072 -0.0800
16372TIP3    H270608   6.278   0.863  11.429 -0.7471  0.4807  0.2855
16373TIP3   OH270609   5.934   4.402   1.025 -0.0156 -0.3144 -0.1566
16373TIP3    H170610   5.917   4.436   1.113  2.0714  1.3521 -0.3017
16373TIP3    H270611   6.025   4.372   1.029  0.4816  0.7793 -1.9826
16374TIP3   OH270612   3.550   3.288   1.857  0.5346  0.3638  0.1774
16374TIP3    H170613   3.530   3.381   1.862  0.9474  0.4118  1.0103
16374TIP3    H270614   3.645   3.284   1.843  0.4045  0.0777 -0.7056
16375TIP3   OH270615   1.737   6.196  14.701 -0.0186  0.0535 -0.9132
16375TIP3    H170616   1.806   6.189  14.767  1.8932 -0.1578 -2.8233
16375TIP3    H270617   1.663   6.150  14.738  0.9647 -0.0147  1.0873
16376TIP3   OH270618   3.033   1.410  16.277 -0.3794 -0.2722 -0.5805
16376TIP3    H170619   3.065   1.388  16.189 -1.0410 -1.1784 -0.6093
16376TIP3    H270620   3.026   1.326  16.322  0.6941  0.2492  0.6254
16377TIP3   OH270621   4.782   4.410  13.419  0.3449  0.3333  0.3416
16377TIP3    H170622   4.709   4.394  13.479  0.4079  0.0875  0.3529
16377TIP3    H270623   4.806   4.502  13.435  0.7535  0.0961  1.1255
16378TIP3   OH270624   0.319   1.026   2.462 -0.0800 -0.8194  0.1820
16378TIP3    H170625   0.323   0.932   2.446  0.2468 -0.5324 -1.6799
16378TIP3    H270626   0.408   1.057   2.441 -0.0502 -0.1431  1.2214
16379TIP3   OH270627   4.481   2.948  12.158 -0.6651  0.1914  0.2103
16379TIP3    H170628   4.514   3.032  12.188 -1.8334  0.5233  0.6219
16379TIP3    H270629   4.540   2.883  12.197  0.3824  0.8109 -0.3046
16380TIP3   OH270630   6.761   5.435   6.323 -0.3623 -0.6922 -0.0155
16380TIP3    H170631   6.732   5.452   6.234  0.1310  0.3705  0.0171
16380TIP3    H270632   6.686   5.461   6.378  0.5330  1.9958  0.0646
16381TIP3   OH270633   3.019   6.423  13.489  0.1749  0.2395  0.5941
16381TIP3    H170634   3.112   6.442  13.479 -0.1011  1.3568 -0.0224
16381TIP3    H270635   3.014   6.328  13.495  1.2740  0.0963 -0.4503
16382TIP3   OH270636   2.091   6.406  12.675 -0.2657 -0.1051  0.2009
16382TIP3    H170637   2.039   6.431  12.599 -0.1108  1.2101  0.4988
16382TIP3    H270638   2.177   6.384  12.638 -0.6542 -1.0600 -0.1594
16383TIP3   OH270639   0.780   2.119   4.840 -0.0546 -0.6172 -0.5588
16383TIP3    H170640   0.715   2.139   4.772 -1.1183 -2.5884 -0.2099
16383TIP3    H270641   0.822   2.038   4.810  1.6653  0.1536 -0.3423
16384TIP3   OH270642   4.053   0.348  16.735  0.0265 -0.1842  0.0191
16384TIP3    H170643   3.959   0.346  16.716 -0.1289  1.9825  0.2391
16384TIP3    H270644   4.093   0.374  16.652  0.4252 -0.8535 -0.0044
16385TIP3   OH270645   2.775   0.374   6.233 -0.3160 -0.4375 -0.2694
16385TIP3    H170646   2.818   0.440   6.179 -0.6864 -0.5592 -0.7202
16385TIP3    H270647   2.776   0.410   6.322  0.7841 -0.4720 -0.2548
16386TIP3   OH270648   2.182   0.166  14.558 -0.2735 -0.1056 -0.6125
16386TIP3    H170649   2.212   0.176  14.649  1.0438 -1.5588 -0.8520
16386TIP3    H270650   2.127   0.243  14.543  1.0469  1.1766  0.7903
16387TIP3   OH270651   1.831   5.211  11.978 -0.8627  0.7405 -0.3580
16387TIP3    H170652   1.807   5.279  12.041 -0.1017  0.6746  0.0216
16387TIP3    H270653   1.836   5.131  12.030 -0.4246  0.6503 -0.5295
16388TIP3   OH270654   2.110   3.366   3.647  0.8974 -0.0117 -0.5921
16388TIP3    H170655   2.016   3.370   3.630  0.8304  1.0170 -0.0841
16388TIP3    H270656   2.144   3.448   3.611  1.6545 -0.5265 -1.0648
16389TIP3   OH270657   6.655   1.035  15.932  0.0353 -0.7280  0.6205
16389TIP3    H170658   6.692   1.051  15.846 -0.4342  1.2833  0.7403
16389TIP3    H270659   6.568   0.999  15.915  0.3635 -1.3913  0.2937
16390TIP3   OH270660   0.883   4.371  17.335 -0.3039 -0.0905  0.6266
16390TIP3    H170661   0.795   4.407  17.346 -0.7421 -0.6582 -0.7726
16390TIP3    H270662   0.871   4.297  17.274  1.2079  0.1296  0.0271
16391TIP3   OH270663   6.492   6.710   1.894 -0.4582 -0.1616  0.1509
16391TIP3    H170664   6.562   6.733   1.833 -1.4410 -1.0896 -1.4020
16391TIP3    H270665   6.534   6.654   1.959  0.3390 -0.3481 -0.5083
16392TIP3   OH270666   1.712   0.768   0.480  0.4453  0.8950 -0.4146
16392TIP3    H170667   1.783   0.746   0.540  0.5979 -1.5117 -1.3628
16392TIP3    H270668   1.688   0.858   0.503  3.9379  1.9185 -0.2502
16393TIP3   OH270669   2.861   2.343  16.112  0.5990 -0.1010  0.2413
16393TIP3    H170670   2.873   2.248  16.106 -1.9534 -0.5004  0.2768
16393TIP3    H270671   2.799   2.354  16.184  1.1962  1.6529  0.5243
16394TIP3   OH270672   6.394   3.682  14.383 -0.1591 -0.3940  0.1861
16394TIP3    H170673   6.416   3.680  14.290 -0.3652 -0.4639  0.1392
16394TIP3    H270674   6.318   3.740  14.388  1.2257  1.4799  0.5935
16395TIP3   OH270675   6.327   2.813  12.972 -0.0591 -0.0603 -0.4218
16395TIP3    H170676   6.389   2.815  13.045  0.5415 -1.0408 -0.8770
16395TIP3    H270677   6.341   2.896  12.927 -0.8088  0.7990  0.8513
16396TIP3   OH270678   3.022   5.936  16.605 -0.6549 -0.1989 -0.0566
16396TIP3    H170679   3.007   5.957  16.512  2.6648  2.5237 -0.1677
16396TIP3    H270680   3.084   5.864  16.604 -0.6878 -0.2291  0.0551
16397TIP3   OH270681   2.618   4.774   3.160  1.1762 -0.5074  0.3712
16397TIP3    H170682   2.586   4.864   3.152 -0.2204 -1.0667 -0.7680
16397TIP3    H270683   2.592   4.748   3.249 -0.1841 -0.3965  0.0365
16398TIP3   OH270684   1.574   6.556  11.135  0.3246 -0.4884  0.0444
16398TIP3    H170685   1.615   6.546  11.220 -0.8912 -0.1103  0.7082
16398TIP3    H270686   1.481   6.537  11.151  0.2262 -1.3953 -1.3947
16399TIP3   OH270687   4.478   1.793   0.407 -0.0753 -0.6041 -0.0492
16399TIP3    H170688   4.438   1.721   0.358  1.7283 -1.8438  0.2022
16399TIP3    H270689   4.476   1.763   0.498 -2.1699  1.0981  0.5567
16400TIP3   OH270690   5.870   3.529   0.487 -0.2451 -0.2557  0.8844
16400TIP3    H170691   5.902   3.611   0.449  0.7209 -1.1599 -0.3624
16400TIP3    H270692   5.868   3.468   0.413 -2.7258 -0.8925  1.3840
16401TIP3   OH270693   2.986   2.777  15.857 -0.1634  0.4159 -0.7238
16401TIP3    H170694   2.912   2.822  15.817 -0.1645  1.6383  0.5867
16401TIP3    H270695   2.947   2.724  15.927  0.0205 -0.3271 -1.1774
16402TIP3   OH270696   4.540   4.680   3.908  0.4027 -0.0076  0.4797
16402TIP3    H170697   4.560   4.586   3.909  1.5835  0.2218 -0.0390
16402TIP3    H270698   4.520   4.700   3.817 -3.0085 -0.3292  1.0092
16403TIP3   OH270699   5.350   2.576   4.154 -0.6533  0.3715  0.1290
16403TIP3    H170700   5.382   2.527   4.230 -1.6544 -0.4199  0.0642
16403TIP3    H270701   5.325   2.508   4.091 -0.1533  1.0141 -0.7711
16404TIP3   OH270702   3.277   1.278  15.879 -0.0664  0.0447  0.4421
16404TIP3    H170703   3.351   1.222  15.902  0.0153  0.1261  0.3768
16404TIP3    H270704   3.285   1.291  15.785 -1.4060 -1.7385  0.0332
16405TIP3   OH270705   4.353   6.054  14.011 -0.4706 -0.4622 -0.1665
16405TIP3    H170706   4.284   6.060  13.945 -3.6225 -0.8619  2.7890
16405TIP3    H270707   4.368   6.145  14.038 -2.3394 -0.5401  1.3758
16406TIP3   OH270708   5.622   1.204  14.876 -0.0117  0.1229  0.1742
16406TIP3    H170709   5.628   1.293  14.841 -0.5922  0.4536  0.8876
16406TIP3    H270710   5.549   1.207  14.938 -1.0676 -1.2515 -0.9259
16407TIP3   OH270711   5.921   4.501  15.870 -0.4338 -0.4712 -0.0565
16407TIP3    H170712   5.840   4.480  15.916 -0.5755 -0.4423 -0.2908
16407TIP3    H270713   5.916   4.595  15.855 -1.2912 -0.7638 -1.8321
16408TIP3   OH270714   2.016   1.605  16.586  0.2143  0.1110 -0.3861
16408TIP3    H170715   2.093   1.656  16.611  0.9205 -1.7264  1.5651
16408TIP3    H270716   2.025   1.524  16.636 -1.8202 -1.1217 -1.8849
16409TIP3   OH270717   1.011   0.046  14.462 -0.8391 -0.3701  0.1766
16409TIP3    H170718   1.103   0.064  14.443 -1.3704  1.7128 -0.7049
16409TIP3    H270719   0.972   0.133  14.479 -2.7423 -1.1404  0.0580
16410TIP3   OH270720   3.919   4.291   1.170 -0.3260  0.2056 -0.6205
16410TIP3    H170721   3.959   4.373   1.144 -0.9374  0.6714 -0.1214
16410TIP3    H270722   3.930   4.233   1.094 -0.9675  1.1317 -1.4393
16411TIP3   OH270723   5.179   1.739   1.739  0.3100 -0.2777 -0.1594
16411TIP3    H170724   5.140   1.814   1.693 -0.6096  0.0147  1.0466
16411TIP3    H270725   5.194   1.771   1.828  0.2953 -1.3957  0.2604
16412TIP3   OH270726   1.891   0.800   4.771  0.1040 -0.1995  0.2054
16412TIP3    H170727   1.874   0.854   4.848  1.3370  0.6033 -0.0629
16412TIP3    H270728   1.985   0.781   4.776 -0.0968 -1.4225 -0.2943
16413TIP3   OH270729   6.016   5.277  10.650 -0.0619  0.2896  0.2097
16413TIP3    H170730   5.986   5.280  10.741 -0.2296 -0.1849  0.1766
16413TIP3    H270731   5.965   5.344  10.605 -1.8185 -1.1408 -0.0512
16414TIP3   OH270732   4.117   3.295  12.704  0.1759 -0.5272  0.6557
16414TIP3    H170733   4.083   3.278  12.617  0.2149 -0.1609  0.5659
16414TIP3    H270734   4.179   3.367  12.692  1.7314 -1.8195  0.6502
16415TIP3   OH270735   3.272   6.645  14.031  0.0965  0.7293  0.1859
16415TIP3    H170736   3.360   6.619  14.003  0.5576  1.8218  0.5401
16415TIP3    H270737   3.257   6.729  13.988 -1.1395  0.1589 -0.5434
16416TIP3   OH270738   5.228   2.718   4.433  0.5822 -0.0902  0.4721
16416TIP3    H170739   5.216   2.762   4.348  1.9465  0.9419  0.7709
16416TIP3    H270740   5.143   2.726   4.476  0.2463  0.5609 -0.2778
16417TIP3   OH270741   1.242   1.097   4.104  0.4003  0.0902  0.0963
16417TIP3    H170742   1.317   1.042   4.127  1.8511  1.3084 -1.3679
16417TIP3    H270743   1.282   1.174   4.063 -1.7002 -0.1101 -2.6512
16418TIP3   OH270744   5.980   0.832  13.104 -0.5161  0.0052  0.3061
16418TIP3    H170745   5.968   0.871  13.190 -1.4455  3.1136 -1.1232
16418TIP3    H270746   6.075   0.818  13.098 -0.2801  1.0079  1.3076
16419TIP3   OH270747   2.893   0.084  13.586  0.0623  0.1303 -0.3391
16419TIP3    H170748   2.909   0.174  13.614 -3.2745  0.6390  0.4230
16419TIP3    H270749   2.872   0.091  13.493  0.4584  0.0332 -0.4368
16420TIP3   OH270750   4.986   5.924   2.553 -0.2917 -0.4740 -0.4124
16420TIP3    H170751   5.053   5.856   2.554  0.7190  0.4763  0.6175
16420TIP3    H270752   5.034   6.004   2.532 -1.2532  0.0957 -0.5100
16421TIP3   OH270753   5.079   4.909   6.120 -0.1802 -0.4441 -0.2524
16421TIP3    H170754   5.101   4.835   6.063  0.2751 -0.6864  0.2252
16421TIP3    H270755   5.160   4.960   6.124 -0.7439  0.5844 -1.2976
16422TIP3   OH270756   6.394   0.425   1.182  0.1117 -0.3210  0.4535
16422TIP3    H170757   6.343   0.347   1.202  0.0551  0.1834  2.4516
16422TIP3    H270758   6.336   0.478   1.127 -0.1280 -1.3077 -0.2940
16423TIP3   OH270759   5.183   3.117   5.033 -0.1362 -0.5376  0.1030
16423TIP3    H170760   5.227   3.196   5.065 -0.9437 -0.2018  0.4101
16423TIP3    H270761   5.090   3.133   5.048 -0.2768 -1.8416  0.8494
16424TIP3   OH270762   4.834   0.196  11.384 -0.0590 -0.0889 -0.0241
16424TIP3    H170763   4.807   0.119  11.434 -1.0842  1.5484  2.1334
16424TIP3    H270764   4.925   0.210  11.410  0.0007 -0.3348 -0.1001
16425TIP3   OH270765   2.486   2.266   1.498  0.6431 -0.0945 -0.0419
16425TIP3    H170766   2.488   2.247   1.592  2.2133  2.4471  0.5665
16425TIP3    H270767   2.470   2.182   1.456  0.2073 -1.3633  2.4872
16426TIP3   OH270768   5.890   0.389   2.544 -0.1687 -0.4873  0.6335
16426TIP3    H170769   5.838   0.405   2.465  0.6053 -2.1361 -0.2490
16426TIP3    H270770   5.848   0.314   2.585  0.6702 -0.9703  0.6391
16427TIP3   OH270771   6.532   6.505   4.224 -0.5442  0.0547  0.2979
16427TIP3    H170772   6.616   6.461   4.237 -0.8926  0.0633  3.1565
16427TIP3    H270773   6.552   6.581   4.170  0.6776 -1.6301 -1.7730
16428TIP3   OH270774   3.795   4.887   2.936  0.3238 -0.2415  0.0728
16428TIP3    H170775   3.737   4.933   2.997 -0.7917 -0.3231 -0.9012
16428TIP3    H270776   3.846   4.958   2.896  0.4968 -0.1157  0.5007
16429TIP3   OH270777   4.801   1.726   0.564  0.7783 -0.2660 -0.0554
16429TIP3    H170778   4.877   1.684   0.605  0.6244 -0.8274 -0.3346
16429TIP3    H270779   4.773   1.792   0.628 -1.6052 -3.4236  2.5317
16430TIP3   OH270780   4.510   5.681   6.288  0.2513 -0.2314 -0.1179
16430TIP3    H170781   4.423   5.642   6.272 -0.0085 -0.0186  0.6982
16430TIP3    H270782   4.502   5.722   6.374  0.7195  1.0914 -0.6783
16431TIP3   OH270783   3.937   6.662  14.734  0.2805 -0.0658  0.3072
16431TIP3    H170784   3.880   6.595  14.697  0.9835 -0.8399  0.5871
16431TIP3    H270785   3.879   6.717  14.786 -0.7966  1.2618 -2.1289
16432TIP3   OH270786   3.890   4.271   4.990 -0.3949  0.2910  0.1290
16432TIP3    H170787   3.964   4.212   4.973  1.4432  2.1733  1.0543
16432TIP3    H270788   3.814   4.223   4.959  1.2985 -1.4171 -1.7342
16433TIP3   OH270789   6.283   5.707  16.340 -0.0046  0.3796  0.6834
16433TIP3    H170790   6.342   5.687  16.413 -0.1753  2.2125  1.3617
16433TIP3    H270791   6.263   5.800  16.350 -1.1749  0.3290 -0.8877
16434TIP3   OH270792   0.832   5.129  12.222  0.3105 -0.2274 -0.3278
16434TIP3    H170793   0.812   5.219  12.198  0.1428  0.0111  0.6390
16434TIP3    H270794   0.799   5.121  12.312  2.1494 -0.6350  0.3390
16435TIP3   OH270795   3.988   5.095   3.813  0.0677 -0.4509 -0.5526
16435TIP3    H170796   4.013   5.031   3.746 -0.2707  0.1245 -1.2408
16435TIP3    H270797   3.895   5.081   3.826 -0.3219  0.8398 -1.7561
16436TIP3   OH270798   5.824   3.469  13.600  0.1482  0.7155  0.7415
16436TIP3    H170799   5.875   3.530  13.652 -0.4146  0.4717  1.5974
16436TIP3    H270800   5.798   3.400  13.661 -4.4900  2.7230  1.4226
16437TIP3   OH270801   5.221   5.701  12.282  0.2413 -0.6994 -0.3098
16437TIP3    H170802   5.314   5.726  12.281 -0.1043  0.8706 -3.1123
16437TIP3    H270803   5.215   5.629  12.220 -0.5031 -0.3525 -0.6520
16438TIP3   OH270804   1.886   0.759   5.610  0.5262 -0.4417  1.1509
16438TIP3    H170805   1.928   0.699   5.672  2.7157 -0.6615 -0.4550
16438TIP3    H270806   1.885   0.711   5.527 -1.6246  0.1528  0.7881
16439TIP3   OH270807   2.259   1.934  16.727  0.2142  0.0388 -0.0473
16439TIP3    H170808   2.269   1.880  16.649 -0.4652  2.1766 -1.7327
16439TIP3    H270809   2.164   1.939  16.740  0.2736  0.6637  0.1730
16440TIP3   OH270810   3.859   2.192  11.864 -0.8244 -0.5859  0.0845
16440TIP3    H170811   3.905   2.177  11.947 -0.0195 -4.3390 -0.8726
16440TIP3    H270812   3.904   2.266  11.825 -0.4627  0.5381  2.4313
16441TIP3   OH270813   5.681   1.836   3.114 -0.3689  0.0662 -0.4580
16441TIP3    H170814   5.623   1.782   3.166 -0.3002  1.8245  1.5909
16441TIP3    H270815   5.764   1.835   3.161  1.0754 -1.6008 -2.8062
16442TIP3   OH270816   4.042   2.816   3.141 -0.3474 -0.4557 -0.2767
16442TIP3    H170817   4.114   2.754   3.156 -1.1525 -0.9867  1.9209
16442TIP3    H270818   3.967   2.775   3.184 -1.2583  1.3904 -0.0239
16443TIP3   OH270819   1.907   2.031  12.111 -0.2934  0.0274 -0.0962
16443TIP3    H170820   1.952   2.115  12.112  0.0137 -0.0873 -1.5314
16443TIP3    H270821   1.822   2.050  12.070 -0.2076 -0.3447 -0.4625
16444TIP3   OH270822   6.396   0.342   2.380 -0.1630 -0.7708 -0.3991
16444TIP3    H170823   6.334   0.413   2.396  1.2930  0.3174  0.6150
16444TIP3    H270824   6.355   0.265   2.421 -0.5180  0.0807  0.9132
16445TIP3   OH270825   3.500   0.927  16.695  0.4693 -0.4660  0.4512
16445TIP3    H170826   3.531   1.016  16.716 -0.8802  0.3573 -0.8515
16445TIP3    H270827   3.470   0.892  16.779  0.0588  0.7144  0.8214
16446TIP3   OH270828   4.655   4.144   2.753 -0.3284 -0.3621 -0.1783
16446TIP3    H170829   4.577   4.117   2.706  0.2110 -2.2600 -0.0665
16446TIP3    H270830   4.703   4.198   2.690 -0.9762 -0.4923 -0.8023
16447TIP3   OH270831   5.991   3.911   1.509  0.0803 -0.8396 -0.2818
16447TIP3    H170832   6.076   3.865   1.505  1.5903  1.6941  0.3973
16447TIP3    H270833   5.938   3.867   1.443  1.6385 -3.0184 -0.2289
16448TIP3   OH270834   0.129   0.171   2.692  0.7279 -0.2919  0.4528
16448TIP3    H170835   0.136   0.229   2.617 -1.8373 -1.5040 -0.8646
16448TIP3    H270836   0.090   0.226   2.761  0.6359  0.1725  0.0388
16449TIP3   OH270837   0.148   1.224   4.516  0.7036  0.2987 -0.0428
16449TIP3    H170838   0.173   1.241   4.425  0.8199  1.0348  0.1246
16449TIP3    H270839   0.086   1.151   4.510  0.8408  0.2265 -0.6944
16450TIP3   OH270840   5.681   3.585  13.312 -0.0632 -0.0896 -0.4575
16450TIP3    H170841   5.612   3.519  13.304 -1.7503  0.9702  3.1792
16450TIP3    H270842   5.756   3.538  13.348 -0.8675 -0.3147  0.9951
16451TIP3   OH270843   5.469   6.359   3.152 -0.0619 -0.6360  0.0739
16451TIP3    H170844   5.471   6.453   3.169 -0.5532 -0.8568  1.5254
16451TIP3    H270845   5.388   6.329   3.193 -0.6125 -1.5041 -1.5364
16452TIP3   OH270846   3.313   1.467  16.437  0.0233  0.7406  0.0080
16452TIP3    H170847   3.330   1.443  16.346  2.0726  0.9210  0.3006
16452TIP3    H270848   3.329   1.561  16.440 -0.8008  0.8733  0.4019
16453TIP3   OH270849   4.174   3.900   1.665 -0.1675  0.6534  0.2707
16453TIP3    H170850   4.096   3.910   1.609  0.7712 -0.1139 -1.2486
16453TIP3    H270851   4.247   3.895   1.603  0.8875 -0.6642  1.5565
16454TIP3   OH270852   5.218   6.166   0.314 -0.3975 -0.0368  0.4315
16454TIP3    H170853   5.217   6.114   0.395 -2.5596  1.2745  1.3236
16454TIP3    H270854   5.132   6.151   0.275 -0.0186  0.7184 -0.7458
16455TIP3   OH270855   6.359   1.294   0.203  0.2163 -0.0216 -0.3128
16455TIP3    H170856   6.293   1.298   0.133  0.2540  0.4489 -0.3242
16455TIP3    H270857   6.312   1.320   0.282  0.6620  1.5777 -0.5290
16456TIP3   OH270858   4.900   6.688  12.114  0.3684 -0.1015  0.6064
16456TIP3    H170859   4.949   6.757  12.070  0.5185 -2.2217 -2.9493
16456TIP3    H270860   4.808   6.712  12.103  0.4204 -0.4089 -0.6222
16457TIP3   OH270861   1.558   3.231  11.258  0.5694  0.0547  0.3366
16457TIP3    H170862   1.505   3.273  11.326 -0.2050 -2.4991  1.4201
16457TIP3    H270863   1.496   3.180  11.207  1.4693  0.2124 -0.9722
16458TIP3   OH270864   0.618   6.449  13.230  0.0101  0.6094 -0.0911
16458TIP3    H170865   0.602   6.443  13.324 -0.5158 -1.1176 -0.2566
16458TIP3    H270866   0.707   6.415  13.219 -0.1277  0.2986 -0.2632
16459TIP3   OH270867   5.497   4.360   3.185 -0.4197 -0.2959 -0.0260
16459TIP3    H170868   5.470   4.443   3.145  0.8201  0.1665  0.0350
16459TIP3    H270869   5.448   4.294   3.137  0.0677  0.3422 -1.4736
16460TIP3   OH270870   0.144   1.198  16.152 -0.7330  0.5224  0.0121
16460TIP3    H170871   0.128   1.109  16.123  2.3353  0.2801 -1.3553
16460TIP3    H270872   0.172   1.190  16.243  0.1579 -0.0338 -0.2973
16461TIP3   OH270873   3.737   3.955   3.250 -0.0625  0.1297  0.0615
16461TIP3    H170874   3.812   3.898   3.264  0.1552  0.0277 -1.3619
16461TIP3    H270875   3.775   4.038   3.222 -0.4212  0.6924  1.1481
16462TIP3   OH270876   6.180   4.409   0.382  0.1552 -0.3437  0.0390
16462TIP3    H170877   6.115   4.440   0.318  0.7126 -1.2419 -0.9878
16462TIP3    H270878   6.148   4.442   0.466 -1.4680 -0.4944 -0.4814
16463TIP3   OH270879   5.680   5.903  12.675 -0.1051 -0.1402 -0.4638
16463TIP3    H170880   5.689   5.821  12.723 -0.3760  0.6772  1.0467
16463TIP3    H270881   5.744   5.961  12.714  2.2314 -0.4279 -3.4828
16464TIP3   OH270882   6.119   6.691  16.019  0.2836  0.2282 -0.6243
16464TIP3    H170883   6.200   6.715  16.064  0.9753  0.4642 -1.9489
16464TIP3    H270884   6.069   6.772  16.012 -0.9567 -0.2186  1.7917
16465TIP3   OH270885   0.293   4.304  17.275 -0.2564 -0.2982  0.4919
16465TIP3    H170886   0.215   4.355  17.295 -0.1164 -1.1886  3.9871
16465TIP3    H270887   0.344   4.306  17.356  2.3454 -1.4952 -0.9881
16466TIP3   OH270888   2.000   5.892   1.505  0.1947 -0.0866 -0.3475
16466TIP3    H170889   2.032   5.921   1.591  0.3268 -0.3149 -0.3192
16466TIP3    H270890   2.004   5.971   1.451  0.4768 -0.0289 -0.2472
16467TIP3   OH270891   4.334   4.422   4.348 -0.0431  0.4392  0.0857
16467TIP3    H170892   4.289   4.464   4.421  2.2458  0.1079  1.8098
16467TIP3    H270893   4.427   4.435   4.366  0.6497 -1.3477 -1.7598
16468TIP3   OH270894   1.623   4.353   0.452  0.3879  0.3785  0.5023
16468TIP3    H170895   1.684   4.331   0.522 -0.6231 -0.1456  1.2512
16468TIP3    H270896   1.565   4.277   0.446  0.4026  0.4564 -0.8526
16469TIP3   OH270897   4.392   2.689   5.149  0.4653  0.4394  1.0016
16469TIP3    H170898   4.300   2.718   5.147  0.2664 -0.1109 -1.6983
16469TIP3    H270899   4.388   2.601   5.187  0.0086  0.7294  1.6608
16470TIP3   OH270900   4.234   0.332  13.243  0.0960 -0.5615 -0.3034
16470TIP3    H170901   4.166   0.367  13.301  0.4893 -1.0041  0.4358
16470TIP3    H270902   4.315   0.372  13.275  0.4231 -1.4282 -0.0270
16471TIP3   OH270903   0.173   5.249   4.943  0.3404 -0.6988 -0.0933
16471TIP3    H170904   0.245   5.227   5.002  0.4259 -0.0797  0.0459
16471TIP3    H270905   0.215   5.259   4.858  0.5880  0.5066  0.1386
16472TIP3   OH270906   4.693   3.213   3.297  0.0186 -0.2995  0.0436
16472TIP3    H170907   4.753   3.233   3.224  1.2582 -2.3961  0.4133
16472TIP3    H270908   4.626   3.157   3.259 -0.7447  0.6099  0.0169
16473TIP3   OH270909   1.948   1.609  11.366 -0.7187  0.2749 -0.5698
16473TIP3    H170910   1.919   1.589  11.277 -0.4547  3.1808 -1.3975
16473TIP3    H270911   2.037   1.640  11.356 -0.1628 -0.7212  0.9448
16474TIP3   OH270912   5.754   6.623   3.313  0.0158 -0.1134 -0.5123
16474TIP3    H170913   5.664   6.641   3.283 -1.5240 -1.7195  2.6220
16474TIP3    H270914   5.759   6.667   3.398  2.3872  0.2395 -0.7879
16475TIP3   OH270915   3.988   4.265  14.614  0.5088  0.4779  0.1467
16475TIP3    H170916   4.080   4.290  14.630  1.0174  2.0120 -3.9739
16475TIP3    H270917   3.992   4.173  14.589  0.9757  0.5849 -0.1893
16476TIP3   OH270918   3.547   0.474  17.387  0.5676 -0.2207  0.0274
16476TIP3    H170919   3.514   0.412  17.322 -0.8539 -0.2911  0.7751
16476TIP3    H270920   3.622   0.430  17.427  1.0842 -0.4240 -1.1286
16477TIP3   OH270921   4.930   3.587  10.168  0.0531  0.1547  0.2618
16477TIP3    H170922   5.005   3.603  10.224 -0.4832  0.5519  0.8740
16477TIP3    H270923   4.902   3.498  10.189 -1.6746  1.1078  2.5178
16478TIP3   OH270924   6.020   4.013  14.566  0.0775 -0.2734 -0.6099
16478TIP3    H170925   5.949   3.949  14.561 -0.7879  0.4761  1.0988
16478TIP3    H270926   6.061   3.996  14.651  1.3847 -0.0981 -1.1832
16479TIP3   OH270927   5.082   1.912  16.939 -0.0473 -0.7357 -0.2233
16479TIP3    H170928   5.090   1.871  17.025  1.5617  0.1052  0.0461
16479TIP3    H270929   4.988   1.928  16.929 -0.1113  0.8690  2.1891
16480TIP3   OH270930   3.336   2.168   1.721  0.6170  0.2824 -0.5289
16480TIP3    H170931   3.428   2.163   1.697  0.7757 -0.2005  0.1354
16480TIP3    H270932   3.316   2.082   1.759  0.1163  0.6456  0.0693
16481TIP3   OH270933   2.473   1.526  16.483 -0.1939 -0.5795 -0.7432
16481TIP3    H170934   2.563   1.495  16.476 -0.4388 -1.3375 -0.6449
16481TIP3    H270935   2.422   1.447  16.500 -1.1076 -0.4344 -2.5985
16482TIP3   OH270936   5.135   4.382   6.017 -0.8301 -0.5155 -0.0701
16482TIP3    H170937   5.045   4.352   6.011 -1.6609  1.4374  1.5243
16482TIP3    H270938   5.172   4.333   6.090 -1.4931  0.6227  1.0701
16483TIP3   OH270939   4.697   0.008  10.496 -0.0090 -0.6680 -0.1070
16483TIP3    H170940   4.718  -0.067  10.552 -0.4751 -0.5802  0.1850
16483TIP3    H270941   4.672   0.077  10.557  1.4818  0.0813 -0.3135
16484TIP3   OH270942   3.003   3.066   4.686 -0.1929 -0.0786  0.0994
16484TIP3    H170943   3.024   2.990   4.740  0.5113  0.3629  0.4707
16484TIP3    H270944   3.006   3.033   4.596 -0.3628 -0.5944  0.2818
16485TIP3   OH270945   2.832   4.841  16.325 -0.1662  0.3466  0.1675
16485TIP3    H170946   2.782   4.759  16.328 -0.6299  0.5543 -1.0340
16485TIP3    H270947   2.910   4.824  16.379 -1.5222  0.0311  2.1310
16486TIP3   OH270948   6.078   3.443   5.355  0.5332  0.0827  0.3831
16486TIP3    H170949   6.018   3.379   5.317  0.9432  0.4051 -0.8660
16486TIP3    H270950   6.154   3.443   5.296  0.3265  2.0793  0.0322
16487TIP3   OH270951   2.254   4.614  14.463 -0.2544 -0.2077 -0.4796
16487TIP3    H170952   2.187   4.550  14.488 -0.4893 -0.3511 -1.4406
16487TIP3    H270953   2.224   4.696  14.501 -1.0082 -0.2631 -0.9339
16488TIP3   OH270954   3.011   5.242   0.473 -0.3537  0.2058  0.4990
16488TIP3    H170955   3.033   5.323   0.425 -2.2506 -0.3946 -1.5313
16488TIP3    H270956   2.921   5.255   0.502 -0.9671 -1.4518 -0.5467
16489TIP3   OH270957   5.456   3.027   4.031 -0.4611 -0.1154  0.2748
16489TIP3    H170958   5.482   2.938   4.052 -1.9473 -0.6062  0.1580
16489TIP3    H270959   5.489   3.079   4.105  0.1034 -0.8069  0.5235
16490TIP3   OH270960   0.761   2.971   5.356 -0.2036  0.2288 -0.3210
16490TIP3    H170961   0.727   3.022   5.282 -0.5468  0.2552 -0.1452
16490TIP3    H270962   0.739   3.022   5.433  2.5830  1.6123 -0.3256
16491TIP3   OH270963   3.089   2.500  16.938  0.4410 -0.0540 -0.3494
16491TIP3    H170964   3.043   2.482  17.020 -0.1679  0.8937 -0.4650
16491TIP3    H270965   3.050   2.581  16.906  2.0030  0.6411 -0.6026
16492TIP3   OH270966   2.511   6.646  14.225  0.3614  0.3920  0.1657
16492TIP3    H170967   2.464   6.675  14.303  0.3561 -0.9299  0.6827
16492TIP3    H270968   2.604   6.655  14.247  0.4241 -1.9876  1.2048
16493TIP3   OH270969   6.386   6.080   2.238 -0.0411 -0.0294  0.2488
16493TIP3    H170970   6.396   6.147   2.306  1.4962  0.5975 -0.5161
16493TIP3    H270971   6.462   6.023   2.249  3.1828  2.8458 -3.7237
16494TIP3   OH270972   0.976   2.099  10.652 -0.3096 -0.1064  0.1644
16494TIP3    H170973   0.972   2.148  10.569 -0.3455 -0.2597  0.0758
16494TIP3    H270974   0.961   2.166  10.719 -1.5780 -0.1888 -0.0122
16495TIP3   OH270975   6.389   1.032   0.760  0.1318  0.3465  0.6486
16495TIP3    H170976   6.425   0.964   0.817 -0.0767  0.0427  0.4178
16495TIP3    H270977   6.461   1.094   0.749 -0.1423  0.9741  2.1106
16496TIP3   OH270978   0.606   1.167  11.995 -0.6317  0.0946  0.2048
16496TIP3    H170979   0.602   1.240  11.934  0.9627 -0.4718 -0.6332
16496TIP3    H270980   0.673   1.192  12.059 -0.1220 -0.5820 -0.0487
16497TIP3   OH270981   2.916   1.078   3.778 -0.6143  0.1671  0.4513
16497TIP3    H170982   2.977   1.152   3.777  0.9747 -1.0475  1.0528
16497TIP3    H270983   2.866   1.089   3.858 -2.1776  1.8968 -0.7100
16498TIP3   OH270984   3.041   4.892  14.455 -0.1214 -0.7467  0.5658
16498TIP3    H170985   2.971   4.833  14.484  1.1153 -1.8935  1.3178
16498TIP3    H270986   3.098   4.901  14.531  1.6349 -1.4663 -0.6014
16499TIP3   OH270987   0.254   4.335   5.655 -0.2844  0.1837  0.1540
16499TIP3    H170988   0.306   4.413   5.672 -0.1785  0.2828 -0.5886
16499TIP3    H270989   0.267   4.280   5.732  0.2310  0.5803  0.3527
16500TIP3   OH270990   0.897   0.162  15.126 -0.6113  0.1086 -0.3678
16500TIP3    H170991   0.937   0.082  15.093  2.5656  0.5321  1.9253
16500TIP3    H270992   0.843   0.134  15.200  0.3696  0.0077  0.3308
16501TIP3   OH270993   1.780   2.649  15.486  0.5342 -0.0173  0.3915
16501TIP3    H170994   1.737   2.725  15.527  0.2686  0.0266  0.0407
16501TIP3    H270995   1.874   2.667  15.495  0.5058  1.3011 -1.3560
16502TIP3   OH270996   1.148   0.473  14.132  0.0179 -0.5382  0.8535
16502TIP3    H170997   1.163   0.535  14.061  5.3536 -2.6023 -0.3330
16502TIP3    H270998   1.069   0.425  14.106 -0.4109  1.3142 -1.6290
16503TIP3   OH270999   6.637   1.857   3.203  0.5282 -0.2573 -0.4964
16503TIP3    H171000   6.546   1.833   3.185  0.5194 -0.3822 -0.2905
16503TIP3    H271001   6.644   1.948   3.174 -0.1278  0.3157  1.0282
16504TIP3   OH271002   4.708   5.270  13.243  0.3422 -0.2390 -0.7413
16504TIP3    H171003   4.707   5.175  13.231  1.6581 -0.2035 -1.3424
16504TIP3    H271004   4.781   5.300  13.189 -0.1793  1.1455 -0.7113
16505TIP3   OH271005   5.365   0.884   0.577 -0.3296 -0.5722  0.1037
16505TIP3    H171006   5.437   0.861   0.518  1.4556  2.8489  0.6338
16505TIP3    H271007   5.377   0.827   0.653  0.9399 -1.0791 -0.4511
16506TIP3   OH271008   3.501   3.962  14.062 -0.2452 -0.2736 -0.1338
16506TIP3    H171009   3.422   3.930  14.105 -0.8881  1.8512  0.4114
16506TIP3    H271010   3.536   3.886  14.015 -1.9009 -1.5773  0.6440
16507TIP3   OH271011   2.280   1.927   1.819 -0.0810 -0.2583 -0.1570
16507TIP3    H171012   2.202   1.888   1.860 -0.4088 -1.0236 -1.4497
16507TIP3    H271013   2.298   2.005   1.871 -0.8565 -0.8502  1.0347
16508TIP3   OH271014   2.008   3.503   2.817 -0.2552 -0.5768 -0.5268
16508TIP3    H171015   1.980   3.523   2.907 -0.1976 -0.9315 -0.4294
16508TIP3    H271016   2.103   3.509   2.819 -0.2745 -0.1464 -0.6735
16509TIP3   OH271017   0.420   4.437  15.833 -0.1558  0.2472 -0.6520
16509TIP3    H171018   0.472   4.517  15.822 -0.4563  0.6030  0.3566
16509TIP3    H271019   0.330   4.469  15.846  0.1061 -0.0117  2.7077
16510TIP3   OH271020   4.346   2.592  17.091  0.2795 -0.4699 -0.2441
16510TIP3    H171021   4.265   2.548  17.117 -0.3645 -0.2823 -1.8241
16510TIP3    H271022   4.411   2.522  17.087 -0.8413 -1.4856 -3.2130
16511TIP3   OH271023   6.639   0.003   3.154 -0.7779  0.5690 -0.5406
16511TIP3    H171024   6.660  -0.045   3.074 -0.6051  1.6816 -1.1821
16511TIP3    H271025   6.548   0.029   3.144 -1.5677 -1.4338  0.7806
16512TIP3   OH271026   2.397   6.743  14.874 -0.0553  0.8262  0.8990
16512TIP3    H171027   2.452   6.684  14.822 -0.5432  0.7613  0.4499
16512TIP3    H271028   2.336   6.686  14.920  0.4917  0.8719  1.6854
16513TIP3   OH271029   2.024   5.120  16.304 -0.4396 -0.1613  0.3394
16513TIP3    H171030   1.951   5.074  16.346 -0.2985 -1.3525 -0.6488
16513TIP3    H271031   2.101   5.071  16.328 -0.2053 -0.0920 -0.2435
16514TIP3   OH271032   4.317   1.226   6.056  0.7701 -0.1685 -0.0354
16514TIP3    H171033   4.329   1.311   6.014 -0.0756  0.3756  0.7785
16514TIP3    H271034   4.229   1.199   6.031  1.4044 -1.2970 -1.1144
16515TIP3   OH271035   4.997   2.268  13.382 -0.3813  0.1461  0.2016
16515TIP3    H171036   4.979   2.241  13.472 -2.2377 -1.4304 -0.5749
16515TIP3    H271037   5.055   2.200  13.347 -0.8255 -0.0319 -0.2054
16516TIP3   OH271038   3.094   0.016  12.965 -0.1328 -0.5266  0.0304
16516TIP3    H171039   3.112   0.088  12.904 -1.0803  0.8771  1.3379
16516TIP3    H271040   3.181  -0.011  12.995  0.2119  1.7023  1.2925
16517TIP3   OH271041   0.396   3.531   6.033 -0.1901 -0.3713 -0.3776
16517TIP3    H171042   0.372   3.623   6.049  0.7760  0.5780 -3.5767
16517TIP3    H271043   0.312   3.486   6.025 -0.8716  1.1477 -2.8312
16518TIP3   OH271044   4.742   5.443   0.581  0.0150 -0.7082  0.5908
16518TIP3    H171045   4.748   5.470   0.489 -1.2426  0.5373  0.8302
16518TIP3    H271046   4.784   5.514   0.630  0.9250 -1.4932  0.9781
16519TIP3   OH271047   6.065   6.478   3.283  0.0197 -0.4508  0.4510
16519TIP3    H171048   6.127   6.421   3.328  1.0046  1.1175  1.1929
16519TIP3    H271049   6.000   6.419   3.246  1.2471 -2.0639  0.7617
16520TIP3   OH271050   1.219   0.592  12.419  0.1362  0.6541  0.2580
16520TIP3    H171051   1.181   0.679  12.407  1.4133  1.2031 -0.0102
16520TIP3    H271052   1.225   0.556  12.331  0.8114  0.8333  0.2272
16521TIP3   OH271053   2.174   6.144   3.315 -0.8366 -0.2379 -0.1030
16521TIP3    H171054   2.250   6.086   3.306 -1.2325 -0.6825 -0.6486
16521TIP3    H271055   2.187   6.188   3.399 -0.3002 -0.7835  0.1052
16522TIP3   OH271056   2.529   1.531  14.481  0.0164  0.5020 -0.3896
16522TIP3    H171057   2.434   1.534  14.497  0.0070  2.4883 -0.5450
16522TIP3    H271058   2.562   1.613  14.518  1.3531  0.8650 -2.2188
16523TIP3   OH271059   0.473   1.106  10.786 -1.0622 -0.0213  0.2864
16523TIP3    H171060   0.472   1.101  10.690 -2.9448 -2.2906  0.3302
16523TIP3    H271061   0.412   1.176  10.807  0.7736  1.8109 -0.1040
16524TIP3   OH271062   0.558   6.179  15.322 -0.2288  0.1947  0.0308
16524TIP3    H171063   0.593   6.165  15.410 -1.1243  0.1091  0.3828
16524TIP3    H271064   0.565   6.094  15.280  0.2402  0.2455  0.0071
16525TIP3   OH271065   4.794   5.741   1.187  0.0198  0.2558  0.2044
16525TIP3    H171066   4.797   5.785   1.272  2.1981  2.3262 -0.8119
16525TIP3    H271067   4.705   5.757   1.156 -0.4199  0.5856  1.5435
16526TIP3   OH271068   4.644   4.230  12.057 -0.3507  0.1540 -0.2431
16526TIP3    H171069   4.686   4.290  11.996 -2.9500 -0.2795 -2.6902
16526TIP3    H271070   4.688   4.146  12.043 -1.8917 -0.3334 -2.8689
16527TIP3   OH271071   4.619   1.402  10.834 -0.0115 -0.4607  0.1533
16527TIP3    H171072   4.623   1.342  10.760 -0.7917 -1.1080  0.6082
16527TIP3    H271073   4.559   1.359  10.896  0.0439  0.4130  0.8359
16528TIP3   OH271074   0.793   3.123   5.612 -0.2845  0.3267  0.4881
16528TIP3    H171075   0.724   3.131   5.678  1.8874  0.8412  2.8352
16528TIP3    H271076   0.837   3.041   5.634  0.9607  0.8891  0.1502
16529TIP3   OH271077   4.756   6.356  17.013 -0.1229 -0.4091 -0.4167
16529TIP3    H171078   4.848   6.383  17.007 -0.1155  0.0241  1.2723
16529TIP3    H271079   4.709   6.438  17.031 -0.5820 -0.9221  0.7852
16530TIP3   OH271080   2.360   2.877   2.168  0.5757 -0.2182  0.1201
16530TIP3    H171081   2.364   2.967   2.136  1.9048  0.2155  1.3622
16530TIP3    H271082   2.358   2.885   2.263  0.3800 -1.5047  0.2547
16531TIP3   OH271083   1.106   6.021   1.304  0.6554 -0.3618 -0.6214
16531TIP3    H171084   1.012   6.033   1.294  0.7159 -0.6088 -1.6030
16531TIP3    H271085   1.119   5.926   1.296  0.8918 -0.4277  0.4296
16532TIP3   OH271086   3.659   2.328   5.635  0.8711  0.0527 -0.2714
16532TIP3    H171087   3.665   2.424   5.629  0.0635  0.1985  0.8645
16532TIP3    H271088   3.737   2.296   5.589  2.5939  1.3243  1.5918
16533TIP3   OH271089   5.496   3.269  10.454  0.2003  0.3219 -0.6044
16533TIP3    H171090   5.460   3.199  10.509 -0.6440  1.1205 -0.1003
16533TIP3    H271091   5.425   3.334  10.450  0.1027  0.1473 -2.9097
16534TIP3   OH271092   6.500   5.657  11.980 -0.4229  0.9845  0.7362
16534TIP3    H171093   6.435   5.587  11.975 -0.3697  1.0128 -1.2570
16534TIP3    H271094   6.582   5.612  11.999 -0.3698  0.4392 -0.6505
16535TIP3   OH271095   5.413   1.266  12.594  0.4704  0.1235 -0.3694
16535TIP3    H171096   5.403   1.280  12.689  1.1972  2.3199 -0.5633
16535TIP3    H271097   5.353   1.195  12.574 -0.4731  0.3064  1.5874
16536TIP3   OH271098   6.041   0.416  11.690 -0.0189 -1.1009 -0.1262
16536TIP3    H171099   5.999   0.467  11.760 -1.7677 -1.3499 -0.9302
16536TIP3    H271100   6.032   0.471  11.612  1.2689 -1.1333 -0.3233
16537TIP3   OH271101   6.269   0.566  11.190  1.0194 -0.5207  0.3396
16537TIP3    H171102   6.312   0.494  11.144  1.9138 -1.1964  2.1523
16537TIP3    H271103   6.239   0.625  11.120  2.8464 -1.1791 -1.0654
16538TIP3   OH271104   5.489   4.339  11.413  0.2668 -0.2778  0.3208
16538TIP3    H171105   5.578   4.374  11.410  0.5679 -0.8576  1.5987
16538TIP3    H271106   5.474   4.304  11.325  1.2876 -0.1178  0.0714
16539TIP3   OH271107   5.893   4.683   4.617  0.1302 -0.1560 -0.0784
16539TIP3    H171108   5.949   4.741   4.668  0.7597 -0.4061 -0.4711
16539TIP3    H271109   5.814   4.734   4.601  0.0918  0.0795  0.7786
16540TIP3   OH271110   2.793   6.144  16.069  0.5746 -0.0030  0.1948
16540TIP3    H171111   2.705   6.137  16.107 -0.0708  0.4972 -1.1572
16540TIP3    H271112   2.850   6.160  16.145 -0.6238  0.5909  1.0074
16541TIP3   OH271113   5.917   1.489  12.899 -0.0354  0.3712 -0.1666
16541TIP3    H171114   5.918   1.575  12.941  3.1176  0.2036  0.2976
16541TIP3    H271115   5.903   1.428  12.971  0.7713  0.3342 -0.0403
16542TIP3   OH271116   2.742   5.456   4.234 -0.0993 -0.7604 -0.3257
16542TIP3    H171117   2.771   5.392   4.169  0.4804  0.2708 -1.1012
16542TIP3    H271118   2.710   5.530   4.182 -1.4952 -0.7117  0.5445
16543TIP3   OH271119   3.303   2.029   4.629  0.0777  0.4672 -0.5068
16543TIP3    H171120   3.231   2.089   4.648 -0.5803 -0.6679  0.7728
16543TIP3    H271121   3.346   2.015   4.713 -0.1248 -1.2390 -0.6401
16544TIP3   OH271122   5.528   6.103   3.413  0.5364  0.6113  0.2940
16544TIP3    H171123   5.589   6.029   3.414  1.0188  0.9072 -2.2143
16544TIP3    H271124   5.558   6.160   3.485  1.4217 -0.6147  0.9240
16545TIP3   OH271125   6.349   5.214  10.813  0.0255  0.0742  0.3745
16545TIP3    H171126   6.369   5.132  10.858 -0.2352  0.0721  0.4910
16545TIP3    H271127   6.271   5.248  10.859  1.1064  1.2392  1.4355
16546TIP3   OH271128   6.242   4.752   3.213  1.0057 -0.2348 -0.3022
16546TIP3    H171129   6.284   4.669   3.235  0.1144 -1.0996 -1.7298
16546TIP3    H271130   6.252   4.760   3.118 -1.4028 -0.1349 -0.5992
16547TIP3   OH271131   2.445   4.751   3.468 -0.0755  0.2136  0.4193
16547TIP3    H171132   2.482   4.740   3.555  1.1220  1.4164  0.1066
16547TIP3    H271133   2.353   4.775   3.484 -0.2009 -0.7654  1.2858
16548TIP3   OH271134   1.325   1.707   5.321  0.2891  0.2491  0.6175
16548TIP3    H171135   1.392   1.765   5.286  1.8032 -0.3461  2.3706
16548TIP3    H271136   1.244   1.757   5.316  1.0444  1.4085 -0.5396
16549TIP3   OH271137   3.453   5.551  16.475 -0.8279 -0.2339  0.4298
16549TIP3    H171138   3.433   5.635  16.433 -1.1940 -0.6533 -0.2427
16549TIP3    H271139   3.484   5.575  16.563 -0.2858  0.6377  0.0148
16550TIP3   OH271140   0.649   0.360  13.035  0.8251 -0.1115 -0.3897
16550TIP3    H171141   0.632   0.413  12.957 -0.6294  0.2171  0.1287
16550TIP3    H271142   0.563   0.336  13.068  1.4115 -0.3713  1.0438
16551TIP3   OH271143   6.630   0.750  14.479  0.4438  0.3633  0.0255
16551TIP3    H171144   6.661   0.676  14.530  1.6281 -0.1498 -1.3977
16551TIP3    H271145   6.577   0.711  14.410  1.5842  0.7733 -1.1000
16552TIP3   OH271146   1.207   2.684  13.069 -0.6713 -0.2578 -0.5885
16552TIP3    H171147   1.277   2.692  13.004 -1.9804 -0.2592 -2.0498
16552TIP3    H271148   1.132   2.730  13.030 -1.3957  0.0839  1.1011
16553TIP3   OH271149   2.800   2.912  17.016  0.2212  0.2173  0.5123
16553TIP3    H171150   2.740   2.983  17.041 -0.7137 -0.5206  0.3961
16553TIP3    H271151   2.886   2.945  17.041 -0.5075  0.0330  3.7058
16554TIP3   OH271152   0.903   5.405  14.823  0.1449  0.6639  0.1242
16554TIP3    H171153   0.849   5.330  14.850  1.0762 -0.5073 -1.0879
16554TIP3    H271154   0.982   5.397  14.876  0.2536  0.7690 -0.0229
16555TIP3   OH271155   4.087   1.974  16.745  0.2068 -0.3635  0.3197
16555TIP3    H171156   4.180   1.983  16.722  0.1199  0.7603  0.3642
16555TIP3    H271157   4.082   2.005  16.835  0.1030 -2.2883  1.0264
16556TIP3   OH271158   0.395   5.943  11.707  0.3392 -0.3776 -0.0320
16556TIP3    H171159   0.394   5.908  11.618  0.2119 -0.4624  0.0026
16556TIP3    H271160   0.334   5.887  11.755  1.3803 -1.1725  0.4227
16557TIP3   OH271161   1.502   1.341   0.019 -0.2600  0.1988 -0.5171
16557TIP3    H171162   1.517   1.396  -0.058  0.1483 -0.3419 -0.8320
16557TIP3    H271163   1.407   1.340   0.029 -0.4044 -0.6906 -1.7429
16558TIP3   OH271164   1.584   5.410   5.445  0.3394  0.1443  0.3746
16558TIP3    H171165   1.671   5.452   5.438  0.0839  0.6320  0.0281
16558TIP3    H271166   1.526   5.481   5.471  0.3825 -0.6126  2.7482
16559TIP3   OH271167   3.760   3.147   5.926 -0.2854 -0.5361  0.2490
16559TIP3    H171168   3.696   3.122   5.860  0.4681 -2.6234  0.2295
16559TIP3    H271169   3.823   3.075   5.927  0.8431  0.4000  1.8218
16560TIP3   OH271170   4.203   0.411   1.090  0.2061  0.0747 -0.2320
16560TIP3    H171171   4.275   0.472   1.079 -0.4368  0.8247 -0.4030
16560TIP3    H271172   4.224   0.362   1.169  1.6088 -0.7304 -1.0532
16561TIP3   OH271173   5.646   3.077  11.898 -0.5182  0.5686  0.4877
16561TIP3    H171174   5.561   3.048  11.931 -0.0013  0.3206  1.6576
16561TIP3    H271175   5.708   3.047  11.964  0.9131 -2.1596 -1.8891
16562TIP3   OH271176   5.301   3.899   3.853  0.2899  1.0462  0.0004
16562TIP3    H171177   5.276   3.985   3.820 -0.3477  1.0807  0.5584
16562TIP3    H271178   5.290   3.905   3.948  1.0752  0.6187  0.1317
16563TIP3   OH271179   1.030   4.594   1.006 -0.2398 -0.0164  0.6737
16563TIP3    H171180   0.970   4.536   0.960 -0.0449  0.1975  0.1480
16563TIP3    H271181   0.973   4.657   1.050 -0.3761  1.3914 -1.4056
16564TIP3   OH271182   1.428   1.099   6.457  0.3460  0.7762  0.0259
16564TIP3    H171183   1.382   1.109   6.540 -0.1042 -1.8946  0.1670
16564TIP3    H271184   1.366   1.132   6.392 -0.1580  0.8836  0.5530
16565TIP3   OH271185   1.962   0.095   0.762  0.3890 -0.0850  0.2021
16565TIP3    H171186   1.949   0.055   0.848  1.1797 -0.7082  0.0455
16565TIP3    H271187   2.043   0.145   0.770  0.9028 -0.7814 -0.3803
16566TIP3   OH271188   4.012   5.546  15.310 -0.1817  0.0201 -0.1885
16566TIP3    H171189   4.049   5.604  15.376 -0.0760  0.2598 -0.4542
16566TIP3    H271190   3.929   5.586  15.286  0.3827  0.6746 -1.1632
16567TIP3   OH271191   5.605   6.363  16.676  0.1788 -0.4843 -0.7360
16567TIP3    H171192   5.664   6.417  16.624 -0.8981  1.6948  0.1673
16567TIP3    H271193   5.525   6.358  16.624  0.7125 -2.4253 -1.4276
16568TIP3   OH271194   3.439   3.850   4.235  0.0283  0.1570  0.3526
16568TIP3    H171195   3.427   3.755   4.239 -1.4082  0.3217  0.3191
16568TIP3    H271196   3.506   3.868   4.301  1.7556 -1.0727 -0.9361
16569TIP3   OH271197   5.553   0.264  14.338  1.0913 -0.1804 -0.0539
16569TIP3    H171198   5.458   0.262  14.335  1.1117 -0.2904 -1.9249
16569TIP3    H271199   5.580   0.253  14.246  2.8996 -0.2592  0.4491
16570TIP3   OH271200   0.869   3.947  12.464 -0.1713 -0.0172 -0.0205
16570TIP3    H171201   0.822   3.918  12.386  0.4383  0.8537 -0.7306
16570TIP3    H271202   0.884   4.040  12.450 -1.2501  0.4708  1.7812
16571TIP3   OH271203   1.236   2.205  13.194 -0.0743  0.3858  0.0418
16571TIP3    H171204   1.251   2.121  13.150  1.4565  1.3693 -1.4628
16571TIP3    H271205   1.148   2.198  13.230  0.1658 -1.9898  0.2909
16572TIP3   OH271206   1.670   0.927  16.531  0.3803 -0.0440  0.1420
16572TIP3    H171207   1.711   0.996  16.479  1.8073 -1.3018 -0.4745
16572TIP3    H271208   1.674   0.849  16.476 -2.2327 -0.4232  0.3758
16573TIP3   OH271209   1.397   3.620   3.297  0.5506  0.9010  0.1585
16573TIP3    H171210   1.317   3.585   3.258  0.5972 -0.4624  1.2179
16573TIP3    H271211   1.467   3.592   3.238  0.3743  1.0917 -0.1451
16574TIP3   OH271212   4.511   1.681  16.156  0.1517 -0.1973  0.1069
16574TIP3    H171213   4.504   1.718  16.068 -2.2692 -1.0540 -0.1307
16574TIP3    H271214   4.439   1.619  16.162  0.1384 -0.0475  2.7585
16575TIP3   OH271215   3.594   6.739   2.401 -0.2725  0.1711 -0.4552
16575TIP3    H171216   3.646   6.666   2.433  0.3942  0.0208 -1.8051
16575TIP3    H271217   3.516   6.699   2.362 -0.0624  0.1949 -0.9058
16576TIP3   OH271218   1.923   6.181   5.435  0.0442 -0.2353  0.3675
16576TIP3    H171219   1.946   6.092   5.462 -0.2896 -0.4301  0.0257
16576TIP3    H271220   1.855   6.169   5.368  0.2020  0.2641  0.1100
16577TIP3   OH271221   3.226   5.396  13.982 -0.1966 -0.4080  0.2401
16577TIP3    H171222   3.297   5.332  13.980  1.2588  1.1399 -1.8093
16577TIP3    H271223   3.221   5.424  14.073 -0.0977 -2.5240  0.9476
16578TIP3   OH271224   1.286   3.619  11.107 -0.1876  0.1032 -0.3891
16578TIP3    H171225   1.232   3.696  11.088  1.1123  1.5513  1.3875
16578TIP3    H271226   1.339   3.606  11.028 -0.0183  1.4130 -0.5152
16579TIP3   OH271227   2.209   1.552   2.875  0.2467  0.5016  0.5771
16579TIP3    H171228   2.154   1.619   2.836  0.9065 -0.2217 -1.7342
16579TIP3    H271229   2.148   1.496   2.924 -0.6052  1.4688  0.6529
16580TIP3   OH271230   2.828   0.238  11.351 -0.2685 -0.3115 -0.3803
16580TIP3    H171231   2.756   0.230  11.289  0.3746 -2.9292 -0.8960
16580TIP3    H271232   2.864   0.150  11.359  2.2996  0.7060  0.5723
16581TIP3   OH271233   1.627   0.952  12.317 -0.6548  0.0241 -0.1306
16581TIP3    H171234   1.697   0.898  12.353  0.3428  1.6828  0.5670
16581TIP3    H271235   1.546   0.910  12.347  0.0922 -0.5902  1.1320
16582TIP3   OH271236   6.700   0.120  12.964 -0.3357 -0.3667  0.5243
16582TIP3    H171237   6.770   0.184  12.972 -0.2830 -0.3956  0.3028
16582TIP3    H271238   6.730   0.044  13.014  1.8141 -2.1236 -3.0058
16583TIP3   OH271239   0.688   0.168   0.031  0.4890  0.2011  0.4524
16583TIP3    H171240   0.595   0.186   0.047  0.6234  0.4903  0.9348
16583TIP3    H271241   0.712   0.103   0.097  0.2523 -1.0516 -0.6609
16584TIP3   OH271242   5.956   6.129  12.033  0.0516  0.8762  0.4021
16584TIP3    H171243   5.971   6.193  12.102 -2.6004  2.3946 -0.2902
16584TIP3    H271244   5.877   6.082  12.060  1.0995 -1.1301  0.1521
16585TIP3   OH271245   6.313   4.153   1.116 -0.4169  0.9135  0.1980
16585TIP3    H171246   6.239   4.094   1.133  1.0063 -0.6435  1.3023
16585TIP3    H271247   6.282   4.239   1.143 -2.1578  0.4971 -0.3225
16586TIP3   OH271248   1.002   3.459  15.651 -0.2108 -0.0423  0.5451
16586TIP3    H171249   1.028   3.392  15.588  0.0046 -0.5859  1.2039
16586TIP3    H271250   1.041   3.540  15.617  1.2116 -0.5923  0.7820
16587TIP3   OH271251   5.621   5.311   5.936  0.8673  0.2500  0.3432
16587TIP3    H171252   5.684   5.284   6.002 -0.1696 -1.1675  0.8057
16587TIP3    H271253   5.660   5.388   5.895  2.2090  0.2672  1.5881
16588TIP3   OH271254   5.764   6.776  13.544 -0.2209  0.1643 -0.6654
16588TIP3    H171255   5.750   6.813  13.631  0.7974  0.5911 -0.6639
16588TIP3    H271256   5.754   6.682  13.555  0.3882  0.1720  0.0232
16589TIP3   OH271257   4.288   4.054  15.212  0.3152 -0.2450  0.0617
16589TIP3    H171258   4.264   4.080  15.123  0.4208  0.0751  0.1246
16589TIP3    H271259   4.378   4.084  15.223  0.3082 -0.2965  0.2706
16590TIP3   OH271260   1.684   5.859  16.942  0.0358  0.2955  0.0198
16590TIP3    H171261   1.637   5.799  16.884  1.5583 -1.2350  0.2855
16590TIP3    H271262   1.711   5.931  16.885  2.2988 -1.6069 -1.4973
16591TIP3   OH271263   2.242   4.915   3.657 -0.5170 -0.3821  0.6652
16591TIP3    H171264   2.160   4.955   3.686  0.0380 -0.0741  1.8461
16591TIP3    H271265   2.302   4.989   3.643 -0.6780 -0.5306 -1.0765
16592TIP3   OH271266   6.042   0.628  16.966  0.3459  0.1998 -0.1871
16592TIP3    H171267   6.112   0.679  16.924  0.2775  0.7894  0.3993
16592TIP3    H271268   6.048   0.542  16.925 -0.2184  0.9501 -1.9810
16593TIP3   OH271269   3.265   5.438  16.212  0.0410 -0.2865  0.2411
16593TIP3    H171270   3.265   5.350  16.250 -0.2064 -1.0833 -1.5004
16593TIP3    H271271   3.205   5.488  16.267 -0.6936 -1.5276  0.6053
16594TIP3   OH271272   0.476   1.348   1.696 -0.6609 -1.0909 -0.0942
16594TIP3    H171273   0.486   1.292   1.620 -2.8200  1.0089 -2.0837
16594TIP3    H271274   0.397   1.316   1.739 -1.3634 -0.2217 -0.7036
16595TIP3   OH271275   4.220   2.441  15.599  0.7469  0.4609  0.3086
16595TIP3    H171276   4.260   2.513  15.551  1.0686  0.4330  0.5274
16595TIP3    H271277   4.172   2.392  15.532  1.5338  0.1844 -0.0767
16596TIP3   OH271278   5.575   1.591  17.167 -0.2796 -0.1786 -0.4314
16596TIP3    H171279   5.570   1.556  17.078  0.3417  0.1404 -0.5958
16596TIP3    H271280   5.668   1.593  17.187 -0.4523 -0.8707  0.4885
16597TIP3   OH271281   4.290   5.044   2.930 -0.2761 -0.4966  0.2212
16597TIP3    H171282   4.218   5.023   2.871 -1.8316  1.5005  1.2821
16597TIP3    H271283   4.323   5.128   2.898  0.0898 -0.2975  1.0983
16598TIP3   OH271284   5.779   3.230  16.003 -0.5148 -0.2363  0.5607
16598TIP3    H171285   5.818   3.235  15.915 -1.7387 -0.6444 -0.0240
16598TIP3    H271286   5.710   3.297  16.003  1.8614  2.4617  2.5381
16599TIP3   OH271287   0.101   5.365  14.935  0.1245  0.6383  0.6935
16599TIP3    H171288   0.019   5.317  14.932  0.7500 -0.4434  0.1024
16599TIP3    H271289   0.167   5.298  14.956  1.2704  0.8274 -1.9261
16600TIP3   OH271290   3.727   2.620  13.191 -0.2773  0.0836  0.1671
16600TIP3    H171291   3.768   2.704  13.210 -0.7683  0.1668  0.9336
16600TIP3    H271292   3.651   2.617  13.249  0.2317 -1.2861  0.8140
16601TIP3   OH271293   0.318   4.876   2.221  0.0965 -0.1981  0.5908
16601TIP3    H171294   0.288   4.789   2.192 -0.2863  0.0747  0.1617
16601TIP3    H271295   0.318   4.929   2.142  2.1357 -0.2821  0.4870
16602TIP3   OH271296   3.873   4.702   3.976 -0.5431  0.0597  0.1454
16602TIP3    H171297   3.787   4.686   3.937 -1.0029 -2.4123  1.9462
16602TIP3    H271298   3.933   4.650   3.923 -0.0945  1.7282 -1.0657
16603TIP3   OH271299   4.918   0.652   1.713  0.2877  0.0428 -0.4781
16603TIP3    H171300   4.926   0.743   1.741 -0.9610  0.2881 -0.8404
16603TIP3    H271301   4.968   0.647   1.631  0.8808  0.2352 -0.1333
16604TIP3   OH271302   1.140   1.596  16.076  0.0057 -0.2223 -0.2085
16604TIP3    H171303   1.110   1.621  16.164  1.1449 -0.4207  0.2543
16604TIP3    H271304   1.075   1.533  16.046  0.5319 -1.5353  1.2516
16605TIP3   OH271305   0.101   3.711  16.558 -0.3440 -0.6176  0.2207
16605TIP3    H171306   0.173   3.685  16.500 -0.5702 -0.2046 -0.2553
16605TIP3    H271307   0.063   3.628  16.588 -0.6145 -0.8459 -0.7161
16606TIP3   OH271308   0.432   6.218   1.285  0.0565  0.5141  0.0798
16606TIP3    H171309   0.460   6.272   1.359 -1.2126  2.4054 -0.7356
16606TIP3    H271310   0.359   6.166   1.319  0.3834  0.3459  0.5226
16607TIP3   OH271311   5.427   5.756   5.461 -0.4970  0.5877  0.4658
16607TIP3    H171312   5.511   5.781   5.425 -0.5746 -1.4829 -1.3639
16607TIP3    H271313   5.448   5.688   5.525 -0.7486  0.3164  0.2614
16608TIP3   OH271314   4.707   5.218   3.059 -0.6413 -0.0111  0.2026
16608TIP3    H171315   4.634   5.196   3.117  0.7282  0.4105  2.2092
16608TIP3    H271316   4.732   5.307   3.086  2.7098 -1.3115  2.0590
16609TIP3   OH271317   5.496   4.120  11.673  0.8791  0.1462 -0.1504
16609TIP3    H171318   5.440   4.129  11.596  0.2261 -1.8809  0.0379
16609TIP3    H271319   5.436   4.109  11.746  1.5045  1.1695  0.5386
16610TIP3   OH271320   6.509   6.654  11.199 -0.1623 -0.3159 -0.0841
16610TIP3    H171321   6.504   6.744  11.166  0.7396 -0.3158 -0.2508
16610TIP3    H271322   6.509   6.599  11.121 -0.7457 -0.4704  0.0177
16611TIP3   OH271323   2.949   6.481  14.888  1.0963  0.5960  0.4626
16611TIP3    H171324   3.025   6.536  14.871  2.0895 -0.9795 -0.4456
16611TIP3    H271325   2.962   6.450  14.978  2.9392 -1.6346 -0.4556
16612TIP3   OH271326   2.748   6.001  12.080  0.7285  0.1037  0.4267
16612TIP3    H171327   2.766   5.993  12.173  2.8211  1.9138  0.2620
16612TIP3    H271328   2.835   6.007  12.039 -0.1081 -0.9145 -1.6878
16613TIP3   OH271329   3.314   4.299  14.870 -0.1583 -0.3792 -0.0834
16613TIP3    H171330   3.264   4.217  14.871 -1.0303  0.1402  0.1815
16613TIP3    H271331   3.392   4.280  14.923 -0.9250 -0.7034  0.9720
16614TIP3   OH271332   1.777   5.438  14.817 -0.4246  0.4617 -0.1043
16614TIP3    H171333   1.809   5.446  14.727 -0.0844 -2.0691 -0.2641
16614TIP3    H271334   1.839   5.379  14.860 -0.8678  1.2217  1.6785
16615TIP3   OH271335   5.708   5.982  13.290  0.3931  0.4531  0.3566
16615TIP3    H171336   5.614   5.980  13.304  0.5375  0.9025  1.4880
16615TIP3    H271337   5.720   5.949  13.201 -0.7954 -0.0042  0.3529
16616TIP3   OH271338   5.435   4.298   1.644  0.2184 -0.0209 -0.1781
16616TIP3    H171339   5.491   4.256   1.708 -0.0140  0.0458  0.0737
16616TIP3    H271340   5.391   4.226   1.598 -0.7197 -0.0629  0.7353
16617TIP3   OH271341   3.249   1.378  12.416 -0.0989 -0.4898 -0.0360
16617TIP3    H171342   3.213   1.289  12.413  0.7822 -0.8475 -0.1508
16617TIP3    H271343   3.296   1.382  12.499 -0.5758  0.0535  0.2172
16618TIP3   OH271344   5.709   0.847  16.987 -0.4352 -0.0419 -0.1984
16618TIP3    H171345   5.785   0.831  16.931  0.8987  2.3501  0.7748
16618TIP3    H271346   5.741   0.907  17.054 -3.0038  0.4275  0.7204
16619TIP3   OH271347   6.275   1.361  17.035 -0.2171 -0.2011 -0.1226
16619TIP3    H171348   6.366   1.381  17.014 -0.2139 -0.3938 -0.2914
16619TIP3    H271349   6.224   1.404  16.967 -0.2257 -0.5019 -0.3106
16620TIP3   OH271350   1.539   3.997  14.778  0.3095 -0.7299  0.2859
16620TIP3    H171351   1.466   4.042  14.737 -0.0858 -0.3717  1.3524
16620TIP3    H271352   1.612   4.008  14.717 -0.4206 -0.7885 -0.6207
16621TIP3   OH271353   5.829   5.480  14.089 -0.0235  0.0373  0.5084
16621TIP3    H171354   5.906   5.429  14.114 -0.2267 -1.9377 -2.3787
16621TIP3    H271355   5.755   5.426  14.117 -0.3111  0.3568  0.3659
16622TIP3   OH271356   2.730   6.514   0.341 -0.1793  0.2514  0.0830
16622TIP3    H171357   2.801   6.450   0.344 -1.8150 -1.6480  0.3429
16622TIP3    H271358   2.773   6.598   0.356  2.4440 -0.3774 -2.8420
16623TIP3   OH271359   5.792   6.637  12.863  0.3179  0.6741  0.1374
16623TIP3    H171360   5.808   6.546  12.890  1.0319  1.1149  1.3056
16623TIP3    H271361   5.749   6.630  12.778  0.0490 -0.7641  0.3682
16624TIP3   OH271362   3.867   1.523   2.016  0.0774  0.4123  0.1250
16624TIP3    H171363   3.951   1.542   2.057  0.1939  1.2774 -0.5001
16624TIP3    H271364   3.803   1.534   2.087  0.4664 -0.1051  0.5653
16625TIP3   OH271365   6.094   2.881   5.121 -0.7399 -0.0038 -0.2262
16625TIP3    H171366   6.163   2.912   5.180 -1.4644  0.3105  0.4676
16625TIP3    H271367   6.088   2.787   5.138 -0.7375  0.0338 -0.0203
16626TIP3   OH271368   5.662   1.634  11.692  0.1941 -0.0092  0.3919
16626TIP3    H171369   5.628   1.645  11.603 -1.3680 -0.5308  0.8844
16626TIP3    H271370   5.677   1.540  11.700  1.0148  0.1239  0.4532
16627TIP3   OH271371   0.955   6.099   5.464  0.1022 -0.1300  0.4921
16627TIP3    H171372   0.869   6.080   5.502  0.7698 -0.2950  1.9716
16627TIP3    H271373   1.014   6.038   5.508  1.4274  1.8075  1.4872
16628TIP3   OH271374   4.595   2.521  12.764  0.3795 -0.6278  0.4316
16628TIP3    H171375   4.566   2.445  12.714  0.1146 -0.4437  0.3060
16628TIP3    H271376   4.690   2.508  12.773  0.5985 -0.1677 -0.9785
16629TIP3   OH271377   2.191   2.362  17.288 -0.6114 -0.0388  0.5406
16629TIP3    H171378   2.130   2.297  17.322  0.6268 -0.4530  2.0786
16629TIP3    H271379   2.204   2.423  17.360  0.5645  0.1975  0.1622
16630TIP3   OH271380   3.126   5.224   3.054  0.0211  0.4347 -0.0650
16630TIP3    H171381   3.075   5.222   3.135 -0.9326  2.3246 -0.5532
16630TIP3    H271382   3.132   5.133   3.027 -0.2591 -0.1639  1.7439
16631TIP3   OH271383   6.356   2.881  17.376  0.4573 -0.0439 -0.2344
16631TIP3    H171384   6.294   2.836  17.317 -2.1684  0.7502  1.7158
16631TIP3    H271385   6.442   2.849  17.348 -0.9601 -3.4334 -1.3466
16632TIP3   OH271386   2.670   4.069   5.517  0.5563 -0.5600  0.5341
16632TIP3    H171387   2.720   4.150   5.508 -2.7885  1.5730 -1.0260
16632TIP3    H271388   2.674   4.048   5.610  2.6927  0.5375  0.7434
16633TIP3   OH271389   1.844   1.509   6.272  0.3176  0.1537 -0.0258
16633TIP3    H171390   1.924   1.530   6.320 -0.3508  2.0794  0.3070
16633TIP3    H271391   1.788   1.465   6.336 -0.7454  3.1020  1.2189
16634TIP3   OH271392   1.600   6.330  15.359  0.5627  0.3024 -0.2840
16634TIP3    H171393   1.570   6.393  15.293  0.2228  0.3033 -0.1307
16634TIP3    H271394   1.520   6.294  15.396  0.7544 -1.0735 -1.1729
16635TIP3   OH271395   3.157   5.099   5.984  0.5569  0.2082 -0.1294
16635TIP3    H171396   3.230   5.151   6.018 -0.0173  0.1446  1.2910
16635TIP3    H271397   3.125   5.051   6.060 -0.0375 -0.8936 -1.0492
16636TIP3   OH271398   0.628   6.443   0.693 -0.0453  0.5454 -0.2895
16636TIP3    H171399   0.712   6.484   0.714  1.3458 -1.7094 -1.1071
16636TIP3    H271400   0.569   6.472   0.762  1.3691  2.2352  0.2844
16637TIP3   OH271401   6.474   1.159  11.487 -0.5496 -0.1795 -0.4751
16637TIP3    H171402   6.542   1.118  11.433  0.3337 -0.0242  0.4903
16637TIP3    H271403   6.432   1.222  11.429  0.8891  0.5255 -0.7928
16638TIP3   OH271404   0.451   6.641   3.183  0.8194 -0.3435 -0.3297
16638TIP3    H171405   0.527   6.601   3.141  0.2422  0.0629 -1.8456
16638TIP3    H271406   0.380   6.578   3.169 -0.0188  0.9341 -2.4478
16639TIP3   OH271407   6.537   1.472   4.826  0.5762 -0.3728  0.4879
16639TIP3    H171408   6.520   1.423   4.906 -2.8580 -0.5049 -0.1904
16639TIP3    H271409   6.508   1.561   4.846 -0.7772 -0.5120 -0.6848
16640TIP3   OH271410   1.979   2.750   4.892  0.5415 -0.2799  0.2004
16640TIP3    H171411   2.073   2.768   4.887  0.4957 -0.1839 -0.3541
16640TIP3    H271412   1.949   2.754   4.802 -0.3894  1.7734  0.5518
16641TIP3   OH271413   0.843   4.202   1.627  0.2835  0.5687  0.3920
16641TIP3    H171414   0.813   4.129   1.681 -1.8522 -0.4547 -1.9744
16641TIP3    H271415   0.856   4.275   1.689 -1.1453 -0.7488  2.3466
16642TIP3   OH271416   4.244   3.317  13.811  0.4123  0.1752  0.2707
16642TIP3    H171417   4.229   3.410  13.792 -1.4759 -0.3594 -1.1431
16642TIP3    H271418   4.265   3.278  13.726  0.2009 -0.8570  0.6790
16643TIP3   OH271419   3.236   3.401  15.885 -0.1530  0.8804  0.1567
16643TIP3    H171420   3.283   3.451  15.951 -0.0363  1.9841 -0.7350
16643TIP3    H271421   3.291   3.325  15.868  0.1435  0.9401  0.8352
16644TIP3   OH271422   1.280   0.382   4.824 -0.1182 -0.2891 -0.0368
16644TIP3    H171423   1.282   0.315   4.755  0.9810  0.9513 -1.2703
16644TIP3    H271424   1.246   0.460   4.781  1.6495  0.8245  0.4736
16645TIP3   OH271425   5.044   1.059   2.522  0.7656  0.2955  0.3053
16645TIP3    H171426   4.979   1.093   2.459  0.1934 -0.0361  0.7060
16645TIP3    H271427   5.038   0.964   2.513  0.8651  0.2538  0.6785
16646TIP3   OH271428   0.742   4.466  11.336 -0.6510  0.2065  0.4628
16646TIP3    H171429   0.834   4.452  11.361 -1.1086  0.1136  2.1885
16646TIP3    H271430   0.746   4.534  11.269  0.5057  2.2590  2.4907
16647TIP3   OH271431   5.089   2.143  16.666 -0.1029  0.4048  0.4326
16647TIP3    H171432   5.000   2.110  16.655 -0.5164  1.1508  1.2963
16647TIP3    H271433   5.083   2.236  16.643 -0.2666  1.1955  3.2265
16648TIP3   OH271434   1.568   1.955   2.658  0.2720 -0.2738  0.0225
16648TIP3    H171435   1.576   2.028   2.596  3.4116 -1.5165 -1.2263
16648TIP3    H271436   1.592   1.993   2.743 -0.9261  0.7057 -0.0304
16649TIP3   OH271437   5.530   0.776   4.940 -0.5621 -0.0087 -0.0258
16649TIP3    H171438   5.584   0.749   4.865 -2.6021 -2.3820 -0.7906
16649TIP3    H271439   5.547   0.708   5.006 -2.0927 -0.4491 -0.0589
16650TIP3   OH271440   1.415   1.678   2.030  0.3671  0.4307 -0.1885
16650TIP3    H171441   1.441   1.676   2.122 -0.2246  1.8399  0.0377
16650TIP3    H271442   1.415   1.771   2.007 -0.6270  0.1834 -1.2786
16651TIP3   OH271443   4.917   6.419  13.562 -0.2091 -0.2744  0.2442
16651TIP3    H171444   4.999   6.468  13.566 -0.0367 -0.3405 -1.5382
16651TIP3    H271445   4.895   6.417  13.469 -2.9670  0.9191  0.7598
16652TIP3   OH271446   5.793   4.666   3.819 -0.0058 -0.3407 -0.1122
16652TIP3    H171447   5.708   4.669   3.862  0.0386  1.1002 -0.0703
16652TIP3    H271448   5.817   4.758   3.806  2.0136 -0.6705  0.8178
16653TIP3   OH271449   1.633   3.775  12.327 -0.0907  0.1309  0.8316
16653TIP3    H171450   1.723   3.808  12.328 -0.1381  0.4235  3.8874
16653TIP3    H271451   1.582   3.845  12.369 -2.2605  1.0202 -2.8331
16654TIP3   OH271452   4.499   6.574   0.757 -0.0341  0.1271 -0.2067
16654TIP3    H171453   4.522   6.639   0.823 -1.9606 -0.9447  1.6562
16654TIP3    H271454   4.412   6.601   0.725 -0.8255 -1.4073  0.5327
16655TIP3   OH271455   6.174   5.206   2.170  0.3757  0.1635 -0.1881
16655TIP3    H171456   6.185   5.301   2.162  0.4201  0.1994  0.2835
16655TIP3    H271457   6.079   5.193   2.173  0.3741  0.2124 -0.0254
16656TIP3   OH271458   4.014   3.710  16.003  0.3372 -1.1399 -0.9774
16656TIP3    H171459   3.951   3.659  16.053 -0.2968  1.6194  1.3233
16656TIP3    H271460   4.099   3.670  16.023 -0.0036 -0.6937  1.7296
16657TIP3   OH271461   3.788   2.432   3.423  0.2444  0.4610 -0.1868
16657TIP3    H171462   3.844   2.402   3.352 -1.4787  1.5133 -2.1017
16657TIP3    H271463   3.712   2.373   3.420 -1.5670  2.6730 -1.7513
16658TIP3   OH271464   2.871   2.387   0.779 -0.8284 -0.4207  0.3961
16658TIP3    H171465   2.856   2.427   0.693 -0.5057  0.2647  0.6550
16658TIP3    H271466   2.817   2.438   0.839 -0.5247 -0.4712  0.7104
16659TIP3   OH271467   6.168   4.776   0.044 -0.2717  0.4029  0.2568
16659TIP3    H171468   6.189   4.853  -0.008 -0.5417 -0.3338 -0.9929
16659TIP3    H271469   6.250   4.725   0.046 -0.2025  0.5284  0.7464
16660TIP3   OH271470   1.160   5.888   6.261  0.5445 -0.2833 -0.1780
16660TIP3    H171471   1.122   5.864   6.346  0.5052 -0.0782 -0.1362
16660TIP3    H271472   1.131   5.978   6.247 -0.5475 -0.7600 -1.0305
16661TIP3   OH271473   5.543   5.399  16.604  0.0795  0.4213  0.2813
16661TIP3    H171474   5.481   5.418  16.533 -0.6381  0.4430  0.8967
16661TIP3    H271475   5.560   5.306  16.596  1.7942  0.8240 -1.3114
16662TIP3   OH271476   5.670   5.059  12.207  0.2388  0.2203  0.3419
16662TIP3    H171477   5.639   5.023  12.290  0.8146 -0.4581  0.2752
16662TIP3    H271478   5.700   4.982  12.158 -0.1303  0.6104 -0.5089
16663TIP3   OH271479   1.943   4.590   2.291  0.7304  0.4715  0.2116
16663TIP3    H171480   2.037   4.578   2.279  0.7217  0.2688  0.3296
16663TIP3    H271481   1.921   4.667   2.239  0.4480 -1.1269 -2.2119
16664TIP3   OH271482   3.258   6.089  16.583  0.2480  0.2398  0.0097
16664TIP3    H171483   3.180   6.045  16.616 -0.9549  1.1891 -1.3922
16664TIP3    H271484   3.319   6.018  16.564  0.5596 -0.4075  2.9725
16665TIP3   OH271485   3.067   3.646  15.984 -0.2908  0.3607  0.0231
16665TIP3    H171486   3.016   3.614  16.058 -2.0650 -1.0678 -1.7331
16665TIP3    H271487   3.158   3.635  16.012 -0.8139  1.9608  2.8113
16666TIP3   OH271488   1.918   5.288  15.033  0.0912 -0.0749  0.6176
16666TIP3    H171489   1.974   5.219  15.069 -1.2512 -1.5543 -0.0244
16666TIP3    H271490   1.846   5.297  15.096  0.5739  1.2595  1.0346
16667TIP3   OH271491   2.992   2.131   0.004 -0.6592 -0.1207  0.6527
16667TIP3    H171492   3.043   2.054   0.026  0.9347  0.5247 -0.5848
16667TIP3    H271493   2.910   2.121   0.053  0.1054 -1.8411  1.6508
16668TIP3   OH271494   5.042   2.877  11.052  0.2179 -0.3256 -0.5371
16668TIP3    H171495   5.060   2.971  11.044 -0.2333 -0.2484 -0.6833
16668TIP3    H271496   5.129   2.836  11.054  0.4934  0.2293  1.4878
16669TIP3   OH271497   4.806   5.364  17.106 -0.2127 -0.4793  0.2771
16669TIP3    H171498   4.818   5.272  17.084 -1.1069 -0.8459  1.2300
16669TIP3    H271499   4.735   5.364  17.171 -1.1984  1.0016 -0.7291
16670TIP3   OH271500   1.123   3.811   2.665  0.1717 -0.0022  0.0378
16670TIP3    H171501   1.144   3.902   2.686  0.5263  0.1143 -0.7914
16670TIP3    H271502   1.028   3.810   2.657  0.2840  0.8290 -2.1989
16671TIP3   OH271503   3.798   2.558  13.594  0.0662  0.3494 -0.1412
16671TIP3    H171504   3.845   2.580  13.514 -0.8897  1.6036 -0.3821
16671TIP3    H271505   3.788   2.463  13.590  0.1650  0.3773 -1.4419
16672TIP3   OH271506   1.764   0.749  14.086  0.3197  0.1976 -0.1465
16672TIP3    H171507   1.705   0.811  14.128 -0.9158  0.1265 -1.6743
16672TIP3    H271508   1.771   0.677  14.149 -0.3728  0.6930  0.5215
16673TIP3   OH271509   2.453   4.235   0.949  0.0307 -0.2920  0.4760
16673TIP3    H171510   2.519   4.183   0.903  0.5743  2.3651 -2.0960
16673TIP3    H271511   2.373   4.221   0.899  0.1318  1.0432 -0.1173
16674TIP3   OH271512   5.676   4.649  15.306 -0.5086  0.8822 -0.7011
16674TIP3    H171513   5.665   4.718  15.240 -1.3764 -2.0541 -3.9496
16674TIP3    H271514   5.595   4.597  15.299  0.0294 -0.3885  1.6855
16675TIP3   OH271515   2.100   0.289  12.580 -0.0886 -0.6490 -0.2576
16675TIP3    H171516   2.078   0.196  12.582 -3.5304  0.0620  0.2349
16675TIP3    H271517   2.139   0.303  12.494  0.7512 -2.5450 -0.2351
16676TIP3   OH271518   5.200   6.459   0.577  0.3276 -0.0941 -0.0068
16676TIP3    H171519   5.243   6.482   0.660 -0.6891 -0.4798  0.6566
16676TIP3    H271520   5.272   6.439   0.517  1.0734 -0.7935  1.0756
16677TIP3   OH271521   1.237   6.166  16.505  0.3078  0.3985  0.6819
16677TIP3    H171522   1.189   6.231  16.453 -1.7346 -1.7586 -0.3062
16677TIP3    H271523   1.285   6.114  16.440 -0.5404 -0.9685  1.1079
16678TIP3   OH271524   0.051   0.637   0.907  0.6087 -0.3215 -0.0437
16678TIP3    H171525  -0.022   0.597   0.955  0.8286 -0.1094  0.4696
16678TIP3    H271526   0.123   0.641   0.970  1.5581 -1.8857 -0.9302
16679TIP3   OH271527   6.328   0.690   1.968 -0.0877 -0.3143 -0.4181
16679TIP3    H171528   6.388   0.616   1.959  2.4151  1.5449 -0.1440
16679TIP3    H271529   6.338   0.739   1.886 -2.0972 -0.4841 -0.8217
16680TIP3   OH271530   0.367   4.373   6.434 -0.4182  0.0873 -0.0920
16680TIP3    H171531   0.457   4.392   6.463 -0.2094  1.3015 -1.4045
16680TIP3    H271532   0.348   4.287   6.471  1.4097 -0.3459 -0.0484
16681TIP3   OH271533   6.683   3.052  15.103 -0.1526  0.1348 -0.6827
16681TIP3    H171534   6.733   3.091  15.175 -0.4699 -1.1860  0.2933
16681TIP3    H271535   6.616   3.117  15.082 -0.8129  0.0599  1.0425
16682TIP3   OH271536   4.763   1.114   5.225 -0.2469  0.4702 -0.2064
16682TIP3    H171537   4.760   1.203   5.190 -3.0275 -0.3592 -2.3529
16682TIP3    H271538   4.717   1.119   5.309 -1.2005  0.9183 -0.7446
16683TIP3   OH271539   1.438   1.391  13.984  0.0593 -0.9196 -0.0557
16683TIP3    H171540   1.425   1.420  14.075  0.7946 -0.5589 -0.0484
16683TIP3    H271541   1.351   1.369  13.953 -0.2766 -0.5275  0.5725
16684TIP3   OH271542   3.391   1.363   4.396  0.3385 -0.1170  0.3345
16684TIP3    H171543   3.380   1.404   4.310 -2.2380 -1.0083  0.1555
16684TIP3    H271544   3.308   1.379   4.441  0.9292 -1.3013  1.9443
16685TIP3   OH271545   4.677   3.242   1.614  0.4987 -0.1135 -0.4230
16685TIP3    H171546   4.636   3.203   1.537  1.1647  1.7515 -1.8160
16685TIP3    H271547   4.608   3.294   1.655  0.0998 -1.2351  0.3794
16686TIP3   OH271548   4.797   3.404  13.860 -0.5862  0.0068  0.1589
16686TIP3    H171549   4.760   3.385  13.946 -0.6027 -0.7212  0.0034
16686TIP3    H271550   4.727   3.383  13.799  0.6227 -3.4352 -0.2912
16687TIP3   OH271551   5.565   0.097   5.647 -0.4223  0.5136  0.1850
16687TIP3    H171552   5.491   0.155   5.633 -0.6754  1.0000  2.9338
16687TIP3    H271553   5.527   0.020   5.690  0.4671  0.1649  0.3726
16688TIP3   OH271554   5.191   4.015  12.165  0.4628  0.0154 -0.2946
16688TIP3    H171555   5.111   3.962  12.167  0.2207  0.3822 -0.0110
16688TIP3    H271556   5.244   3.981  12.238 -1.0144  2.1426  1.9418
16689TIP3   OH271557   2.630   1.428  16.044  0.6036 -0.7198 -0.4048
16689TIP3    H171558   2.672   1.344  16.024 -0.3810 -1.4892  0.5833
16689TIP3    H271559   2.635   1.434  16.140  0.2666  0.1318 -0.4376
16690TIP3   OH271560   3.877   6.435  17.137 -0.5085 -0.0294 -0.3074
16690TIP3    H171561   3.910   6.517  17.100 -1.6582  1.1489  1.1831
16690TIP3    H271562   3.784   6.433  17.114 -0.4610 -1.0139 -0.4692
16691TIP3   OH271563   6.220   4.225  13.012 -0.1068  0.4587  0.5243
16691TIP3    H171564   6.306   4.186  12.994 -0.0663  0.5930  0.4172
16691TIP3    H271565   6.184   4.243  12.925  0.9821  3.0708  0.4971
16692TIP3   OH271566   1.693   2.551  15.122  0.1631  0.2796 -0.4953
16692TIP3    H171567   1.690   2.499  15.202  1.0307 -0.8645 -1.1679
16692TIP3    H271568   1.770   2.608  15.134 -1.1382  1.9208  0.5014
16693TIP3   OH271569   6.332   6.296   0.121 -0.2584  0.2664 -0.5762
16693TIP3    H171570   6.422   6.272   0.099 -0.1672  1.9723 -2.4099
16693TIP3    H271571   6.281   6.265   0.046 -0.9595  0.7017 -0.2830
16694TIP3   OH271572   1.186   4.005   3.104  0.3546 -0.5091  0.1438
16694TIP3    H171573   1.229   3.981   3.186 -0.7895  0.5826  1.1053
16694TIP3    H271574   1.132   3.928   3.082  0.1132 -0.5337  0.8115
16695TIP3   OH271575   2.727   2.910   5.163 -0.3971 -0.3839  0.1767
16695TIP3    H171576   2.728   2.956   5.247 -0.0692 -0.1783  0.0616
16695TIP3    H271577   2.758   2.821   5.185  0.7462 -0.0246  0.1061
16696TIP3   OH271578   3.819   0.897  16.856 -0.1213 -0.6466  0.0527
16696TIP3    H171579   3.857   0.823  16.808 -0.5944 -1.6231  1.1358
16696TIP3    H271580   3.894   0.953  16.876  0.0514 -0.0705 -2.0170
16697TIP3   OH271581   1.703   5.650  11.695 -0.7211  0.4565  0.3499
16697TIP3    H171582   1.710   5.588  11.622 -0.4906 -0.8078  1.4036
16697TIP3    H271583   1.787   5.694  11.698 -1.0192  1.1087 -0.6496
16698TIP3   OH271584   0.958   1.110   3.877 -0.8459 -0.3161 -0.0596
16698TIP3    H171585   0.986   1.078   3.963 -1.3877  0.6173  0.4856
16698TIP3    H271586   0.864   1.122   3.886 -0.7864  0.5941 -0.5005
16699TIP3   OH271587   2.018   3.533  15.728  0.2711  0.0220  0.1745
16699TIP3    H171588   2.076   3.510  15.655 -0.5105  1.9335 -1.1287
16699TIP3    H271589   1.994   3.624  15.711 -1.9055 -0.2472  1.5141
16700TIP3   OH271590   3.364   5.547  10.767 -0.6206  0.1659  0.3349
16700TIP3    H171591   3.437   5.498  10.804 -0.0817  0.7147  0.0258
16700TIP3    H271592   3.399   5.635  10.754 -1.2733  0.3765 -0.0234
16701TIP3   OH271593   3.077   6.627   1.191  0.3059 -1.1464 -0.8665
16701TIP3    H171594   3.137   6.636   1.116 -0.3766  0.5345 -1.2500
16701TIP3    H271595   3.013   6.696   1.179 -1.1428 -2.2615  0.1009
16702TIP3   OH271596   1.278   4.569  12.182  0.0697  0.2056 -0.3847
16702TIP3    H171597   1.217   4.639  12.157  1.0657  0.9696 -0.7321
16702TIP3    H271598   1.292   4.520  12.101  2.4561  2.0323 -1.1793
16703TIP3   OH271599   5.181   4.131  13.460  0.2098  0.5323  0.1087
16703TIP3    H171600   5.241   4.169  13.396  0.1901  1.6734  0.7493
16703TIP3    H271601   5.187   4.189  13.535 -0.7537 -0.0624  0.6537
16704TIP3   OH271602   1.762   1.257   3.305 -0.7526  0.9006  0.5528
16704TIP3    H171603   1.683   1.203   3.300 -1.5285  2.0102  0.4478
16704TIP3    H271604   1.731   1.343   3.335 -0.0296  2.1959 -2.0871
16705TIP3   OH271605   6.674   2.597  14.437  0.4966 -0.2408 -0.1084
16705TIP3    H171606   6.656   2.505  14.418  0.8770 -0.4278  0.4182
16705TIP3    H271607   6.699   2.598  14.529  2.4929  0.0925 -0.6022
16706TIP3   OH271608   2.182   0.327  15.913  0.1325  0.3978  0.0856
16706TIP3    H171609   2.254   0.382  15.944 -1.2005  1.0019  2.3201
16706TIP3    H271610   2.223   0.263  15.855  2.3894  0.9147  1.0414
16707TIP3   OH271611   5.680   1.982  14.022 -0.1729  0.2195  0.3571
16707TIP3    H171612   5.726   2.065  14.027 -0.7809  0.5248  1.0339
16707TIP3    H271613   5.743   1.917  14.053 -0.1126  0.6014  1.0407
16708TIP3   OH271614   5.130   3.155  12.957 -0.3711 -0.1446  0.2990
16708TIP3    H171615   5.164   3.070  12.929 -0.0236  0.0801  0.0424
16708TIP3    H271616   5.078   3.186  12.883  0.1961  0.2531  0.0673
16709TIP3   OH271617   5.281   3.162   0.936 -0.5029 -0.0996 -0.2155
16709TIP3    H171618   5.335   3.235   0.965  0.6857 -0.8758 -0.4199
16709TIP3    H271619   5.333   3.084   0.954 -0.5618 -0.7348 -2.5191
16710TIP3   OH271620   0.432   0.708  11.669  0.0615  0.1720  0.2602
16710TIP3    H171621   0.373   0.635  11.647  0.8855 -0.6516  0.7048
16710TIP3    H271622   0.417   0.722  11.763 -1.8518  2.2234 -0.2490
16711TIP3   OH271623   4.297   2.159  16.360 -0.0551 -0.2265  0.2441
16711TIP3    H171624   4.206   2.178  16.336  0.0663  1.3523  0.9078
16711TIP3    H271625   4.310   2.204  16.443  0.9807 -1.4922  0.8127
16712TIP3   OH271626   6.573   2.352  13.335  0.7556 -0.0605 -0.4420
16712TIP3    H171627   6.656   2.393  13.361  1.1095  0.8596 -2.7616
16712TIP3    H271628   6.511   2.425  13.332 -0.3582 -0.8286  1.8213
16713TIP3   OH271629   3.122   5.659  15.436  0.5058  0.3690 -0.1253
16713TIP3    H171630   3.090   5.742  15.402 -1.0805  0.3971  1.3336
16713TIP3    H271631   3.070   5.593  15.390  1.4405  0.1740 -0.9394
16714TIP3   OH271632   0.042   4.293   2.515 -0.5642 -0.4967  0.0353
16714TIP3    H171633   0.129   4.286   2.475 -0.9681  0.4765 -1.0763
16714TIP3    H271634   0.037   4.383   2.546 -1.5769 -0.2044 -0.9227
16715TIP3   OH271635   4.240   2.411   0.324  0.2761  0.0779 -0.7114
16715TIP3    H171636   4.194   2.332   0.294 -0.5386  0.3976 -0.3359
16715TIP3    H271637   4.316   2.417   0.266 -0.8116  0.2155 -2.2036
16716TIP3   OH271638   5.576   0.692  17.159 -0.5212  0.4538  0.2131
16716TIP3    H171639   5.606   0.706  17.249 -0.2445  0.7902  0.0716
16716TIP3    H271640   5.641   0.737  17.105 -0.9081  0.6045 -0.1334
16717TIP3   OH271641   3.356   6.306   5.181 -0.2142 -0.0270  0.1789
16717TIP3    H171642   3.428   6.296   5.244  0.7662  1.5323 -0.6270
16717TIP3    H271643   3.368   6.394   5.145 -1.6633 -0.3038 -1.0681
16718TIP3   OH271644   4.956   0.887   1.431 -0.0130 -0.5472  0.5844
16718TIP3    H171645   4.970   0.951   1.500  0.6803 -0.3437  0.2639
16718TIP3    H271646   4.926   0.938   1.356 -1.2613 -0.8297  0.8815
16719TIP3   OH271647   4.353   2.980  14.321 -0.9039  0.0029 -0.0305
16719TIP3    H171648   4.286   3.022  14.267 -1.3939  0.0585  0.5936
16719TIP3    H271649   4.304   2.915  14.372 -0.7670  1.0500  1.5186
16720TIP3   OH271650   4.878   0.116   1.282  0.6167  0.2540  0.3185
16720TIP3    H171651   4.827   0.145   1.358 -0.5571  1.2710 -0.8037
16720TIP3    H271652   4.939   0.052   1.318 -0.1365  0.4305  2.0583
16721TIP3   OH271653   6.647   0.627   0.564  0.1066  0.0692  0.1440
16721TIP3    H171654   6.660   0.690   0.493 -1.1612  0.4625  0.2428
16721TIP3    H271655   6.592   0.558   0.526  0.4421 -0.3501  0.3981
16722TIP3   OH271656   6.299   1.681   5.047  0.3998  0.1364 -0.4076
16722TIP3    H171657   6.251   1.599   5.058  0.7412 -0.0789 -0.5046
16722TIP3    H271658   6.351   1.689   5.127 -0.9946  1.1925  0.4540
16723TIP3   OH271659   4.855   0.354  16.686  0.4563  0.0944  0.4613
16723TIP3    H171660   4.909   0.370  16.609  0.9029 -0.3170  0.6801
16723TIP3    H271661   4.859   0.436  16.736 -0.3788  0.5939 -0.2712
16724TIP3   OH271662   5.564   4.498   2.072 -0.3674 -0.0671  0.0773
16724TIP3    H171663   5.516   4.535   2.146 -0.7551  0.0284 -0.2183
16724TIP3    H271664   5.582   4.407   2.098 -2.0574 -0.5771 -0.4286
16725TIP3   OH271665   3.240   4.951   3.539 -0.3307  0.3269 -0.0235
16725TIP3    H171666   3.194   4.921   3.461  0.3313 -1.3212  0.1785
16725TIP3    H271667   3.332   4.930   3.523  0.2418  2.5702  0.0352
16726TIP3   OH271668   3.323   6.446   6.351 -0.0108  0.1935  0.6001
16726TIP3    H171669   3.263   6.485   6.288  0.8845  0.7595  0.0646
16726TIP3    H271670   3.269   6.427   6.427 -0.8027  0.9584  0.2494
16727TIP3   OH271671   5.779   3.300   5.545  0.2230  0.7958 -0.7618
16727TIP3    H171672   5.777   3.386   5.588 -0.9359  0.3039  0.2207
16727TIP3    H271673   5.829   3.314   5.465 -0.6759  2.5914 -1.0461
16728TIP3   OH271674   6.448   4.821  12.267 -0.4886 -0.0711  0.1202
16728TIP3    H171675   6.457   4.884  12.339 -0.1735  0.2773 -0.2214
16728TIP3    H271676   6.402   4.747  12.307 -2.0076  0.8808  0.2260
16729TIP3   OH271677   1.341   3.945   1.117 -0.1317  0.1477 -1.1324
16729TIP3    H171678   1.257   3.974   1.152 -0.0840 -1.2689  0.2585
16729TIP3    H271679   1.325   3.855   1.089  0.8823 -0.0748 -1.0186
16730TIP3   OH271680   4.675   3.603  15.319 -0.9955  0.0547  0.2762
16730TIP3    H171681   4.736   3.530  15.315 -1.0102  0.0278  0.5468
16730TIP3    H271682   4.653   3.620  15.227 -0.3074  0.3021  0.1534
16731TIP3   OH271683   0.979   3.794  17.243 -0.0986  0.2645  0.1076
16731TIP3    H171684   0.979   3.699  17.256  1.3225 -0.3042 -3.0286
16731TIP3    H271685   0.889   3.821  17.260 -0.8208 -1.8454 -0.0959
16732TIP3   OH271686   6.612   1.029  11.709  0.5917  0.2039  0.5308
16732TIP3    H171687   6.566   1.066  11.784 -0.0384 -1.3140  0.9195
16732TIP3    H271688   6.580   1.079  11.634 -0.1202  0.5531  1.0604
16733TIP3   OH271689   5.387   0.670  14.833  0.1002 -0.0557  0.1738
16733TIP3    H171690   5.433   0.628  14.906  0.3894  2.7047  1.7190
16733TIP3    H271691   5.457   0.711  14.781 -0.2582 -0.2813 -0.4963
16734TIP3   OH271692   2.403   3.917  17.439 -0.2363 -0.2937  0.4847
16734TIP3    H171693   2.379   3.967  17.517  0.7613  0.8413  0.0831
16734TIP3    H271694   2.491   3.884  17.458 -0.4569 -1.0047  0.3032
16735TIP3   OH271695   5.731   2.619   3.436  0.4205  0.2474  0.2239
16735TIP3    H171696   5.778   2.612   3.519 -1.5570 -2.1290  1.2826
16735TIP3    H271697   5.748   2.536   3.392 -1.1844  0.1147 -0.2070
16736TIP3   OH271698   2.682   2.027   0.796  0.6356  0.3509 -0.3178
16736TIP3    H171699   2.618   2.097   0.804  2.5871  2.0577  1.3601
16736TIP3    H271700   2.649   1.958   0.853 -0.5280  0.4733 -0.8030
16737TIP3   OH271701   6.252   0.819   2.351  0.0995 -0.0481  0.1151
16737TIP3    H171702   6.189   0.801   2.281  1.9757 -0.6019 -1.5345
16737TIP3    H271703   6.334   0.838   2.305  1.2271  0.3307  2.1684
16738TIP3   OH271704   5.337   4.987   1.757 -0.1423  0.0710  0.3759
16738TIP3    H171705   5.313   4.988   1.850  1.4059  1.7741  0.8007
16738TIP3    H271706   5.429   4.960   1.756 -0.3350 -0.6389 -0.7565
16739TIP3   OH271707   6.492   5.172   5.382 -0.0438 -0.4232 -0.2087
16739TIP3    H171708   6.559   5.241   5.386 -0.1400 -0.3460  0.1140
16739TIP3    H271709   6.444   5.190   5.301 -0.9551  0.7307  0.5500
16740TIP3   OH271710   0.163   5.195   3.810  0.4243  0.1562  0.1674
16740TIP3    H171711   0.205   5.150   3.736 -0.4807 -0.2596 -0.1206
16740TIP3    H271712   0.069   5.187   3.792  0.2084  0.8420  0.9085
16741TIP3   OH271713   5.159   6.009   0.568  0.0523  0.4586  0.4596
16741TIP3    H171714   5.088   6.046   0.620 -2.2123 -2.1076 -0.5828
16741TIP3    H271715   5.213   5.962   0.632 -1.7201 -1.2068  0.8269
16742TIP3   OH271716   5.374   2.608  13.669 -0.4434 -0.1904 -0.6180
16742TIP3    H171717   5.430   2.685  13.675 -0.3886 -0.2931  0.3212
16742TIP3    H271718   5.349   2.589  13.760  0.9293 -2.3103 -0.6295
16743TIP3   OH271719   5.082   2.538  11.142 -0.2927 -0.0988  0.2922
16743TIP3    H171720   5.133   2.500  11.214 -0.8885 -3.2558 -0.7948
16743TIP3    H271721   5.145   2.547  11.071 -0.1166  1.1985  0.5991
16744TIP3   OH271722   5.024   4.358   5.417 -0.1130 -0.1600  0.6689
16744TIP3    H171723   5.113   4.386   5.440  0.7014 -0.6035 -1.6755
16744TIP3    H271724   4.984   4.437   5.381 -0.1484 -0.3401  0.3169
16745TIP3   OH271725   3.403   2.005  17.259  0.6990 -0.6863 -0.4096
16745TIP3    H171726   3.470   2.071  17.275 -1.4496  0.9639  3.1608
16745TIP3    H271727   3.328   2.054  17.225 -0.6442 -1.2759  1.4740
16746TIP3   OH271728   5.474   4.669   2.273 -0.3947 -0.1043 -0.4373
16746TIP3    H171729   5.440   4.672   2.362 -2.0084  0.1021 -1.0146
16746TIP3    H271730   5.565   4.699   2.280 -1.3205  2.7392  0.7693
16747TIP3   OH271731   2.933   0.097  14.350  0.1028  0.7085 -0.1590
16747TIP3    H171732   2.955   0.057  14.266  0.3117  2.2701 -0.8806
16747TIP3    H271733   2.934   0.024  14.412  2.5664 -0.0694 -1.0108
16748TIP3   OH271734   3.974   0.225  15.247  0.1130  0.0273  0.4710
16748TIP3    H171735   4.055   0.202  15.202 -0.6778  1.6113 -1.9347
16748TIP3    H271736   3.917   0.150  15.234 -0.4676  0.8269 -2.2822
16749TIP3   OH271737   3.734   0.564  16.401 -0.3601  0.2104  0.0065
16749TIP3    H171738   3.753   0.635  16.340 -0.9172 -0.3132 -0.7911
16749TIP3    H271739   3.643   0.578  16.427  0.4194  1.5660  2.2817
16750TIP3   OH271740   2.854   6.737  15.412 -0.0019  0.3641  0.1144
16750TIP3    H171741   2.899   6.672  15.466  1.2652  1.6410  0.6838
16750TIP3    H271742   2.799   6.786  15.473  2.1779  2.4551  0.5633
16751TIP3   OH271743   2.246   2.057  13.821 -0.0992 -0.3183  0.9644
16751TIP3    H171744   2.251   2.074  13.727  1.9536  0.0425  1.0801
16751TIP3    H271745   2.212   1.967  13.827  0.0822 -0.4764 -0.1456
16752TIP3   OH271746   3.576   4.322   3.776 -0.0924  0.6193 -0.8155
16752TIP3    H171747   3.486   4.333   3.809 -0.1548  0.9198 -1.0768
16752TIP3    H271748   3.627   4.296   3.853 -0.7769 -1.5814 -1.0485
16753TIP3   OH271749   6.645   5.353  14.557  0.3238  0.0260  0.0826
16753TIP3    H171750   6.729   5.363  14.511  1.1944 -0.6765  1.4615
16753TIP3    H271751   6.623   5.442  14.585 -0.7280  0.6597 -2.4289
16754TIP3   OH271752   2.991   3.047   2.385  0.5895  0.5135 -0.2189
16754TIP3    H171753   2.909   3.026   2.430  0.6235  0.9698  0.0578
16754TIP3    H271754   3.059   3.038   2.451  1.3760 -3.8503 -1.2884
16755TIP3   OH271755   4.564   2.610  14.457  0.0332  0.3671 -0.5530
16755TIP3    H171756   4.572   2.705  14.467  0.9972  0.1877  0.5757
16755TIP3    H271757   4.531   2.598  14.368 -1.9059  1.8161 -0.0904
16756TIP3   OH271758   0.379   4.586  17.383 -0.3004 -0.1704  0.2904
16756TIP3    H171759   0.357   4.533  17.307 -0.0048 -0.2896  0.2856
16756TIP3    H271760   0.322   4.662  17.377  0.7607  0.5656 -0.8796
16757TIP3   OH271761   4.872   1.819  13.925 -0.3256  0.0735  0.1637
16757TIP3    H171762   4.804   1.755  13.944 -0.9576  0.6910  0.0512
16757TIP3    H271763   4.880   1.870  14.006  1.7637 -1.5236  1.0479
16758TIP3   OH271764   3.356   5.119  15.469 -0.1150 -0.0801 -0.5016
16758TIP3    H171765   3.371   5.090  15.559 -0.5456 -1.0372 -0.7302
16758TIP3    H271766   3.261   5.122  15.461 -0.1050  1.8519 -0.3594
16759TIP3   OH271767   3.110   4.003   3.635 -0.3013 -0.7195 -0.2682
16759TIP3    H171768   3.125   3.932   3.697 -0.5709 -0.0824  0.5357
16759TIP3    H271769   3.033   3.975   3.584  0.7287 -1.8595 -1.2557
16760TIP3   OH271770   0.279   3.083   1.370  0.3949 -0.2969  0.1229
16760TIP3    H171771   0.240   3.166   1.344  0.8057  0.0068  0.4550
16760TIP3    H271772   0.218   3.016   1.338  0.1526  0.1227 -0.3038
16761TIP3   OH271773   5.417   1.774  15.378 -0.1541 -0.4221  0.2400
16761TIP3    H171774   5.500   1.733  15.353 -0.4097 -2.4161  2.3023
16761TIP3    H271775   5.433   1.811  15.465 -1.2156 -0.2537  0.3813
16762TIP3   OH271776   4.999   1.100  15.855 -0.0958 -0.1285  0.2498
16762TIP3    H171777   4.951   1.018  15.845  0.5808 -0.4363 -0.5661
16762TIP3    H271778   4.967   1.156  15.784  0.1476 -0.0305  0.2165
16763TIP3   OH271779   3.085   0.807  13.108  0.8678 -0.3536  0.0559
16763TIP3    H171780   3.001   0.778  13.145  1.9046 -0.7076  2.3012
16763TIP3    H271781   3.062   0.883  13.055 -0.8603 -0.3005  0.7927
16764TIP3   OH271782   3.912   5.792  11.442 -0.4323 -0.1596  0.6554
16764TIP3    H171783   3.913   5.888  11.443  0.5911 -0.1669  1.5284
16764TIP3    H271784   3.853   5.770  11.370  0.7830  1.1289 -0.8131
16765TIP3   OH271785   2.191   3.101  15.766  0.9970  0.2799  0.1635
16765TIP3    H171786   2.156   3.024  15.810 -2.9498  1.3601 -0.7252
16765TIP3    H271787   2.189   3.079  15.673 -0.9919  1.6630 -0.1701
16766TIP3   OH271788   4.938   0.066  14.341  0.1310 -0.6776 -0.3274
16766TIP3    H171789   5.014   0.034  14.292 -1.2624 -4.2240 -0.4314
16766TIP3    H271790   4.866   0.010  14.313 -2.4827  2.1630  0.2008
16767TIP3   OH271791   1.757   4.298   0.694  0.0112  0.3549 -0.4502
16767TIP3    H171792   1.784   4.207   0.684 -0.2552  0.1833  0.3197
16767TIP3    H271793   1.810   4.331   0.766  0.5548  1.0007 -1.1341
16768TIP3   OH271794   0.641   2.650  11.168  0.0959  0.3534 -0.4805
16768TIP3    H171795   0.619   2.733  11.125 -0.0218 -1.1433 -3.5814
16768TIP3    H271796   0.736   2.654  11.180 -0.0139  1.2511  0.2525
16769TIP3   OH271797   4.428   6.280   0.355 -0.0948 -0.0289 -0.0494
16769TIP3    H171798   4.522   6.297   0.361 -0.4058  2.5933 -1.1637
16769TIP3    H271799   4.414   6.253   0.264 -0.4213 -0.3710  0.0998
16770TIP3   OH271800   3.570   0.899   4.311  0.1700 -0.0039  0.2162
16770TIP3    H171801   3.634   0.948   4.259 -0.4372 -1.6259 -2.2448
16770TIP3    H271802   3.487   0.946   4.298  0.2616  0.3622  0.8951
16771TIP3   OH271803   4.418   6.739   0.467 -0.8577 -0.5074  0.3090
16771TIP3    H171804   4.400   6.817   0.414  1.2886  0.7414  1.2990
16771TIP3    H271805   4.441   6.773   0.553  2.9233 -1.9260  0.0618
16772TIP3   OH271806   3.443   0.437   4.712  0.0971 -0.0634 -0.3589
16772TIP3    H171807   3.403   0.470   4.632 -1.4719 -0.1701  0.3497
16772TIP3    H271808   3.471   0.515   4.760  1.6402 -0.0180 -1.2675
16773TIP3   OH271809   0.263   1.463  12.409  0.3327  0.3368  0.3544
16773TIP3    H171810   0.183   1.434  12.364  0.2362 -1.8199  1.7800
16773TIP3    H271811   0.334   1.432  12.354  0.1870  0.1265  0.2806
16774TIP3   OH271812   1.641   1.848  14.561 -0.6211 -0.2763 -0.3543
16774TIP3    H171813   1.573   1.783  14.547  0.9770 -1.7820 -1.5501
16774TIP3    H271814   1.669   1.872  14.472  0.9858 -0.3592  0.1063
16775TIP3   OH271815   0.402   0.201  10.969 -0.3933 -0.1123 -0.0807
16775TIP3    H171816   0.484   0.250  10.965 -0.6688  0.4349  0.7693
16775TIP3    H271817   0.428   0.113  10.997 -0.0585 -0.0464 -0.1828
16776TIP3   OH271818   4.546   1.045  13.972 -0.1015  0.3449 -0.9575
16776TIP3    H171819   4.568   0.991  13.896 -0.9413  0.3834 -1.2422
16776TIP3    H271820   4.485   1.110  13.937  1.3499  1.8823 -0.7717
16777TIP3   OH271821   0.012   4.479   3.558  0.4321 -0.3626 -0.0017
16777TIP3    H171822   0.008   4.385   3.539  1.0164 -0.2067 -0.9542
16777TIP3    H271823   0.074   4.486   3.631  0.8900 -0.6555 -0.3577
16778TIP3   OH271824   1.357   3.637  11.941 -0.3506  0.7727 -0.6843
16778TIP3    H171825   1.422   3.635  12.011 -1.4287  1.1360  0.3739
16778TIP3    H271826   1.305   3.715  11.959 -0.9687  0.5905 -1.6019
16779TIP3   OH271827   4.563   3.556  10.990 -0.0300 -0.1382 -0.1844
16779TIP3    H171828   4.553   3.461  10.989 -0.8593 -0.0978  1.3032
16779TIP3    H271829   4.652   3.570  11.023  0.8946 -0.3719 -2.3715
16780TIP3   OH271830   4.162   4.362  11.572  0.1835  0.0841  0.5432
16780TIP3    H171831   4.161   4.297  11.502 -2.7288 -3.1906  3.2079
16780TIP3    H271832   4.071   4.390  11.579  0.9760  2.7899  1.0317
16781TIP3   OH271833   5.179   1.734   3.585 -0.1553 -0.9245  0.4141
16781TIP3    H171834   5.259   1.758   3.538 -0.0799 -0.2467  0.8702
16781TIP3    H271835   5.111   1.731   3.518 -0.3959  1.6616  0.4475
16782TIP3   OH271836   4.580   5.936  13.658  0.4053 -0.0107  0.3709
16782TIP3    H171837   4.548   5.848  13.639  0.8326  0.1384 -1.1951
16782TIP3    H271838   4.634   5.926  13.736 -0.6411 -0.8774  1.0043
16783TIP3   OH271839   2.508   5.031   5.318  0.1168 -0.2409 -0.1047
16783TIP3    H171840   2.478   5.054   5.406 -0.3808  0.9987 -0.5757
16783TIP3    H271841   2.585   4.975   5.333  0.9778  1.1729  1.1371
16784TIP3   OH271842   2.931   5.352  14.695  0.2699  0.0303  0.1861
16784TIP3    H171843   2.962   5.331  14.606  0.9364  2.0667 -0.1285
16784TIP3    H271844   2.842   5.316  14.699  0.4449 -0.6070 -1.0960
16785TIP3   OH271845   2.496   2.064  11.658 -0.0389 -0.3692 -0.1080
16785TIP3    H171846   2.533   2.149  11.682  1.6616 -1.3855  1.0361
16785TIP3    H271847   2.407   2.085  11.629  1.2138  2.1514 -2.7028
16786TIP3   OH271848   1.885   4.858   1.869 -0.2718 -0.0960 -0.3026
16786TIP3    H171849   1.910   4.901   1.788  2.0194 -1.0048 -0.1615
16786TIP3    H271850   1.872   4.766   1.845 -0.2276 -0.2477  0.2400
16787TIP3   OH271851   1.538   1.128  15.247 -0.1362 -0.0708 -0.2681
16787TIP3    H171852   1.553   1.042  15.206 -1.1264 -0.4748  0.1754
16787TIP3    H271853   1.470   1.168  15.192 -2.8391 -1.3604  1.8865
16788TIP3   OH271854   4.909   2.097   3.078  0.4141  0.1475  0.2269
16788TIP3    H171855   4.849   2.025   3.098  0.9068 -0.1831  0.5476
16788TIP3    H271856   4.969   2.099   3.153  2.3448 -1.1410 -1.2012
16789TIP3   OH271857   6.623   0.398   2.742  0.0041  0.6099 -0.2576
16789TIP3    H171858   6.685   0.329   2.765 -0.0215  0.4636 -0.6207
16789TIP3    H271859   6.565   0.406   2.818 -0.2168 -0.0236 -0.3576
16790TIP3   OH271860   6.696   6.500  12.802 -0.6491  0.0247  0.0144
16790TIP3    H171861   6.765   6.488  12.738 -0.2851  2.9869 -0.2761
16790TIP3    H271862   6.734   6.470  12.885 -0.0294 -0.9059 -0.5937
16791TIP3   OH271863   6.045   4.297   2.114 -0.3649 -0.2349  0.5267
16791TIP3    H171864   5.960   4.253   2.115 -0.2250 -0.4923  1.7632
16791TIP3    H271865   6.056   4.323   2.022 -1.7570 -0.2173  0.3322
16792TIP3   OH271866   1.056   2.183   6.005 -0.5270  0.4092 -0.6381
16792TIP3    H171867   0.966   2.149   5.999 -0.3401 -0.1612 -0.3082
16792TIP3    H271868   1.045   2.277   6.021 -1.0691  0.2881 -0.2557
16793TIP3   OH271869   0.427   2.888   2.137  0.3041  0.1685  0.1855
16793TIP3    H171870   0.515   2.925   2.146  1.2354 -1.9916  0.5921
16793TIP3    H271871   0.391   2.889   2.226  1.1244 -1.6758  0.5672
16794TIP3   OH271872   5.670   3.394  16.982  0.0230 -0.3060  0.3520
16794TIP3    H171873   5.641   3.409  16.893  0.0501  1.4919  0.6181
16794TIP3    H271874   5.725   3.469  17.003  1.6075 -1.6438  1.2367
16795TIP3   OH271875   0.359   3.261   3.750  0.4761 -0.1757 -0.0079
16795TIP3    H171876   0.310   3.342   3.762  0.8327 -0.0185  0.4015
16795TIP3    H271877   0.359   3.247   3.655 -1.8707 -1.1210  0.0605
16796TIP3   OH271878   2.589   3.345  17.096  0.5348  0.2310 -0.2252
16796TIP3    H171879   2.627   3.433  17.097  0.6565  0.1779 -0.0666
16796TIP3    H271880   2.659   3.289  17.129 -0.2299  0.3475  1.7187
16797TIP3   OH271881   5.335   5.688   5.011  0.0405  0.6263 -0.3284
16797TIP3    H171882   5.350   5.622   5.078  0.3268 -0.1007 -1.0858
16797TIP3    H271883   5.240   5.693   5.002 -0.0290  1.2858  0.6579
16798TIP3   OH271884   5.821   0.503  13.453  0.3870 -0.0389 -0.0646
16798TIP3    H171885   5.813   0.594  13.424  1.3925  0.1813  0.3295
16798TIP3    H271886   5.851   0.456  13.376 -0.8264 -0.1866 -0.4744
16799TIP3   OH271887   4.389   1.329  13.021 -0.2714  0.1236 -0.0602
16799TIP3    H171888   4.482   1.352  13.020  0.4064 -2.3362 -0.4034
16799TIP3    H271889   4.374   1.283  12.938 -1.8570  0.6052 -0.0825
16800TIP3   OH271890   5.432   0.128   4.706  0.2134  0.0643 -0.1244
16800TIP3    H171891   5.399   0.097   4.621  0.5338 -1.3829  0.2477
16800TIP3    H271892   5.525   0.107   4.705 -0.2410 -2.5020  1.5787
16801TIP3   OH271893   3.429   6.322  14.080 -0.5413 -0.7537 -0.3367
16801TIP3    H171894   3.380   6.337  13.999  0.6031  1.0191 -0.7624
16801TIP3    H271895   3.375   6.362  14.148 -0.2796  0.1299 -0.6321
16802TIP3   OH271896   6.346   2.400   1.149  0.1643 -0.6941  0.5257
16802TIP3    H171897   6.371   2.421   1.239 -0.3784  0.2076  0.4770
16802TIP3    H271898   6.429   2.379   1.105  0.4962 -0.5554  1.0790
16803TIP3   OH271899   1.141   6.344  13.130 -0.0752 -0.5034 -0.5876
16803TIP3    H171900   1.111   6.295  13.053  0.2838 -1.2348 -0.2745
16803TIP3    H271901   1.098   6.429  13.123  0.4403 -0.3390 -1.9187
16804TIP3   OH271902   1.736   2.719  13.458 -0.0066  0.1993 -0.0251
16804TIP3    H171903   1.687   2.775  13.519  0.5695  1.9188 -1.0611
16804TIP3    H271904   1.673   2.698  13.389 -0.0785 -0.0086  0.1027
16805TIP3   OH271905   2.975   2.126   2.797 -0.5683 -0.2487 -0.1098
16805TIP3    H171906   3.028   2.065   2.849  1.2767  0.4515 -1.0669
16805TIP3    H271907   2.972   2.206   2.848  4.0755  1.6307 -2.1831
16806TIP3   OH271908   5.174   6.185   6.181 -0.4479 -0.1620 -0.3504
16806TIP3    H171909   5.183   6.090   6.191  0.4930 -0.0161  0.2997
16806TIP3    H271910   5.254   6.213   6.136 -0.4960  0.3808 -0.1147
16807TIP3   OH271911   4.462   0.731   5.881 -0.5345 -0.2985 -0.3989
16807TIP3    H171912   4.448   0.817   5.921 -4.3390 -0.8051 -0.2992
16807TIP3    H271913   4.532   0.745   5.818  0.7870  2.1943  1.4390
16808TIP3   OH271914   1.439   5.499  14.985 -0.0779 -0.0539 -0.2797
16808TIP3    H171915   1.449   5.450  14.904  0.5996 -0.3200 -0.0443
16808TIP3    H271916   1.403   5.584  14.958 -0.0835 -0.2290 -0.8228
16809TIP3   OH271917   0.847   4.587  14.447  0.4078 -0.6198  0.2274
16809TIP3    H171918   0.787   4.541  14.388 -1.0178  0.7159  0.5907
16809TIP3    H271919   0.918   4.617  14.390 -0.6951  0.2310 -0.7423
16810TIP3   OH271920   5.059   1.378   4.294 -0.4327 -0.5815 -0.1628
16810TIP3    H171921   5.125   1.407   4.357  0.9157  0.0002 -1.7754
16810TIP3    H271922   5.078   1.427   4.214 -2.0424 -1.3398 -1.0719
16811TIP3   OH271923   1.061   4.805   5.303 -0.4514 -0.2212 -0.2359
16811TIP3    H171924   1.045   4.731   5.361  3.2073 -0.0960  1.1892
16811TIP3    H271925   1.013   4.878   5.342 -0.9746 -0.9541  0.5179
16812TIP3   OH271926   3.379   0.909  16.436  0.2363 -0.0285 -0.4586
16812TIP3    H171927   3.417   0.920  16.523  0.8672 -1.2035 -0.5686
16812TIP3    H271928   3.427   0.970  16.380 -0.3952  0.9722  0.0672
16813TIP3   OH271929   0.833   0.936   3.126  0.0895  0.2825 -0.0889
16813TIP3    H171930   0.750   0.922   3.171  1.0575  1.1331  2.0799
16813TIP3    H271931   0.824   1.021   3.083 -0.2519  0.2554 -0.0716
16814TIP3   OH271932   1.966   4.121   5.316  0.3706 -0.1018  0.1206
16814TIP3    H171933   1.957   4.032   5.348 -1.1207 -0.1701 -0.4000
16814TIP3    H271934   2.011   4.113   5.232 -3.1544 -0.8791 -1.9016
16815TIP3   OH271935   2.441   0.170  12.518 -0.2725 -0.2058  0.5251
16815TIP3    H171936   2.525   0.182  12.476 -0.5118 -0.1440  0.0581
16815TIP3    H271937   2.410   0.259  12.536 -0.4670 -0.2173  0.2409
16816TIP3   OH271938   4.617   0.823   3.877  0.1016  0.1023 -0.2755
16816TIP3    H171939   4.707   0.799   3.899  0.3670  0.0909 -1.3191
16816TIP3    H271940   4.566   0.799   3.955  0.8496 -0.8198 -0.0439
16817TIP3   OH271941   5.529   1.867   1.961  0.5197 -0.2663  0.1158
16817TIP3    H171942   5.606   1.922   1.980  1.2474 -1.4584  0.7353
16817TIP3    H271943   5.550   1.782   2.000 -1.9578 -0.1052  2.0992
16818TIP3   OH271944   3.856   2.086   2.173 -0.1922  1.0032  0.2836
16818TIP3    H171945   3.862   2.134   2.090  0.7085 -0.5393 -0.6015
16818TIP3    H271946   3.808   2.144   2.231 -2.0415  1.6039 -1.7213
16819TIP3   OH271947   5.497   2.911  17.461  0.2695 -0.1929  0.3733
16819TIP3    H171948   5.462   2.864  17.385 -0.0445 -1.9701  1.5633
16819TIP3    H271949   5.479   3.004  17.442 -2.8144 -0.8014 -0.2748
16820TIP3   OH271950   0.248   4.987  16.374 -0.0585  0.4891 -0.2197
16820TIP3    H171951   0.160   4.956  16.352  0.0534 -0.5047  0.6544
16820TIP3    H271952   0.275   4.932  16.447  0.9753  1.3290  0.0554
16821TIP3   OH271953   2.098   4.819   5.857  0.2584 -0.0157 -0.4767
16821TIP3    H171954   2.139   4.905   5.869 -0.3199  0.0400  1.4434
16821TIP3    H271955   2.148   4.778   5.786  2.1004  0.9553  0.1948
16822TIP3   OH271956   6.772   5.204   2.942  0.0786 -0.5045 -0.3127
16822TIP3    H171957   6.741   5.238   3.026  0.9757 -0.0871 -0.1325
16822TIP3    H271958   6.802   5.281   2.894  0.7120 -0.8612 -0.5154
16823TIP3   OH271959   3.064   2.560   4.544  0.7413 -0.1649 -0.5366
16823TIP3    H171960   3.000   2.624   4.513  2.2388  0.5277 -2.4567
16823TIP3    H271961   3.023   2.475   4.530 -0.3059  0.3009 -0.3572
16824TIP3   OH271962   6.401   3.064   0.744  0.6820 -0.0450  0.1928
16824TIP3    H171963   6.494   3.060   0.721  0.9632  0.9894  1.0589
16824TIP3    H271964   6.380   2.976   0.775  1.0287 -0.6457 -1.1968
16825TIP3   OH271965   2.786   4.064  15.018 -0.6985 -0.1193 -0.0360
16825TIP3    H171966   2.812   4.062  14.926 -1.7715  0.1429 -0.3546
16825TIP3    H271967   2.718   4.130  15.023 -0.6620 -0.1326  0.9573
16826TIP3   OH271968   4.069   3.290   5.553 -0.3279 -0.0071 -0.2295
16826TIP3    H171969   4.151   3.267   5.510 -0.4524 -2.5134  0.7241
16826TIP3    H271970   4.096   3.315   5.642 -0.5910 -1.3887  0.2637
16827TIP3   OH271971   2.131   4.246  11.139  0.3934 -0.1290  0.3335
16827TIP3    H171972   2.160   4.163  11.102  1.1425  0.1123  0.3495
16827TIP3    H271973   2.207   4.304  11.129 -0.2868  0.7053 -0.1527
16828TIP3   OH271974   4.074   0.142  13.637 -0.0048 -0.1347  0.2524
16828TIP3    H171975   4.141   0.079  13.664  0.6937  0.9886  1.2559
16828TIP3    H271976   4.118   0.226  13.640 -1.3590  0.5927  0.5829
16829TIP3   OH271977   0.323   4.149  11.933  0.7533  0.0669  0.2150
16829TIP3    H171978   0.417   4.131  11.938  1.0177  1.6787  1.8677
16829TIP3    H271979   0.314   4.240  11.961 -1.4184 -0.4592  1.4598
16830TIP3   OH271980   3.891   5.045   0.030  0.9597  0.1556  0.3122
16830TIP3    H171981   3.904   5.121  -0.027  0.8658  0.4334  0.6568
16830TIP3    H271982   3.952   5.058   0.103  1.1101 -0.2182  0.2575
16831TIP3   OH271983   2.679   2.175   4.634 -0.0881  0.5380 -0.3691
16831TIP3    H171984   2.622   2.128   4.573 -1.2677  3.1051 -1.3854
16831TIP3    H271985   2.635   2.166   4.719  0.8241 -1.8521 -0.0626
16832TIP3   OH271986   4.313   4.928   0.214  0.2527 -0.1169 -0.4168
16832TIP3    H171987   4.248   4.961   0.275 -0.3034 -0.7090 -0.6683
16832TIP3    H271988   4.397   4.940   0.258 -0.1579 -0.7087  0.5407
16833TIP3   OH271989   1.337   1.195  15.519  0.2613 -0.3887 -0.3854
16833TIP3    H171990   1.430   1.174  15.531  0.2182 -0.0285  0.7702
16833TIP3    H271991   1.331   1.288  15.541 -0.5236 -0.6336  0.5434
16834TIP3   OH271992   1.562   1.599   1.481  0.4401  0.3302  0.4334
16834TIP3    H171993   1.480   1.559   1.511  1.0120 -0.3127  1.2024
16834TIP3    H271994   1.626   1.572   1.547  1.7507 -1.0636 -1.3114
16835TIP3   OH271995   0.474   6.243   5.162  0.4624  0.1451 -0.4398
16835TIP3    H171996   0.458   6.149   5.167 -1.6844  0.3642 -1.8698
16835TIP3    H271997   0.490   6.270   5.253 -0.8136 -1.3068  0.2575
16836TIP3   OH271998   4.243   0.948   6.170  0.2850  0.5813 -0.1995
16836TIP3    H171999   4.222   0.911   6.085  0.7985  0.0015 -0.0803
16836TIP3    H272000   4.211   0.883   6.233  0.2476  0.8269  0.0356
16837TIP3   OH272001   0.123   6.525  13.461 -0.2129 -0.4535 -0.1481
16837TIP3    H172002   0.217   6.531  13.446 -0.0662 -0.0879  0.8715
16837TIP3    H272003   0.108   6.433  13.486  0.1559 -0.1089  1.4438
16838TIP3   OH272004   4.684   0.283  13.328 -0.7472  0.7123  0.2407
16838TIP3    H172005   4.652   0.261  13.415 -0.2995  0.9212  0.4601
16838TIP3    H272006   4.756   0.222  13.312  0.4582  1.9321  0.8268
16839TIP3   OH272007   3.321   6.025   4.763  0.4331 -0.1792  0.4975
16839TIP3    H172008   3.291   6.022   4.672 -1.0446 -1.6463  0.9813
16839TIP3    H272009   3.256   6.079   4.808  0.5125 -0.4047  0.8899
16840TIP3   OH272010   2.552   4.590   5.864 -0.3242  0.3017 -0.4018
16840TIP3    H172011   2.576   4.630   5.948 -0.7069  0.1014 -0.1933
16840TIP3    H272012   2.574   4.657   5.799 -1.6264  1.1683 -0.0011
16841TIP3   OH272013   2.612   4.663   6.588  0.6281 -0.2461  0.1151
16841TIP3    H172014   2.519   4.685   6.579  0.6859 -0.3704 -0.9255
16841TIP3    H272015   2.619   4.574   6.555  1.3253  0.2306 -1.0947
16842TIP3   OH272016   5.054   0.586   3.907  0.0792  0.7426  0.0797
16842TIP3    H172017   5.098   0.560   3.826  1.9913  0.0161  1.2778
16842TIP3    H272018   5.102   0.663   3.936  1.5413 -0.8090  2.0853
16843TIP3   OH272019   5.770   5.911   0.252 -0.1177  0.2306  0.3232
16843TIP3    H172020   5.793   5.820   0.233  0.3996  0.4335 -0.0405
16843TIP3    H272021   5.823   5.935   0.328 -0.6522  0.0681  0.7578
16844TIP3   OH272022   0.656   2.592  14.724  0.4972  0.2484 -0.3623
16844TIP3    H172023   0.677   2.501  14.747 -0.6991 -0.6496 -2.4677
16844TIP3    H272024   0.575   2.610  14.772  0.5241  0.0363 -0.2349
16845TIP3   OH272025   6.491   6.073  11.920 -0.2484  0.1745 -0.1290
16845TIP3    H172026   6.398   6.095  11.916 -0.3768 -0.2075  0.6918
16845TIP3    H272027   6.535   6.157  11.935 -0.7269 -0.0018  2.8381
16846TIP3   OH272028   3.783   4.381  13.722 -0.2794 -0.1870 -0.2695
16846TIP3    H172029   3.858   4.406  13.777 -0.6123 -2.3090  1.2632
16846TIP3    H272030   3.735   4.463  13.709  1.5322  0.9644 -0.1100
16847TIP3   OH272031   5.318   6.451   1.622  0.0889  0.0981 -0.3688
16847TIP3    H172032   5.367   6.533   1.636  0.2145 -0.0813  0.3003
16847TIP3    H272033   5.262   6.469   1.547 -0.0012  0.8588 -0.1289
16848TIP3   OH272034   2.103   4.232   2.153 -0.1835 -0.7317  0.2050
16848TIP3    H172035   2.155   4.167   2.107 -1.1308 -1.2849 -0.1180
16848TIP3    H272036   2.013   4.214   2.125 -0.3529  1.6091 -1.0594
16849TIP3   OH272037   0.737   5.542  14.050 -0.4038 -0.3861  0.0826
16849TIP3    H172038   0.817   5.491  14.039 -0.6084 -0.8276  0.5856
16849TIP3    H272039   0.683   5.489  14.109 -0.2205  0.8505  1.4099
16850TIP3   OH272040   2.862   0.294  12.580 -0.3194  0.3676  0.0712
16850TIP3    H172041   2.948   0.264  12.554  0.1215  0.0309  1.7817
16850TIP3    H272042   2.876   0.385  12.608  0.0202 -0.4088  2.6325
16851TIP3   OH272043   5.220   2.284  10.821  0.3531 -0.5453 -0.1936
16851TIP3    H172044   5.161   2.218  10.785  2.0273 -2.1998 -0.0438
16851TIP3    H272045   5.277   2.308  10.749  0.4561 -0.0642  0.0423
16852TIP3   OH272046   5.817   1.612  17.026  0.5102  0.1584  0.3559
16852TIP3    H172047   5.803   1.706  17.036  2.0750  0.4659 -0.2046
16852TIP3    H272048   5.897   1.604  16.974  0.6345 -1.4891  0.7408
16853TIP3   OH272049   6.126   3.302   2.699  0.0776 -0.0100  0.4076
16853TIP3    H172050   6.106   3.395   2.690 -0.4940 -0.2376 -0.8855
16853TIP3    H272051   6.217   3.300   2.728  0.4239  0.9340 -0.5523
16854TIP3   OH272052   3.991   3.269  14.051  0.8000  0.2380  0.1635
16854TIP3    H172053   3.906   3.255  14.091  1.3460 -1.6642  0.7686
16854TIP3    H272054   4.024   3.180  14.033  2.9938  0.8876  0.7084
16855TIP3   OH272055   5.832   6.195   0.656  0.1043 -0.8067  0.7433
16855TIP3    H172056   5.838   6.288   0.678 -0.2460 -0.5416 -0.2286
16855TIP3    H272057   5.741   6.171   0.676  0.0193 -0.7744  0.4104
16856TIP3   OH272058   5.607   1.049  12.658  0.4522  0.1300  0.3793
16856TIP3    H172059   5.527   1.028  12.609 -0.5666 -1.3786  2.5388
16856TIP3    H272060   5.585   1.129  12.706  1.1265  1.0610 -0.7793
16857TIP3   OH272061   5.912   3.302  15.042 -0.0782  0.5942  0.0171
16857TIP3    H172062   5.909   3.246  14.964 -2.6535  0.1024  0.3684
16857TIP3    H272063   5.882   3.387  15.010 -0.1470  0.6670  0.2754
16858TIP3   OH272064   5.031   2.130  11.512  0.1714 -0.6971 -0.2512
16858TIP3    H172065   5.038   2.051  11.458 -1.4006 -0.4897 -0.8221
16858TIP3    H272066   4.937   2.139  11.527  0.5361 -0.7934  2.6250
16859TIP3   OH272067   3.633   4.111   4.980  0.0922  1.0767 -0.5234
16859TIP3    H172068   3.544   4.109   5.017  0.0216  1.1743 -0.6844
16859TIP3    H272069   3.625   4.169   4.904 -0.3406 -1.0127 -2.1685
16860TIP3   OH272070   1.303   5.991  14.055  0.1758 -0.3101 -0.0527
16860TIP3    H172071   1.293   5.937  14.133  0.3561 -0.3007 -0.0222
16860TIP3    H272072   1.365   6.060  14.081  1.1368 -0.9703 -0.5456
16861TIP3   OH272073   4.913   0.168  14.825 -0.5316  0.0085  0.2630
16861TIP3    H172074   4.869   0.241  14.870 -0.8893 -0.5377  0.8137
16861TIP3    H272075   4.849   0.136  14.762 -0.9690 -0.8403  1.1232
16862TIP3   OH272076   6.019   6.687  15.645  0.2705  0.5271 -0.0425
16862TIP3    H172077   6.038   6.744  15.719 -0.0686  0.4990  0.0667
16862TIP3    H272078   6.013   6.599  15.683  1.3897  0.3221 -0.2974
16863TIP3   OH272079   1.169   4.538   2.539  0.0951 -0.2351  0.3815
16863TIP3    H172080   1.217   4.489   2.473  0.7667  1.2257 -0.2549
16863TIP3    H272081   1.194   4.630   2.524  0.2332  0.1443  2.6218
16864TIP3   OH272082   2.281   6.305   6.243 -0.2644 -0.7783 -0.1498
16864TIP3    H172083   2.274   6.232   6.303  1.5829 -0.0537  1.0408
16864TIP3    H272084   2.260   6.382   6.295  2.0178 -0.0651 -0.1340
16865TIP3   OH272085   1.295   2.067  12.327  0.4558  0.1430 -0.5598
16865TIP3    H172086   1.316   2.142  12.273 -0.4705 -0.2598 -1.5174
16865TIP3    H272087   1.286   2.102  12.416 -0.7204  1.3071 -1.1132
16866TIP3   OH272088   4.769   4.928  13.782 -0.6271 -0.3877 -0.2460
16866TIP3    H172089   4.684   4.896  13.812  0.0163 -2.0923 -0.0879
16866TIP3    H272090   4.832   4.890  13.844  0.2150  1.3458  0.0098
16867TIP3   OH272091   1.070   1.668  11.831  0.3147 -1.0584  0.2489
16867TIP3    H172092   1.072   1.704  11.742 -1.0596 -0.6665  0.3610
16867TIP3    H272093   1.120   1.731  11.883  0.5283 -0.9206 -0.1189
16868TIP3   OH272094   2.023   2.503   2.762 -0.4039  0.5304 -0.0014
16868TIP3    H172095   2.103   2.470   2.721 -0.2202 -0.2990  0.9956
16868TIP3    H272096   2.038   2.598   2.769  0.1647  0.4866 -0.5031
16869TIP3   OH272097   2.223   5.597  15.175 -0.8441  0.2334  0.3053
16869TIP3    H172098   2.181   5.511  15.180 -0.3517 -0.0091  0.2784
16869TIP3    H272099   2.151   5.659  15.189 -0.9072 -0.2086  2.3684
16870TIP3   OH272100   0.963   5.474  13.017 -0.6492 -0.0671 -0.1297
16870TIP3    H172101   0.899   5.539  12.985 -0.2954 -0.4505 -1.6879
16870TIP3    H272102   1.048   5.510  12.991 -0.3495 -0.4642  0.2947
16871TIP3   OH272103   2.012   4.926  15.550  0.4246  0.1509  0.3117
16871TIP3    H172104   1.919   4.927  15.531  0.5708 -0.0173 -0.4234
16871TIP3    H272105   2.033   4.834  15.565  0.7081  0.0309 -0.7467
16872TIP3   OH272106   6.092   1.928   0.059 -0.5610 -0.1127  0.5488
16872TIP3    H172107   6.165   1.976   0.018 -0.9046 -0.2096 -0.1924
16872TIP3    H272108   6.034   1.907  -0.014 -0.6306 -1.2818  0.9200
16873TIP3   OH272109   4.572   1.904  11.667 -0.2328 -0.4115 -0.1059
16873TIP3    H172110   4.487   1.865  11.686 -0.2565 -0.4065 -0.1982
16873TIP3    H272111   4.631   1.865  11.730 -0.4862  0.3060  0.5831
16874TIP3   OH272112   1.063   2.178  11.655  0.6244 -0.1014 -0.6625
16874TIP3    H172113   0.996   2.146  11.595 -0.4304  1.1038 -0.1979
16874TIP3    H272114   1.075   2.107  11.718 -1.3959  0.2011  0.1543
16875TIP3   OH272115   3.742   4.633  15.949 -0.3125  0.3136 -0.4314
16875TIP3    H172116   3.704   4.633  15.861 -1.0306 -0.6030 -0.1368
16875TIP3    H272117   3.666   4.636  16.007  0.0729 -0.9715  0.1683
16876TIP3   OH272118   0.025   0.310  16.899  0.1601  0.5866  0.2638
16876TIP3    H172119  -0.070   0.295  16.894  0.4309 -1.0307 -1.3220
16876TIP3    H272120   0.050   0.278  16.986 -0.7648  1.3266  0.8222
16877TIP3   OH272121   1.850   3.379  11.711  0.5781 -0.1517 -0.0667
16877TIP3    H172122   1.885   3.467  11.721 -0.5639  0.2216  0.9016
16877TIP3    H272123   1.756   3.388  11.726 -0.0307 -1.0915 -2.7302
16878TIP3   OH272124   4.475   4.839  12.679  0.3473 -0.0207 -0.4427
16878TIP3    H172125   4.525   4.851  12.598  0.4145  1.0729 -0.2515
16878TIP3    H272126   4.405   4.905  12.674  0.8236  0.6069  0.7527
16879TIP3   OH272127   2.364   4.222   5.704  0.0304  0.0373  0.1240
16879TIP3    H172128   2.387   4.155   5.769 -0.7055 -1.3510 -1.0041
16879TIP3    H272129   2.274   4.246   5.726  0.4213  0.9575  0.7602
16880TIP3   OH272130   0.966   1.477  13.285  0.1134  0.0209 -0.1891
16880TIP3    H172131   0.908   1.406  13.314  0.3949 -0.0912  0.1087
16880TIP3    H272132   1.009   1.507  13.366  0.3324  0.2267 -0.3806
16881TIP3   OH272133   6.661   0.766  14.836  0.5270  0.5070  0.4275
16881TIP3    H172134   6.738   0.822  14.828  1.0890 -0.2809  0.2192
16881TIP3    H272135   6.605   0.810  14.900  2.0295  0.0923  2.1064
16882TIP3   OH272136   3.325   2.268  12.607 -0.0656 -0.0701 -0.4956
16882TIP3    H172137   3.264   2.310  12.547 -0.6735  2.2578  1.5673
16882TIP3    H272138   3.405   2.257  12.556 -0.0403  3.1946 -1.4148
16883TIP3   OH272139   3.500   5.582  12.910  0.5660  0.5852 -0.2468
16883TIP3    H172140   3.461   5.523  12.845 -0.6141 -0.9378  1.7473
16883TIP3    H272141   3.558   5.526  12.962 -0.5076  1.1738  1.6468
16884TIP3   OH272142   2.111   1.612  11.060 -0.1118 -0.4731  0.3284
16884TIP3    H172143   2.021   1.585  11.076 -0.6055  1.0733  0.3558
16884TIP3    H272144   2.142   1.554  10.990 -1.3879 -0.5198 -0.2156
16885TIP3   OH272145   1.316   0.558   1.149  0.0921  0.5392 -0.4003
16885TIP3    H172146   1.289   0.626   1.087  1.0357  0.8029 -0.5413
16885TIP3    H272147   1.347   0.486   1.093  0.3518  0.5294 -0.2469
16886TIP3   OH272148   2.950   3.292   3.223  0.0145 -0.2702  0.1829
16886TIP3    H172149   3.039   3.295   3.260 -0.7271  0.5326  1.9937
16886TIP3    H272150   2.913   3.378   3.244 -0.9513 -0.3252 -1.2192
16887TIP3   OH272151   4.655   2.517   5.605  0.5015 -0.3710 -0.1669
16887TIP3    H172152   4.654   2.422   5.598  2.2849 -0.6051  1.7257
16887TIP3    H272153   4.564   2.541   5.619 -0.0746 -1.6963 -1.3935
16888TIP3   OH272154   2.967   3.466   3.955  0.8820  0.7079 -0.3199
16888TIP3    H172155   2.928   3.553   3.952  1.3989  0.9144 -1.2403
16888TIP3    H272156   3.012   3.456   3.871  1.1719 -0.2868 -0.0649
16889TIP3   OH272157   1.091   6.392  14.768 -0.1330  0.0977  0.1339
16889TIP3    H172158   1.090   6.421  14.859 -0.4675 -1.2916  0.6101
16889TIP3    H272159   1.066   6.469  14.717 -1.3585  0.5304  1.3444
16890TIP3   OH272160   6.050   5.292   4.787  0.3328  0.3647 -0.5829
16890TIP3    H172161   5.999   5.372   4.803  1.4375  1.1820 -1.0059
16890TIP3    H272162   6.051   5.247   4.871 -1.9501 -0.2164 -0.8038
16891TIP3   OH272163   1.395   5.149  14.677  0.0094  0.0126 -0.0366
16891TIP3    H172164   1.413   5.170  14.585 -1.6632 -0.6051 -0.5306
16891TIP3    H272165   1.388   5.054  14.679  0.8298 -0.0424  0.9024
16892TIP3   OH272166   4.384   6.689   2.812 -0.0460 -0.2760 -0.0280
16892TIP3    H172167   4.427   6.692   2.726 -2.9747  1.0118 -1.6039
16892TIP3    H272168   4.320   6.761   2.809 -1.7976 -1.5994  2.3519
16893TIP3   OH272169   5.704   0.158  16.405  0.7411  0.1476 -0.1633
16893TIP3    H172170   5.778   0.119  16.451  0.8256 -2.0273 -1.9713
16893TIP3    H272171   5.735   0.246  16.381  2.9026 -0.8050 -1.1399
16894TIP3   OH272172   5.069   3.149  11.421 -0.1226  0.1538  0.2453
16894TIP3    H172173   4.982   3.157  11.381 -0.6384 -1.0629  1.0835
16894TIP3    H272174   5.055   3.168  11.514  0.3256 -0.9757  0.5538
16895TIP3   OH272175   5.845   4.222   2.902 -0.2761  0.1113  0.2539
16895TIP3    H172176   5.852   4.276   2.981 -0.3046 -0.2735  0.5243
16895TIP3    H272177   5.775   4.263   2.851  0.0799  0.6516  0.1950
16896TIP3   OH272178   1.032   2.503   0.256 -0.7529  0.0407  0.0631
16896TIP3    H172179   1.045   2.427   0.199  1.0219  1.0064 -0.9032
16896TIP3    H272180   1.056   2.578   0.201 -0.1297  1.1022  1.7298
16897TIP3   OH272181   4.565   2.983   2.096 -0.0633 -0.4787 -0.3042
16897TIP3    H172182   4.601   2.975   2.185 -1.2124 -0.3833  0.1872
16897TIP3    H272183   4.607   2.912   2.047  0.6670 -0.4691  0.2830
16898TIP3   OH272184   3.644   4.196  17.050 -0.3591  0.2007 -0.1082
16898TIP3    H172185   3.567   4.213  17.105 -0.7148  2.3612 -1.1563
16898TIP3    H272186   3.649   4.273  16.992  1.6525 -0.6576 -1.1596
16899TIP3   OH272187   6.179   2.287  11.372  0.5660 -0.2339 -0.4513
16899TIP3    H172188   6.175   2.343  11.450 -0.6661 -0.3979 -0.3779
16899TIP3    H272189   6.253   2.229  11.389 -0.5553 -1.2454  1.3114
16900TIP3   OH272190   1.486   2.838  12.590  0.7449 -0.0110  0.3994
16900TIP3    H172191   1.413   2.874  12.641  0.8362  0.4920  0.1895
16900TIP3    H272192   1.564   2.873  12.633  0.8748 -0.6921  0.7302
16901TIP3   OH272193   3.411   4.933   4.012  0.9287  0.2306  0.3964
16901TIP3    H172194   3.419   5.025   4.040  0.1976  0.8849 -1.4429
16901TIP3    H272195   3.339   4.898   4.065  1.0547  0.7818  0.9430
16902TIP3   OH272196   1.204   0.318  12.818  0.6078  0.3835  0.0644
16902TIP3    H172197   1.230   0.236  12.775 -1.5730 -0.8474  0.9479
16902TIP3    H272198   1.174   0.292  12.905 -2.0309  1.7999 -0.3121
16903TIP3   OH272199   4.330   5.189   1.121 -0.4993  0.2944 -0.0871
16903TIP3    H172200   4.266   5.249   1.161 -0.5032  0.1488  0.1284
16903TIP3    H272201   4.385   5.160   1.195 -0.2147  0.3819 -0.2628
16904TIP3   OH272202   2.577   5.755  14.427  0.2814 -0.1549  0.1925
16904TIP3    H172203   2.594   5.814  14.353 -3.8130  2.1936  0.7793
16904TIP3    H272204   2.618   5.799  14.501 -2.3219  1.9806  0.5347
16905TIP3   OH272205   0.487   3.307   6.155 -0.3371  0.1142 -0.3558
16905TIP3    H172206   0.464   3.330   6.245 -0.5049  0.0915 -0.3931
16905TIP3    H272207   0.472   3.387   6.105  0.3941  0.3267 -0.2528
16906TIP3   OH272208   1.153   6.473   1.836 -0.0633 -0.3841  0.1333
16906TIP3    H172209   1.180   6.395   1.788 -0.8235 -0.0550 -0.8690
16906TIP3    H272210   1.059   6.479   1.822 -0.8310 -1.6653  3.7852
16907TIP3   OH272211   6.090   1.992   0.868 -0.3659 -0.2604  0.9381
16907TIP3    H172212   6.120   2.063   0.811 -1.6313 -0.2632  0.2395
16907TIP3    H272213   6.128   2.012   0.953  3.3837 -1.3723 -0.2597
16908TIP3   OH272214   2.704   0.340  12.828 -0.4700  0.6127 -1.1096
16908TIP3    H172215   2.648   0.410  12.862 -0.6776  0.4890 -1.1930
16908TIP3    H272216   2.726   0.368  12.739  0.1104  0.9576 -0.8562
16909TIP3   OH272217   0.595   5.040  15.558  0.3645  0.2322 -0.1076
16909TIP3    H172218   0.606   4.966  15.499 -0.9542 -0.3394  0.3161
16909TIP3    H272219   0.611   5.117  15.504  1.4125 -0.3401 -0.6377
16910TIP3   OH272220   1.391   2.768   2.181  0.3348  0.3196 -0.5722
16910TIP3    H172221   1.338   2.836   2.139 -1.9688  0.1037  1.7399
16910TIP3    H272222   1.464   2.816   2.220 -0.2571  1.2060 -0.5184
16911TIP3   OH272223   3.370   4.491  11.009 -0.2060 -0.3440 -0.2679
16911TIP3    H172224   3.455   4.534  11.020 -0.0338 -1.0119  1.2400
16911TIP3    H272225   3.306   4.562  11.019  0.1514  0.3185 -2.2686
16912TIP3   OH272226   3.419   5.916  16.397  0.2927  0.1448  0.2601
16912TIP3    H172227   3.508   5.882  16.388 -0.0241 -0.0485 -3.6238
16912TIP3    H272228   3.364   5.851  16.353 -1.5996  1.0630  1.1378
16913TIP3   OH272229   1.114   4.321  13.785 -0.7466  0.2160 -0.9673
16913TIP3    H172230   1.196   4.272  13.773 -0.7429  0.2123 -0.9286
16913TIP3    H272231   1.047   4.253  13.791 -0.3870 -0.0352  2.3516
16914TIP3   OH272232   4.766   6.623   4.150 -0.1446  0.2762 -0.5071
16914TIP3    H172233   4.782   6.560   4.220  0.8306  0.8597 -0.1750
16914TIP3    H272234   4.852   6.640   4.113 -0.3828  1.3619 -0.6168
16915TIP3   OH272235   3.179   1.680   0.863 -0.0008  0.1224  0.3821
16915TIP3    H172236   3.240   1.744   0.829  0.8771 -0.1210  1.4460
16915TIP3    H272237   3.225   1.639   0.937 -1.6306  0.3252  1.5843
16916TIP3   OH272238   1.017   4.592   0.172  0.1156 -0.2318  0.5037
16916TIP3    H172239   1.097   4.558   0.213  0.4401 -1.3862 -1.0037
16916TIP3    H272240   1.017   4.685   0.195  0.8898 -0.5822  2.0899
16917TIP3   OH272241   2.569   2.546  13.314 -0.3678 -0.1209  0.3158
16917TIP3    H172242   2.614   2.499  13.244 -0.5502 -1.6408  1.1516
16917TIP3    H272243   2.488   2.578  13.274 -1.4040 -2.6205  0.2271
16918TIP3   OH272244   2.158   6.085   1.381  0.6018  0.0218  0.2762
16918TIP3    H172245   2.184   6.177   1.385  3.1160 -0.6022 -0.0781
16918TIP3    H272246   2.235   6.037   1.413 -0.6229 -1.9785  0.3925
16919TIP3   OH272247   5.993   1.555  14.183 -0.0956  0.2741 -0.6015
16919TIP3    H172248   6.007   1.498  14.259  0.7387  1.5116  0.2098
16919TIP3    H272249   5.958   1.636  14.220  0.8062  1.0930 -1.4713
16920TIP3   OH272250   3.720   6.162  12.706  0.0540  0.2492  0.2043
16920TIP3    H172251   3.758   6.080  12.676 -0.5777  0.1275 -0.2832
16920TIP3    H272252   3.693   6.145  12.796  0.4355  0.1023  0.2940
16921TIP3   OH272253   6.309   0.981  14.687  0.2677  0.1385 -0.2711
16921TIP3    H172254   6.266   1.060  14.720 -0.1342  0.0005 -0.4581
16921TIP3    H272255   6.383   1.013  14.636  2.0912  0.3486  2.2953
16922TIP3   OH272256   4.524   3.451   1.704 -0.2614 -0.0421  0.2430
16922TIP3    H172257   4.543   3.495   1.787  1.7032 -1.5535  0.6564
16922TIP3    H272258   4.549   3.515   1.638  3.1161 -0.5874  0.8247
16923TIP3   OH272259   1.733   4.300  17.270 -0.3148 -0.5501  0.2062
16923TIP3    H172260   1.792   4.225  17.259  0.8340 -0.0669  2.4313
16923TIP3    H272261   1.671   4.271  17.338 -0.3340  0.2434  0.5302
16924TIP3   OH272262   3.895   1.638   1.239 -0.1241  0.5344  0.4619
16924TIP3    H172263   3.912   1.675   1.152  0.2736 -0.0440  0.2896
16924TIP3    H272264   3.858   1.552   1.222  0.6910  0.0896  0.8582
16925TIP3   OH272265   3.893   4.365  12.918  0.1891  0.4354 -0.6222
16925TIP3    H172266   3.807   4.376  12.957  0.4032  0.3406 -0.1160
16925TIP3    H272267   3.884   4.400  12.829  0.3558  2.9644  0.2841
16926TIP3   OH272268   3.330   4.487   0.458 -0.3072 -0.6964 -0.3959
16926TIP3    H172269   3.409   4.489   0.404 -0.4337 -0.1277 -0.5660
16926TIP3    H272270   3.303   4.578   0.464 -0.4884 -0.7976  0.3508
16927TIP3   OH272271   0.482   6.014   0.130  0.4823  0.2416 -0.1071
16927TIP3    H172272   0.544   6.055   0.191  0.6556 -0.2227  0.0361
16927TIP3    H272273   0.504   6.051   0.045  1.0684 -0.0255 -0.0851
16928TIP3   OH272274   2.737   4.755   1.825 -0.1384  0.2301 -0.1116
16928TIP3    H172275   2.671   4.715   1.881  0.0892 -0.7555 -0.5275
16928TIP3    H272276   2.798   4.684   1.805 -1.2713 -0.0048 -3.2407
16929TIP3   OH272277   5.138   6.667  14.213  0.1027  0.4117  0.4469
16929TIP3    H172278   5.230   6.682  14.235 -0.0438  0.1721  1.2876
16929TIP3    H272279   5.122   6.577  14.241 -0.1493  0.1397 -0.5594
16930TIP3   OH272280   5.308   3.550   5.955 -0.0659 -0.6219 -0.2621
16930TIP3    H172281   5.398   3.562   5.982  0.5886  0.1811 -2.5664
16930TIP3    H272282   5.260   3.624   5.992  0.0267 -1.4200  1.5455
16931TIP3   OH272283   5.262   3.081  16.714 -0.0393 -0.1499 -0.6593
16931TIP3    H172284   5.328   3.014  16.732  1.8712  1.3386 -1.7694
16931TIP3    H272285   5.200   3.038  16.655  0.8306 -1.1055 -0.9053
16932TIP3   OH272286   5.737   0.100  17.404 -0.4071  0.0830  0.5921
16932TIP3    H172287   5.760   0.155  17.329 -1.0840 -1.3452 -0.7195
16932TIP3    H272288   5.759   0.011  17.376 -2.1723 -0.6700  1.4608
16933TIP3   OH272289   6.006   0.351   6.395 -0.1639 -0.6065  0.1304
16933TIP3    H172290   5.974   0.440   6.407  1.8391 -0.0290  1.9120
16933TIP3    H272291   5.944   0.296   6.444 -1.0185 -0.1404 -0.4058
16934TIP3   OH272292   4.725   4.049   3.651  0.9858 -0.0946  0.1784
16934TIP3    H172293   4.638   4.025   3.618  1.1942 -0.4003 -0.1509
16934TIP3    H272294   4.712   4.061   3.745  0.2995  1.1471 -0.0418
16935TIP3   OH272295   4.078   2.571  12.976  0.5463 -0.1306 -0.0054
16935TIP3    H172296   4.121   2.598  12.895  0.8847 -1.2924 -0.2281
16935TIP3    H272297   4.060   2.653  13.022 -1.9410  0.8010 -2.3560
16936TIP3   OH272298   4.602   0.800   0.525 -0.1899  0.6254  0.0506
16936TIP3    H172299   4.550   0.834   0.452 -0.9024  2.3027  1.2880
16936TIP3    H272300   4.667   0.868   0.542  1.5384 -0.7965 -0.5061
16937TIP3   OH272301   4.275   4.998   1.428 -0.4452 -0.4423  0.1415
16937TIP3    H172302   4.342   5.044   1.377 -0.9734  1.5742  1.1304
16937TIP3    H272303   4.209   4.972   1.365 -2.5630  4.5408 -0.2084
16938TIP3   OH272304   3.721   4.398   4.694  0.3748 -0.1792  0.0340
16938TIP3    H172305   3.814   4.380   4.687  0.4500 -0.0506  0.6420
16938TIP3    H272306   3.715   4.475   4.751 -0.0271  0.7702 -1.2567
16939TIP3   OH272307   5.724   4.030   5.377  0.0164 -0.1814  0.5283
16939TIP3    H172308   5.813   4.055   5.401 -0.2370  0.7450  0.5403
16939TIP3    H272309   5.668   4.084   5.433 -0.5639 -1.5191  1.2927
16940TIP3   OH272310   3.997   1.510   5.937  0.4209 -0.2079 -0.4711
16940TIP3    H172311   4.050   1.500   5.858 -0.1477 -0.6522 -0.7956
16940TIP3    H272312   3.954   1.595   5.927 -0.7990 -0.9135 -1.3316
16941TIP3   OH272313   4.197   3.689   3.835  0.4805  0.6131 -0.5347
16941TIP3    H172314   4.193   3.594   3.846  1.3125  0.6787  0.5416
16941TIP3    H272315   4.222   3.722   3.922  1.7587  1.6821 -1.2613
16942TIP3   OH272316   6.033   1.434  13.724  0.0835  0.0110  0.2035
16942TIP3    H172317   6.067   1.422  13.813 -0.4050 -1.1580  0.2646
16942TIP3    H272318   6.050   1.350  13.681  1.8163  1.0801 -1.3648
16943TIP3   OH272319   3.129   3.926  14.511 -0.4102  0.1685  0.6549
16943TIP3    H172320   3.109   3.833  14.517  0.8071 -0.3419 -1.7917
16943TIP3    H272321   3.113   3.948  14.419 -0.8680  2.4437  1.2130
16944TIP3   OH272322   3.061   4.266   5.431  0.0023 -0.5063 -0.2333
16944TIP3    H172323   2.995   4.333   5.444  1.3698  0.5109  2.0821
16944TIP3    H272324   3.095   4.282   5.343 -0.5293  1.0802 -0.1662
16945TIP3   OH272325   4.485   0.721  11.600 -0.1774  0.1566 -0.3921
16945TIP3    H172326   4.441   0.643  11.634 -0.8971  0.6483 -0.1881
16945TIP3    H272327   4.467   0.721  11.507  2.5366 -1.6872 -1.0631
16946TIP3   OH272328   1.754   5.122   0.664 -0.2574 -1.1687  0.3598
16946TIP3    H172329   1.824   5.178   0.695  0.3620 -2.3554  1.2032
16946TIP3    H272330   1.733   5.066   0.738 -1.7263 -1.2165 -0.0536
16947TIP3   OH272331   3.137   3.528   6.873  0.4984  0.4474  0.2093
16947TIP3    H172332   3.102   3.501   6.958  1.7389 -1.3040  0.2149
16947TIP3    H272333   3.072   3.589   6.838 -0.9771 -0.2961  1.5563
16948TIP3   OH272334   5.652   2.044  15.741 -0.2012 -0.0733  0.7834
16948TIP3    H172335   5.707   2.065  15.817 -1.3539 -0.7902  1.8577
16948TIP3    H272336   5.563   2.064  15.771 -0.6832 -0.4685 -0.3610
16949TIP3   OH272337   3.056   5.012   6.219  0.1701  0.0280  0.4111
16949TIP3    H172338   3.140   4.968   6.234  1.2717  0.8933 -2.4245
16949TIP3    H272339   3.059   5.089   6.275  2.3464  1.1995 -1.1478
16950TIP3   OH272340   4.276   0.201  12.846  0.2188 -0.5759  0.2216
16950TIP3    H172341   4.307   0.110  12.846 -1.5621 -1.2225  0.8614
16950TIP3    H272342   4.267   0.224  12.938 -0.7010 -0.2494  0.0637
16951TIP3   OH272343   3.196   5.096  16.019 -0.5423 -0.2240  0.3350
16951TIP3    H172344   3.102   5.095  15.997 -0.8406 -0.7195  1.5220
16951TIP3    H272345   3.198   5.112  16.114  0.7101  2.9313 -0.1091
16952TIP3   OH272346   0.521   2.512   2.465  0.4053 -0.7160 -0.4693
16952TIP3    H172347   0.482   2.441   2.516 -0.2426  0.0088  0.0568
16952TIP3    H272348   0.605   2.477   2.436 -1.1433 -2.8679 -2.8239
16953TIP3   OH272349   1.202   0.782  13.290  0.4992 -0.3612 -0.3294
16953TIP3    H172350   1.279   0.725  13.281  0.1903 -0.6269 -1.5364
16953TIP3    H272351   1.237   0.864  13.323  1.5084 -0.1241 -1.8634
16954TIP3   OH272352   5.781   3.872  11.081 -0.2946 -0.2200  0.1623
16954TIP3    H172353   5.806   3.870  11.174  0.3458 -0.3071 -0.0069
16954TIP3    H272354   5.758   3.964  11.065  1.1674  0.1522  0.0200
16955TIP3   OH272355   4.094   3.291  12.075  0.1676 -0.3458  0.3441
16955TIP3    H172356   4.010   3.264  12.114  1.5730 -2.7093  2.0373
16955TIP3    H272357   4.154   3.219  12.096  2.9474  1.7771  0.2376
16956TIP3   OH272358   3.433   3.064   5.986  0.2602 -0.5374  0.3132
16956TIP3    H172359   3.460   3.012   6.062 -0.1011 -1.8354 -0.4142
16956TIP3    H272360   3.375   3.006   5.937 -0.4758  0.7099 -0.3419
16957TIP3   OH272361   1.311   5.571   1.524  0.0548 -0.4478  0.3805
16957TIP3    H172362   1.305   5.660   1.560 -0.9468 -1.4709  2.9825
16957TIP3    H272363   1.237   5.524   1.563  0.9816 -2.6462 -0.3440
16958TIP3   OH272364   5.724   5.372   6.410 -0.2013  0.1054  0.1904
16958TIP3    H172365   5.687   5.306   6.469  0.8751 -0.2413  0.5032
16958TIP3    H272366   5.795   5.412   6.460  0.8466 -0.3092 -0.9009
16959TIP3   OH272367   1.018   0.527   5.563 -0.1454  0.1907  0.1444
16959TIP3    H172368   0.991   0.613   5.533 -1.9245  0.5097  2.3801
16959TIP3    H272369   1.070   0.491   5.491  0.5701  3.0515 -0.8739
16960TIP3   OH272370   2.189   2.886   4.012 -0.2651 -0.1256  0.2222
16960TIP3    H172371   2.240   2.966   4.023 -1.0136  0.2824  0.7621
16960TIP3    H272372   2.142   2.876   4.095 -1.4041 -0.2552 -0.4269
16961TIP3   OH272373   2.451   6.420   0.785  0.5865 -0.1990 -0.9093
16961TIP3    H172374   2.445   6.400   0.878 -1.1787  1.7818 -0.5206
16961TIP3    H272375   2.541   6.396   0.761  1.1992 -0.4223  1.3577
16962TIP3   OH272376   2.595   5.320  17.313  0.0956  0.0772 -0.1026
16962TIP3    H172377   2.688   5.339  17.304  0.2673 -1.4373 -2.3473
16962TIP3    H272378   2.555   5.362  17.237 -0.8733 -0.3521  0.1633
16963TIP3   OH272379   6.705   6.259  12.258 -0.3090 -0.2846 -0.1581
16963TIP3    H172380   6.756   6.228  12.183  1.0270  1.0541  0.1630
16963TIP3    H272381   6.767   6.264  12.330 -1.1505  0.2646  0.5566
16964TIP3   OH272382   4.836   0.826  15.849  0.0190 -0.0838  0.1074
16964TIP3    H172383   4.831   0.746  15.797 -2.0949  0.2936 -0.3399
16964TIP3    H272384   4.764   0.880  15.819  0.4640  1.3753  1.4679
16965TIP3   OH272385   5.255   1.589  16.226  0.0687  0.4799 -0.2839
16965TIP3    H172386   5.245   1.495  16.242 -1.3853  0.5158 -0.8405
16965TIP3    H272387   5.165   1.621  16.217  0.5267  1.9987  0.2702
16966TIP3   OH272388   5.963   4.378   2.681 -0.1883 -0.4856 -1.0399
16966TIP3    H172389   5.960   4.300   2.736 -1.7362 -1.0339 -1.8444
16966TIP3    H272390   5.952   4.451   2.741  1.1289 -0.8785 -0.2910
16967TIP3   OH272391   3.295   0.531   4.486  0.0051 -0.4655  0.2500
16967TIP3    H172392   3.202   0.516   4.471  0.0080 -0.5436  0.3123
16967TIP3    H272393   3.306   0.626   4.477  0.1032 -0.5648 -0.8212
16968TIP3   OH272394   3.112   1.142   5.846 -0.7717 -0.1233 -0.7328
16968TIP3    H172395   3.022   1.164   5.822 -2.2248 -1.3483  2.9367
16968TIP3    H272396   3.115   1.047   5.844  0.6022 -0.1018 -1.1052
16969TIP3   OH272397   1.330   0.427   0.795 -0.1447 -0.1222  0.0770
16969TIP3    H172398   1.401   0.473   0.839 -0.0625  0.6182 -0.7932
16969TIP3    H272399   1.374   0.373   0.730 -0.3355 -0.1700 -0.0121
16970TIP3   OH272400   4.358   1.222   0.249  0.4023 -0.0204  0.3171
16970TIP3    H172401   4.277   1.198   0.294  1.5427  0.1286  2.5902
16970TIP3    H272402   4.354   1.318   0.243  0.3328 -0.0269  0.2546
16971TIP3   OH272403   0.556   1.727  15.980 -0.3069  0.1681  0.2236
16971TIP3    H172404   0.525   1.806  16.023 -0.3088  1.2605 -1.6699
16971TIP3    H272405   0.516   1.729  15.893  0.9292 -1.0985 -0.4240
16972TIP3   OH272406   2.751   1.573   1.022 -0.2294  0.3505 -0.0545
16972TIP3    H172407   2.730   1.614   0.938 -0.0125  0.3082 -0.1303
16972TIP3    H272408   2.804   1.639   1.067 -0.4481  0.4227  0.1011
16973TIP3   OH272409   3.859   1.778   1.007 -0.0369 -0.4741 -0.1993
16973TIP3    H172410   3.779   1.830   0.997 -0.1300 -0.6193 -0.2108
16973TIP3    H272411   3.930   1.840   0.987 -0.0899 -0.0990  0.7184
16974TIP3   OH272412   5.391   1.300   2.531  0.0642 -0.4833 -0.0258
16974TIP3    H172413   5.346   1.344   2.603 -2.4413 -1.7684 -0.6715
16974TIP3    H272414   5.369   1.352   2.454  0.4403 -0.6303 -0.2318
16975TIP3   OH272415   2.218   0.625   5.994 -0.0228 -0.0961 -0.1416
16975TIP3    H172416   2.207   0.646   6.087 -0.9656  0.2213 -0.3162
16975TIP3    H272417   2.282   0.554   5.993 -0.2087 -0.2852  0.7750
16976TIP3   OH272418   5.226   4.443   1.413  0.1177  0.2248 -0.1593
16976TIP3    H172419   5.274   4.380   1.466  0.7282  0.1795 -0.7566
16976TIP3    H272420   5.290   4.512   1.394 -0.1381  0.3145 -0.7114
16977TIP3   OH272421   0.580   3.145  14.364  0.4094  0.3540  0.0483
16977TIP3    H172422   0.616   3.069  14.410 -0.6653  0.5354  1.2628
16977TIP3    H272423   0.643   3.164  14.295  1.8927 -0.1921  1.1907
16978TIP3   OH272424   3.283   5.099  10.645 -0.5847 -0.3131  0.2589
16978TIP3    H172425   3.247   5.064  10.563 -1.0211  0.9858 -0.1232
16978TIP3    H272426   3.323   5.182  10.619 -1.2689  0.4122  1.4708
16979TIP3   OH272427   5.419   6.431   0.346  0.1124  0.6787 -0.6323
16979TIP3    H172428   5.499   6.379   0.349 -0.8621 -0.8030  1.5784
16979TIP3    H272429   5.352   6.371   0.313 -0.6971  0.9776  0.4229
16980TIP3   OH272430   6.038   2.474   4.802 -0.5719 -0.6074 -0.3626
16980TIP3    H172431   6.105   2.441   4.862 -0.4456  0.6512  0.2013
16980TIP3    H272432   6.016   2.398   4.748  0.4683 -1.3435  0.2063
16981TIP3   OH272433   4.529   4.267  12.349  0.2195 -0.0436  0.4518
16981TIP3    H172434   4.434   4.274  12.347  0.2662  0.7050  0.4224
16981TIP3    H272435   4.554   4.260  12.257  0.0144 -3.5798  0.5237
16982TIP3   OH272436   3.075   3.386  16.612 -0.5560 -0.1678  0.6183
16982TIP3    H172437   3.014   3.375  16.538 -0.8066  1.2192  0.5914
16982TIP3    H272438   3.043   3.325  16.678 -0.9949 -0.6347 -0.0113
16983TIP3   OH272439   0.309   1.648  16.851 -0.2434 -0.6021  0.2037
16983TIP3    H172440   0.241   1.709  16.824 -1.5962 -1.1321  2.1338
16983TIP3    H272441   0.368   1.642  16.777 -2.2135  0.0322 -1.5000
16984TIP3   OH272442   0.952   3.739   6.217  0.0194  0.0072  0.2332
16984TIP3    H172443   0.927   3.663   6.269  2.9916 -0.2704  1.4763
16984TIP3    H272444   0.980   3.703   6.133 -1.3698  0.0971 -0.3001
16985TIP3   OH272445   6.264   1.486  14.512  0.1510  0.2620  0.0822
16985TIP3    H172446   6.308   1.407  14.541 -0.9917 -0.4829 -0.1603
16985TIP3    H272447   6.197   1.456  14.450 -0.9150  1.3085  0.6745
16986TIP3   OH272448   4.120   6.475  16.472  0.4403  0.0068 -0.2830
16986TIP3    H172449   4.197   6.483  16.528  1.0474 -1.6822 -0.8053
16986TIP3    H272450   4.124   6.551  16.414  1.6770 -0.0141 -0.2459
16987TIP3   OH272451   0.106   6.680   5.133  0.0675  0.2088  0.2560
16987TIP3    H172452   0.116   6.677   5.038 -0.6333  1.6918  0.1106
16987TIP3    H272453   0.076   6.769   5.152 -1.0455 -0.4308  1.7396
16988TIP3   OH272454   1.231   4.727   1.363  0.3666  0.1584 -0.4497
16988TIP3    H172455   1.212   4.749   1.454 -1.4815 -1.7728 -0.2855
16988TIP3    H272456   1.147   4.735   1.318  0.4994 -2.0620 -1.2317
16989TIP3   OH272457   3.254   2.886  11.270 -0.2033  0.5309  0.0725
16989TIP3    H172458   3.216   2.799  11.286 -0.4227  0.6083 -0.0164
16989TIP3    H272459   3.231   2.906  11.179  0.8002  0.2155 -0.2639
16990TIP3   OH272460   4.485   3.572   4.408 -0.0983 -0.1287  0.2504
16990TIP3    H172461   4.474   3.633   4.482 -2.4220  0.4936 -0.5056
16990TIP3    H272462   4.550   3.509   4.439  0.2220  1.0380  2.1952
16991TIP3   OH272463   2.605   6.335  12.061 -0.1653 -0.1052  0.1875
16991TIP3    H172464   2.511   6.322  12.050 -0.4009  0.0870  1.8068
16991TIP3    H272465   2.644   6.283  11.990 -1.4728 -0.0511 -0.6167
16992TIP3   OH272466   0.351   1.082  13.258 -0.0818 -0.6060  0.3731
16992TIP3    H172467   0.287   1.153  13.270  1.8999  1.0783  1.9169
16992TIP3    H272468   0.334   1.048  13.171 -1.9203  0.9480  0.0603
16993TIP3   OH272469   4.454   5.954   1.755  0.0985 -0.7616 -0.2954
16993TIP3    H172470   4.424   6.022   1.695 -0.6260 -0.8597 -0.0606
16993TIP3    H272471   4.545   5.938   1.730  0.3031  0.3340 -0.3143
16994TIP3   OH272472   0.921   0.125  15.474 -0.1332  0.0951 -0.1122
16994TIP3    H172473   0.924   0.030  15.460 -0.4947  0.1241 -0.4098
16994TIP3    H272474   1.009   0.155  15.455 -0.3428 -0.0126 -1.3152
16995TIP3   OH272475   6.727   6.706   5.543 -0.2498  0.1910 -0.3400
16995TIP3    H172476   6.756   6.721   5.633  0.1632  1.9996 -0.7458
16995TIP3    H272477   6.733   6.791   5.501  1.5920 -0.9743 -2.6771
16996TIP3   OH272478   6.029   6.720  17.047  0.0604  0.4367  0.3413
16996TIP3    H172479   6.006   6.637  17.089  0.0418  1.7332  3.1354
16996TIP3    H272480   6.106   6.751  17.095 -0.8134  2.7078  0.4352
16997TIP3   OH272481   4.218   4.576  14.462 -0.3188  0.0850  0.3043
16997TIP3    H172482   4.246   4.489  14.490 -2.2977 -0.6370  0.1598
16997TIP3    H272483   4.258   4.636  14.526  0.6092 -0.9640  0.7339
16998TIP3   OH272484   1.647   5.109  11.592  0.0693  0.0938  0.3524
16998TIP3    H172485   1.577   5.057  11.632  0.2177 -0.8338 -0.5492
16998TIP3    H272486   1.602   5.161  11.525  0.2362 -0.5357 -0.2575
16999TIP3   OH272487   0.424   5.465  16.597 -0.1812 -0.2168 -0.0012
16999TIP3    H172488   0.379   5.397  16.547 -0.8555  2.1515 -2.9068
16999TIP3    H272489   0.515   5.462  16.565 -0.3714  0.6242 -0.6626
17000TIP3   OH272490   6.066   6.643   3.509  0.3101  0.0807 -0.3734
17000TIP3    H172491   6.059   6.577   3.440 -0.8395 -1.2686  0.9408
17000TIP3    H272492   6.143   6.695   3.486  0.4319 -0.8501 -2.2004
17001TIP3   OH272493   0.492   5.571   6.006  0.3589  0.3760 -0.2746
17001TIP3    H172494   0.535   5.488   6.024 -1.7629 -0.7399  0.0113
17001TIP3    H272495   0.411   5.568   6.058 -0.8428  1.6249 -1.9453
17002TIP3   OH272496   3.047   1.509  11.914 -0.2386  0.6072  0.2450
17002TIP3    H172497   2.957   1.486  11.891 -0.3196  1.0487  0.1029
17002TIP3    H272498   3.100   1.473  11.843  0.1786 -3.1200  2.1607
17003TIP3   OH272499   3.485   2.171   6.190  0.0073 -0.2502  0.5499
17003TIP3    H172500   3.493   2.189   6.096  1.3040 -1.4903  0.3944
17003TIP3    H272501   3.543   2.234   6.232  3.1727 -2.6112  0.1227
17004TIP3   OH272502   5.441   3.580   3.613  0.5479 -0.3163 -0.9856
17004TIP3    H172503   5.347   3.593   3.625  0.2194 -2.5474 -0.6823
17004TIP3    H272504   5.480   3.612   3.694  0.2021  1.7806 -1.6087
17005TIP3   OH272505   6.509   1.660  12.438 -0.1014 -0.7595 -0.3671
17005TIP3    H172506   6.530   1.744  12.398  0.9905 -0.2553  1.1846
17005TIP3    H272507   6.573   1.599  12.402 -0.0163 -0.6204 -0.4505
17006TIP3   OH272508   5.114   2.892  12.082  0.2223  0.5797  0.4828
17006TIP3    H172509   5.124   2.857  11.994  0.6217  2.8148 -0.4326
17006TIP3    H272510   5.195   2.941  12.097  0.5640 -0.5023  2.4963
17007TIP3   OH272511   0.389   3.596   3.202  0.0131 -0.8434 -0.0101
17007TIP3    H172512   0.437   3.518   3.175 -2.0592 -2.4488  0.6585
17007TIP3    H272513   0.431   3.623   3.284  0.4287 -1.5723  0.0282
17008TIP3   OH272514   6.581   5.629  12.582  0.4155 -1.0480 -0.4760
17008TIP3    H172515   6.549   5.699  12.639 -0.4307 -1.7054 -0.1347
17008TIP3    H272516   6.671   5.614  12.611  0.7668  0.2102 -0.8631
17009TIP3   OH272517   1.800   1.865  17.473 -0.6892  0.2145  0.3602
17009TIP3    H172518   1.738   1.918  17.423  0.2759 -0.1624 -1.3129
17009TIP3    H272519   1.820   1.791  17.416  1.6225  0.5527  0.6122
17010TIP3   OH272520   4.714   5.976   4.803  0.1678 -0.1154  0.3430
17010TIP3    H172521   4.672   5.963   4.718 -0.6919  1.6946  0.4540
17010TIP3    H272522   4.759   6.060   4.795 -1.6702  1.1488  2.3248
17011TIP3   OH272523   5.379   0.332   5.277 -0.3502  0.1587  0.0633
17011TIP3    H172524   5.367   0.296   5.365 -1.2818 -0.2902 -0.2363
17011TIP3    H272525   5.310   0.291   5.225  0.2614  0.3359 -0.9053
17012TIP3   OH272526   6.429   5.730   1.207 -0.1004 -0.0994  0.1305
17012TIP3    H172527   6.509   5.687   1.175 -0.1324  0.2184 -0.3795
17012TIP3    H272528   6.365   5.718   1.137 -0.2696  0.3169  0.2104
17013TIP3   OH272529   0.418   1.286  12.811 -0.0501  0.2832  0.4949
17013TIP3    H172530   0.479   1.318  12.744  1.6141 -0.8896  1.3825
17013TIP3    H272531   0.432   1.192  12.814  0.0102  0.3045  2.5484
17014TIP3   OH272532   4.917   3.237  13.593 -0.1217  0.2792  0.7073
17014TIP3    H172533   4.849   3.171  13.602  1.6809 -1.6943  0.7057
17014TIP3    H272534   4.909   3.291  13.671 -1.5137 -0.0302  0.8023
17015TIP3   OH272535   1.201   5.308   1.024 -0.2358 -0.1678 -0.1450
17015TIP3    H172536   1.155   5.340   0.947 -1.7694  0.6641  1.0484
17015TIP3    H272537   1.155   5.228   1.049  0.1847 -0.3780 -0.0317
17016TIP3   OH272538   5.212   0.496  14.187  0.0937 -0.2294 -0.4509
17016TIP3    H172539   5.228   0.580  14.230 -0.2633 -0.1405 -0.4841
17016TIP3    H272540   5.295   0.472  14.147  0.8643 -1.0067  1.4896
17017TIP3   OH272541   2.579   0.863  16.870 -0.2196 -0.7645  0.0915
17017TIP3    H172542   2.580   0.958  16.881 -0.6240 -0.4965 -1.8843
17017TIP3    H272543   2.486   0.839  16.875 -0.1614 -0.9893  0.1076
17018TIP3   OH272544   5.893   0.981  15.632  0.3972  0.3427  0.0315
17018TIP3    H172545   5.885   1.031  15.551  1.3828 -0.7179 -0.7590
17018TIP3    H272546   5.937   1.041  15.693  2.0338  0.3307 -1.0566
17019TIP3   OH272547   3.429   0.409   0.323  0.2666 -0.0296 -0.0665
17019TIP3    H172548   3.513   0.420   0.278  0.5618  0.1992  0.5295
17019TIP3    H272549   3.433   0.322   0.362  0.6357  0.3649  0.7938
17020TIP3   OH272550   2.376   5.974   3.277  0.2301 -0.3783 -0.0407
17020TIP3    H172551   2.457   6.025   3.267 -0.6144  0.5160 -3.7673
17020TIP3    H272552   2.405   5.883   3.268  0.8701 -0.0576 -1.6821
17021TIP3   OH272553   3.149   1.470   4.397 -0.2463 -0.7338  0.4700
17021TIP3    H172554   3.090   1.468   4.472 -0.9457 -3.3384 -0.0488
17021TIP3    H272555   3.097   1.507   4.326  0.8693  3.1863  1.4641
17022TIP3   OH272556   0.630   1.434   4.734  0.1659  0.6624  1.1174
17022TIP3    H172557   0.538   1.444   4.761  0.2404  1.7992  0.9984
17022TIP3    H272558   0.680   1.481   4.802  0.5727  0.9773  0.6049
17023TIP3   OH272559   4.033   1.371  11.266  0.6528 -0.3865  0.2194
17023TIP3    H172560   4.094   1.436  11.302 -0.3804  0.9300 -0.3243
17023TIP3    H272561   4.025   1.394  11.173 -0.6262 -0.5691  0.2674
17024TIP3   OH272562   5.602   6.590  13.909 -0.1843  0.4633 -0.1884
17024TIP3    H172563   5.558   6.646  13.974 -0.9355 -0.2478 -0.0773
17024TIP3    H272564   5.532   6.536  13.873  0.5592 -0.4953 -0.2096
17025TIP3   OH272565   1.905   0.101  16.326  0.0312  0.5218 -0.1936
17025TIP3    H172566   1.948   0.160  16.264 -0.3415  0.5722 -0.4093
17025TIP3    H272567   1.814   0.096  16.295 -0.0999  0.3578  0.2088
17026TIP3   OH272568   0.231   3.850  16.891 -0.0831 -0.4154 -0.6440
17026TIP3    H172569   0.181   3.912  16.837 -2.6697 -1.1655  0.7114
17026TIP3    H272570   0.243   3.894  16.974  1.0082 -0.5037 -0.7398
17027TIP3   OH272571   0.382   1.317  13.083 -0.0843  0.3090  0.6277
17027TIP3    H172572   0.402   1.354  12.997 -0.6715  0.2032  0.4415
17027TIP3    H272573   0.427   1.233  13.085 -0.1103  0.2908  0.4057
17028TIP3   OH272574   3.475   6.500  16.053  0.0395  0.1145  0.2837
17028TIP3    H172575   3.554   6.496  16.107  1.3092 -1.2769 -1.5647
17028TIP3    H272576   3.405   6.471  16.111  1.4348 -1.8563  1.0937
17029TIP3   OH272577   4.136   2.851  15.041 -0.3398  0.0555 -0.9821
17029TIP3    H172578   4.197   2.905  14.991 -0.4382  2.4858  1.2933
17029TIP3    H272579   4.192   2.786  15.085  0.2502  0.5062 -1.0562
17030TIP3   OH272580   5.083   5.341   1.192  0.2074 -0.2363  0.1366
17030TIP3    H172581   5.137   5.420   1.189 -0.4193  0.2168  0.3329
17030TIP3    H272582   5.004   5.364   1.143 -0.0590 -0.6749  0.3489
17031TIP3   OH272583   6.407   0.142   0.035  0.2063  0.1634 -0.1111
17031TIP3    H172584   6.332   0.119  -0.018  1.3799 -1.4235 -1.1639
17031TIP3    H272585   6.387   0.108   0.122  0.0795 -1.1247 -0.6183
17032TIP3   OH272586   1.821   4.911  15.764  0.2721 -0.0778 -0.2312
17032TIP3    H172587   1.735   4.954  15.761  0.5832  0.6367  0.6819
17032TIP3    H272588   1.801   4.820  15.787 -0.2915 -0.0918 -0.7546
17033TIP3   OH272589   0.420   5.323   3.419 -0.1924  0.6218 -0.5531
17033TIP3    H172590   0.496   5.375   3.395 -0.6398  1.3271 -0.4811
17033TIP3    H272591   0.429   5.310   3.513 -1.1907  2.4796 -0.1434
17034TIP3   OH272592   0.466   6.287   0.840 -0.1128 -0.2782  0.7349
17034TIP3    H172593   0.426   6.374   0.843  1.6910  0.5831  0.9975
17034TIP3    H272594   0.483   6.271   0.747 -0.8670 -0.5690  0.6404
17035TIP3   OH272595   5.320   2.713  11.480 -0.0340  0.0257 -0.5158
17035TIP3    H172596   5.258   2.785  11.497  0.2786  0.0233  0.6947
17035TIP3    H272597   5.264   2.637  11.465 -0.3539 -0.1418  1.3232
17036TIP3   OH272598   2.275   0.453  12.863 -0.1688 -0.0368  0.0984
17036TIP3    H172599   2.184   0.462  12.833 -0.4340  0.4058  0.9740
17036TIP3    H272600   2.282   0.361  12.888 -0.2186 -0.1934 -0.4522
17037TIP3   OH272601   6.108   0.172   0.490 -0.0959  0.9267  0.6245
17037TIP3    H172602   6.017   0.175   0.518 -0.2528  0.3289  0.2041
17037TIP3    H272603   6.110   0.224   0.409 -0.1676  0.5262  0.3641
17038TIP3   OH272604   4.113   0.437   0.788 -0.1161  0.6030  0.3931
17038TIP3    H172605   4.154   0.418   0.872 -0.9960 -0.3936  0.6221
17038TIP3    H272606   4.019   0.423   0.803 -0.4025  1.4260 -0.4855
17039TIP3   OH272607   0.978   0.685   5.218  0.3889 -0.7696  0.4467
17039TIP3    H172608   0.977   0.698   5.313  0.3184 -0.7397  0.4422
17039TIP3    H272609   0.969   0.773   5.182 -0.7229 -0.8749  0.4221
17040TIP3   OH272610   5.849   3.268   4.637  0.1722 -0.2582  0.2668
17040TIP3    H172611   5.761   3.268   4.600 -0.3862  3.4339  1.1537
17040TIP3    H272612   5.867   3.176   4.657 -1.6930 -1.7601 -3.7701
17041TIP3   OH272613   6.728   0.496   5.371 -0.5845  0.6145  0.7558
17041TIP3    H172614   6.821   0.479   5.380 -0.3512  2.0378  1.3012
17041TIP3    H272615   6.695   0.497   5.461 -0.9127  1.1565  0.6349
17042TIP3   OH272616   1.519   1.824  11.456  0.6798  0.1964 -0.0299
17042TIP3    H172617   1.522   1.794  11.365 -1.2150  2.4224 -0.9266
17042TIP3    H272618   1.611   1.825  11.483  1.3482 -0.0745 -2.0754
17043TIP3   OH272619   0.822   4.897  12.538 -0.1635 -0.3473 -0.1280
17043TIP3    H172620   0.883   4.856  12.599 -1.2463 -2.1564 -0.2128
17043TIP3    H272621   0.868   4.976  12.509  0.6971  0.1749  2.4080
17044TIP3   OH272622   5.290   3.814   6.093  0.6552 -0.1407  0.4467
17044TIP3    H172623   5.269   3.906   6.078 -0.9219 -0.2047  1.9566
17044TIP3    H272624   5.320   3.811   6.184  2.5699 -0.8565 -0.1696
17045TIP3   OH272625   5.307   5.816  14.417  0.3619  0.5984  0.0648
17045TIP3    H172626   5.302   5.833  14.511 -0.2792  0.5041  0.0581
17045TIP3    H272627   5.237   5.752  14.402  1.2144 -0.2638 -0.2858
17046TIP3   OH272628   4.292   4.955  12.322 -0.3035 -0.2267 -0.2339
17046TIP3    H172629   4.305   4.873  12.369 -0.3812  0.1950  0.5424
17046TIP3    H272630   4.340   5.020  12.373  1.0878 -0.0406 -1.6891
17047TIP3   OH272631   6.067   4.132   1.345  0.0221 -0.5159 -0.7066
17047TIP3    H172632   6.056   4.081   1.265 -1.2238 -0.5907 -0.5149
17047TIP3    H272633   6.024   4.080   1.412  1.5002 -0.6947  0.1342
17048TIP3   OH272634   2.299   1.532   0.349  0.2417  0.7185 -0.1899
17048TIP3    H172635   2.381   1.511   0.305 -0.8686  1.0832 -2.6437
17048TIP3    H272636   2.234   1.475   0.308 -0.8197  0.7040  1.4159
17049TIP3   OH272637   4.622   2.732   1.986  0.2644  0.3319 -0.1674
17049TIP3    H172638   4.706   2.732   1.940 -0.4994 -0.9059 -1.6626
17049TIP3    H272639   4.587   2.644   1.972 -1.2728  0.8119  0.4395
17050TIP3   OH272640   4.141   5.246   3.241  0.7522  0.3515 -0.5741
17050TIP3    H172641   4.134   5.151   3.253  1.7243  0.3312 -0.0562
17050TIP3    H272642   4.053   5.279   3.258  0.7600 -0.3085  0.8716
17051TIP3   OH272643   5.436   4.486  14.248 -0.7636 -0.0025  0.4822
17051TIP3    H172644   5.495   4.480  14.173 -0.8429 -1.7359  0.5072
17051TIP3    H272645   5.494   4.492  14.324 -0.6831  1.6463  0.3142
17052TIP3   OH272646   3.450   6.533   4.459  0.3947  0.3144 -0.0744
17052TIP3    H172647   3.468   6.478   4.382  0.8870  0.8060 -0.3171
17052TIP3    H272648   3.507   6.609   4.448  0.2210  0.5501  0.6107
17053TIP3   OH272649   0.550   5.003   5.468 -0.6369 -0.0805  0.5189
17053TIP3    H172650   0.501   4.940   5.521 -0.6057  0.4312  1.1733
17053TIP3    H272651   0.483   5.062   5.433 -0.4579  1.2120  2.2054
17054TIP3   OH272652   6.457   3.076  12.201  0.6713 -0.1621 -0.0889
17054TIP3    H172653   6.477   3.015  12.130  0.0379 -0.1432 -0.2866
17054TIP3    H272654   6.524   3.058  12.267  1.1101 -0.3559 -0.5796
17055TIP3   OH272655   0.201   6.671  14.329  0.7093  0.5088 -0.4823
17055TIP3    H172656   0.270   6.609  14.306  1.0563  0.8380 -0.3409
17055TIP3    H272657   0.120   6.621  14.322  0.9713  0.0941 -0.5557
17056TIP3   OH272658   4.086   4.949   1.849  0.1263  0.3249 -1.2959
17056TIP3    H172659   4.083   4.854   1.862  0.7784  0.5526  0.9843
17056TIP3    H272660   4.003   4.980   1.885  1.1533  0.8383  0.7505
17057TIP3   OH272661   5.338   2.025   1.621  0.2661  0.1453  0.2613
17057TIP3    H172662   5.298   2.076   1.691 -2.8956 -1.9431  0.2245
17057TIP3    H272663   5.393   1.961   1.666  2.6251  2.1157  0.3974
17058TIP3   OH272664   4.597   4.320  13.608  0.6092  0.5951 -0.4061
17058TIP3    H172665   4.674   4.282  13.650  0.4835 -0.1663 -0.8602
17058TIP3    H272666   4.528   4.313  13.675  0.4677 -0.4169 -0.6377
17059TIP3   OH272667   2.127   6.481  13.855  0.1426 -0.0686  0.1700
17059TIP3    H172668   2.211   6.517  13.882 -0.3950 -0.4100  2.4467
17059TIP3    H272669   2.062   6.531  13.903 -0.8982 -0.7019 -0.5368
17060TIP3   OH272670   6.123   5.893   1.338  0.4675 -0.4366 -0.5177
17060TIP3    H172671   6.137   5.913   1.245  0.6580 -1.2235 -0.6692
17060TIP3    H272672   6.041   5.938   1.360  0.0458 -0.8081 -1.2604
17061TIP3   OH272673   0.704   1.875  11.296 -0.1174 -0.3934 -0.0918
17061TIP3    H172674   0.704   1.850  11.204 -1.3450  0.8291 -0.4449
17061TIP3    H272675   0.730   1.967  11.296 -0.6169 -0.2431  0.7395
17062TIP3   OH272676   1.361   5.862   2.397 -0.0196  0.2681  0.6127
17062TIP3    H172677   1.412   5.818   2.465  1.1088  1.1564  0.3631
17062TIP3    H272678   1.425   5.889   2.331 -0.8464  1.0820  0.1042
17063TIP3   OH272679   3.283   3.726   5.902  0.3383 -0.2050  0.4819
17063TIP3    H172680   3.317   3.793   5.843 -1.0240  1.3392  1.3722
17063TIP3    H272681   3.361   3.686   5.940  1.1920  0.3216 -0.6499
17064TIP3   OH272682   5.683   1.930   0.433 -0.0602  0.5315  0.0978
17064TIP3    H172683   5.718   2.012   0.467  2.4622 -0.0522 -0.8626
17064TIP3    H272684   5.685   1.941   0.338 -0.5594 -0.3102 -0.0156
17065TIP3   OH272685   6.613   4.815   2.140  0.3517  0.1007 -0.2487
17065TIP3    H172686   6.588   4.734   2.184 -1.4720  0.9556  0.3776
17065TIP3    H272687   6.580   4.885   2.197  2.6071  1.3470 -0.3300
17066TIP3   OH272688   0.739   5.592  17.127  0.3081  0.2069 -0.0254
17066TIP3    H172689   0.670   5.618  17.187  0.1812 -1.7964  0.7990
17066TIP3    H272690   0.707   5.617  17.041 -1.2676 -0.2856  0.3816
17067TIP3   OH272691   5.563   3.296   5.251  0.5248 -0.0359  0.0427
17067TIP3    H172692   5.470   3.317   5.261  0.6158  1.2323 -1.3361
17067TIP3    H272693   5.571   3.207   5.285 -1.8708 -1.5358 -2.7870
17068TIP3   OH272694   5.289   4.365  11.621  0.2877  0.1635 -0.4829
17068TIP3    H172695   5.252   4.447  11.587 -0.6254 -0.8349 -2.0352
17068TIP3    H272696   5.352   4.339  11.554  0.3447 -0.5503 -0.1521
17069TIP3   OH272697   4.225   5.344   4.450  0.0153 -0.1069 -0.0460
17069TIP3    H172698   4.232   5.351   4.355  2.2137 -0.8469  0.0228
17069TIP3    H272699   4.247   5.431   4.482 -0.8791  0.1863 -0.1877
17070TIP3   OH272700   2.623   5.124   4.084  0.0537  0.5487 -0.1914
17070TIP3    H172701   2.693   5.184   4.061 -0.1630  0.9735  0.2372
17070TIP3    H272702   2.562   5.126   4.010  0.9792 -0.5923 -1.0281
17071TIP3   OH272703   3.923   1.909   3.644 -0.0572 -0.2326 -0.3144
17071TIP3    H172704   3.977   1.833   3.665 -1.4379 -1.6524 -1.6102
17071TIP3    H272705   3.985   1.972   3.607  0.7498 -1.9695 -2.1672
17072TIP3   OH272706   2.143   1.206  15.460  0.2720 -1.0476  0.5436
17072TIP3    H172707   2.127   1.112  15.468 -1.0789 -0.7642  1.4444
17072TIP3    H272708   2.175   1.233  15.547 -1.0381 -0.3778  0.8348
17073TIP3   OH272709   2.358   1.415   6.029  0.2657 -0.9271 -0.5698
17073TIP3    H172710   2.388   1.498   6.068 -1.2389 -0.4696 -0.3297
17073TIP3    H272711   2.264   1.413   6.047  0.5480 -3.5721  1.0092
17074TIP3   OH272712   3.969   0.259   0.464 -0.4374  0.3097  0.6830
17074TIP3    H172713   3.969   0.230   0.555 -0.6496  0.2442  0.6619
17074TIP3    H272714   3.989   0.352   0.468  1.6100 -0.0799  0.6702
17075TIP3   OH272715   1.619   1.680   2.714 -0.2189  0.6632  0.2888
17075TIP3    H172716   1.695   1.682   2.772 -0.7274 -0.6854  1.0465
17075TIP3    H272717   1.591   1.771   2.707  0.2417  0.9293  1.6505
17076TIP3   OH272718   1.833   3.228  14.327  0.0961 -0.5478 -0.6250
17076TIP3    H172719   1.792   3.173  14.393 -0.2678  0.1217 -0.2748
17076TIP3    H272720   1.882   3.294  14.377  0.4071 -0.4665 -1.0271
17077TIP3   OH272721   1.370   4.498   2.813 -0.9569  0.0304 -0.3812
17077TIP3    H172722   1.457   4.460   2.823 -1.9490 -1.9310  1.8447
17077TIP3    H272723   1.312   4.423   2.804 -2.4381  1.2974 -1.9628
17078TIP3   OH272724   1.729   5.876  13.522  0.3526 -0.4839 -0.7766
17078TIP3    H172725   1.814   5.916  13.539 -0.0138  0.0581 -0.1390
17078TIP3    H272726   1.749   5.787  13.495  1.1437 -0.1913 -1.1755
17079TIP3   OH272727   2.841   3.089   3.742  0.2264 -0.1745 -0.3968
17079TIP3    H172728   2.869   3.112   3.653 -1.0411  1.4457 -0.4198
17079TIP3    H272729   2.900   3.139   3.799 -1.1736  1.5810 -0.4166
17080TIP3   OH272730   1.324   6.478   5.243 -0.2940 -0.3573  0.3339
17080TIP3    H172731   1.386   6.552   5.247  0.4366 -0.9426  0.0971
17080TIP3    H272732   1.300   6.463   5.335  1.7255 -1.5968  0.7286
17081TIP3   OH272733   2.584   5.984   2.982  0.2602  0.7199 -0.0134
17081TIP3    H172734   2.508   6.036   3.007 -0.3276 -1.2892  2.8479
17081TIP3    H272735   2.549   5.899   2.959  1.5236  0.0987  0.2575
17082TIP3   OH272736   1.938   0.515   5.065  0.8011 -0.4682  0.2197
17082TIP3    H172737   2.000   0.445   5.045 -0.6417 -1.3321 -1.4255
17082TIP3    H272738   1.988   0.595   5.050  1.3637 -1.1357 -1.7168
17083TIP3   OH272739   3.245   4.141  14.016 -0.1759  0.3084  0.9550
17083TIP3    H172740   3.268   4.052  14.043 -0.6345 -0.2245 -0.3358
17083TIP3    H272741   3.304   4.197  14.066  0.2449 -0.7210  1.6592
17084TIP3   OH272742   3.007   1.471   0.010 -0.3142 -0.1255 -0.4930
17084TIP3    H172743   2.931   1.528  -0.006 -0.8425 -0.1905  1.4895
17084TIP3    H272744   2.981   1.418   0.086  1.3090 -0.9079 -0.4535
17085TIP3   OH272745   2.428   0.909   0.124 -0.5196 -0.0153  0.3042
17085TIP3    H172746   2.414   1.003   0.134  0.0410  0.4711 -2.6394
17085TIP3    H272747   2.356   0.880   0.069 -0.3419 -1.1984  0.6774
17086TIP3   OH272748   1.260   4.006  12.468 -0.0519 -0.1662 -0.0654
17086TIP3    H172749   1.200   3.931  12.466  0.1009 -0.2757 -0.7554
17086TIP3    H272750   1.205   4.081  12.445 -0.4056  0.0959  1.5026
17087TIP3   OH272751   4.714   1.231  16.739 -0.1407  0.1959 -0.7684
17087TIP3    H172752   4.675   1.159  16.790 -0.2577  0.5019 -0.4193
17087TIP3    H272753   4.687   1.310  16.786  0.9306  0.4089 -0.5033
17088TIP3   OH272754   3.120   5.815  13.579 -0.1110  0.3700  0.2012
17088TIP3    H172755   3.054   5.855  13.522  0.6533 -1.5319 -2.1727
17088TIP3    H272756   3.071   5.751  13.631 -0.1571 -1.6735 -2.1716
17089TIP3   OH272757   4.540   0.890  13.503 -0.2407  1.0360  0.0544
17089TIP3    H172758   4.465   0.915  13.556 -1.6637 -1.8465 -0.3915
17089TIP3    H272759   4.611   0.878  13.566 -1.3146 -0.2446  1.0758
17090TIP3   OH272760   1.774   5.686   3.881 -0.2239 -0.0099 -0.2548
17090TIP3    H172761   1.792   5.727   3.966  0.3018 -0.9494  0.1070
17090TIP3    H272762   1.802   5.751   3.817  0.7025  0.1705  0.3061
17091TIP3   OH272763   2.056   6.300   0.144  0.1035  0.1858  0.1433
17091TIP3    H172764   2.123   6.272   0.082 -0.1984  0.9186 -0.5371
17091TIP3    H272765   2.058   6.396   0.139 -0.0508  0.2515  1.1402
17092TIP3   OH272766   6.290   1.242   5.519  0.2008 -0.0111  0.0005
17092TIP3    H172767   6.202   1.246   5.558  0.3193 -0.0209  0.2750
17092TIP3    H272768   6.310   1.149   5.513 -0.2863 -0.0582 -1.1722
17093TIP3   OH272769   1.945   5.924  13.239 -0.3538 -0.0578  0.2317
17093TIP3    H172770   1.904   5.910  13.325 -2.0754 -1.7989 -0.7803
17093TIP3    H272771   1.980   5.838  13.215  0.2384  0.4418 -0.7535
17094TIP3   OH272772   4.559   4.438  16.496  0.1436 -0.2919 -0.1700
17094TIP3    H172773   4.469   4.439  16.528  0.2014  2.3444  0.1251
17094TIP3    H272774   4.564   4.361  16.439 -2.3197 -0.4356 -0.2635
17095TIP3   OH272775   4.905   3.898  14.127  0.2540  0.1541 -0.2259
17095TIP3    H172776   4.857   3.947  14.194  0.6572 -0.1428  0.2843
17095TIP3    H272777   4.865   3.812  14.126  1.9793 -0.7461  1.5784
17096TIP3   OH272778   4.719   1.373  13.396 -0.6105 -0.0401 -0.0512
17096TIP3    H172779   4.702   1.449  13.340 -1.0408 -0.2010 -0.1437
17096TIP3    H272780   4.679   1.396  13.480 -1.0739 -0.3122 -0.1910
17097TIP3   OH272781   3.805   6.280   0.813 -0.1481 -0.6565 -0.0904
17097TIP3    H172782   3.726   6.332   0.826  0.3853  0.4519 -1.0307
17097TIP3    H272783   3.774   6.195   0.781 -0.9242  0.1711 -1.6122
17098TIP3   OH272784   3.591   2.346  13.020 -0.6861 -0.3201 -0.1568
17098TIP3    H172785   3.622   2.432  13.048  0.5076 -0.4998 -0.8684
17098TIP3    H272786   3.664   2.287  13.040 -0.9857 -0.9482 -0.8762
17099TIP3   OH272787   3.449   0.542  15.324  0.2058  0.3326 -0.2382
17099TIP3    H172788   3.540   0.542  15.294  0.5459  0.8648  0.7696
17099TIP3    H272789   3.407   0.472  15.273  1.3109 -0.3012 -0.3013
17100TIP3   OH272790   4.847   5.078  17.056  0.7622  0.2617 -0.1103
17100TIP3    H172791   4.802   4.994  17.066 -0.5270  0.8779 -0.5307
17100TIP3    H272792   4.917   5.061  16.993 -0.2781 -0.2236 -1.1651
17101TIP3   OH272793   2.226   2.668   5.434  0.1447  0.0005 -0.0376
17101TIP3    H172794   2.214   2.589   5.488 -0.4810 -1.5855 -2.3467
17101TIP3    H272795   2.320   2.672   5.419  0.1540 -0.4526 -0.1147
17102TIP3   OH272796   4.197   1.771   0.252  0.0149 -0.1756 -0.1430
17102TIP3    H172797   4.160   1.693   0.292 -0.5659  0.2345  0.1389
17102TIP3    H272798   4.165   1.771   0.162 -1.8555  0.8915  0.4678
17103TIP3   OH272799   4.915   0.857   3.755 -0.0949  0.6548  0.4413
17103TIP3    H172800   5.007   0.843   3.777 -0.3155 -0.5559  0.6629
17103TIP3    H272801   4.887   0.775   3.713 -1.2227  0.7722  0.9139
17104TIP3   OH272802   0.688   1.331   2.812 -0.2294  0.4115 -0.3332
17104TIP3    H172803   0.643   1.388   2.874  0.8977  0.8768  0.0949
17104TIP3    H272804   0.765   1.381   2.785  0.3844 -0.6093 -0.5349
17105TIP3   OH272805   2.008   2.455  16.103  0.5369  0.4791 -0.0757
17105TIP3    H172806   2.061   2.467  16.181  0.0219 -3.5578  1.1502
17105TIP3    H272807   2.043   2.376  16.061 -1.4438  0.4530 -1.9092
17106TIP3   OH272808   4.567   0.940  15.313  0.6807 -0.5367  0.1159
17106TIP3    H172809   4.645   0.970  15.268  0.9072 -0.2320  0.6943
17106TIP3    H272810   4.582   0.962  15.405  0.3634 -1.4114  0.3950
17107TIP3   OH272811   6.397   1.168   5.933 -0.4359 -0.0645 -0.0521
17107TIP3    H172812   6.419   1.103   5.866 -2.2681 -0.0254 -0.7277
17107TIP3    H272813   6.391   1.117   6.014 -1.6497 -0.7394 -0.5388
17108TIP3   OH272814   3.860   1.783   3.421 -0.4145 -0.3021 -0.5739
17108TIP3    H172815   3.924   1.798   3.490 -0.1909 -1.4167 -0.5217
17108TIP3    H272816   3.795   1.853   3.432  0.7928  0.8721 -0.6585
17109TIP3   OH272817   2.035   2.586   6.796  0.2748 -0.2379 -0.0914
17109TIP3    H172818   2.049   2.533   6.717  1.3783  0.7547 -0.6088
17109TIP3    H272819   1.951   2.629   6.781  0.2727 -0.3868 -0.5426
17110TIP3   OH272820   3.268   5.971   1.818 -0.8725  0.0389  0.2492
17110TIP3    H172821   3.270   5.977   1.723 -0.4517  0.3076  0.2745
17110TIP3    H272822   3.175   5.962   1.839 -1.1678  1.7995 -0.0836
17111TIP3   OH272823   3.427   5.085  13.972  0.0064 -0.1623  0.2773
17111TIP3    H172824   3.402   5.003  13.928  0.5197 -1.2200  1.8595
17111TIP3    H272825   3.488   5.127  13.912  1.0931 -1.8107  0.1565
17112TIP3   OH272826   6.138   4.681  15.658 -0.1492 -0.2333 -0.0076
17112TIP3    H172827   6.109   4.755  15.605 -0.6867 -0.2731  0.2227
17112TIP3    H272828   6.160   4.613  15.595  1.4744  0.5046 -0.2768
17113TIP3   OH272829   1.333   0.147  12.657 -0.1765  0.2697  0.0298
17113TIP3    H172830   1.394   0.177  12.590 -0.5050  1.5796  0.2713
17113TIP3    H272831   1.258   0.113  12.608 -0.0597  0.4442 -0.2748
17114TIP3   OH272832   2.497   2.149  14.108  0.5370 -0.6912 -0.2778
17114TIP3    H172833   2.552   2.071  14.102  1.1502 -0.1628 -2.1015
17114TIP3    H272834   2.525   2.204  14.035 -2.2102 -0.2574 -1.1155
17115TIP3   OH272835   3.167   6.521   0.006  0.2048 -0.3494 -0.1050
17115TIP3    H172836   3.131   6.445   0.052 -2.2306  1.3760  1.0456
17115TIP3    H272837   3.113   6.528  -0.073  0.0829  0.4606  0.0479
17116TIP3   OH272838   6.530   3.631   5.696  0.0611 -0.6035 -0.6685
17116TIP3    H172839   6.542   3.660   5.786  0.1449 -0.1763 -0.8176
17116TIP3    H272840   6.612   3.653   5.652 -0.6588  0.9201 -1.3142
17117TIP3   OH272841   6.593   6.597  11.941  0.5611 -0.0760  0.5670
17117TIP3    H172842   6.513   6.609  11.890  0.7864  0.5751  0.3457
17117TIP3    H272843   6.618   6.686  11.967  0.5780 -0.3696  1.6278
17118TIP3   OH272844   4.848   1.108   2.928 -0.3207  0.2844  0.1712
17118TIP3    H172845   4.799   1.068   2.856 -0.3999  1.0028 -0.1866
17118TIP3    H272846   4.793   1.096   3.005 -1.3237  1.5359 -0.3174
17119TIP3   OH272847   3.887   4.390   1.842 -0.3985  0.0629  0.6756
17119TIP3    H172848   3.965   4.395   1.897 -0.4479 -2.5566  1.1119
17119TIP3    H272849   3.816   4.418   1.899 -0.1283 -0.2336  1.1648
17120TIP3   OH272850   4.667   6.617  17.062 -0.1212 -0.3176 -0.3060
17120TIP3    H172851   4.586   6.652  17.101  0.9616  2.3171 -0.1727
17120TIP3    H272852   4.736   6.650  17.119  1.0987 -2.5341 -0.4041
17121TIP3   OH272853   5.940   5.368  13.538  0.0457  0.6983 -0.0885
17121TIP3    H172854   5.917   5.293  13.483  1.4069  1.1150 -1.2697
17121TIP3    H272855   5.900   5.348  13.623  1.2592 -1.9098 -0.0333
17122TIP3   OH272856   4.071   2.073   3.490 -0.3606 -0.3016 -0.5728
17122TIP3    H172857   4.086   2.167   3.500  1.7523 -0.6739  0.2992
17122TIP3    H272858   4.151   2.040   3.450 -1.1708 -1.7112 -1.0991
17123TIP3   OH272859   5.375   6.486  17.184  0.3252 -0.3015 -0.2808
17123TIP3    H172860   5.414   6.399  17.179  1.8158  0.2926  0.4064
17123TIP3    H272861   5.395   6.526  17.100 -1.5857 -1.0528 -1.1706
17124TIP3   OH272862   1.675   1.625   5.131 -0.0487 -0.3756  0.3354
17124TIP3    H172863   1.733   1.611   5.206  1.8444 -0.2088 -1.0284
17124TIP3    H272864   1.730   1.669   5.066 -0.7432 -2.9748 -2.2354
17125TIP3   OH272865   1.929   2.624  13.651  0.4601 -0.0342 -0.7046
17125TIP3    H172866   1.997   2.613  13.585 -0.4063  0.8154 -1.7712
17125TIP3    H272867   1.856   2.665  13.604 -1.1634 -1.7741  0.1577
17126TIP3   OH272868   5.047   3.929   6.432  0.3758 -0.0677 -0.1356
17126TIP3    H172869   5.116   3.882   6.479  0.3395 -0.7515 -0.7511
17126TIP3    H272870   5.090   4.008   6.400  0.8137 -0.3727 -0.3147
17127TIP3   OH272871   4.148   3.205   2.479  0.2526  0.3478  0.4216
17127TIP3    H172872   4.137   3.138   2.547 -2.0131 -0.5102 -0.6612
17127TIP3    H272873   4.077   3.267   2.496 -0.9843 -0.3905 -1.6218
17128TIP3   OH272874   4.113   1.921   5.930 -0.2189 -0.4373 -0.7480
17128TIP3    H172875   4.071   1.927   6.016 -0.7951 -1.1211 -0.9732
17128TIP3    H272876   4.070   1.989   5.878  0.0289 -0.1178 -0.5357
17129TIP3   OH272877   3.726   4.878   5.280  0.1559 -0.0191  0.3716
17129TIP3    H172878   3.753   4.816   5.212 -1.7709 -1.1235  0.5421
17129TIP3    H272879   3.748   4.835   5.362  1.3834  0.7903  0.4835
17130TIP3   OH272880   6.604   3.423  16.772 -0.1416 -0.1390  0.7779
17130TIP3    H172881   6.563   3.352  16.722  1.2263 -0.2419 -0.2478
17130TIP3    H272882   6.696   3.399  16.777  0.4679  1.7996 -0.0693
17131TIP3   OH272883   6.482   0.304  14.599  0.0931 -0.2826  0.0445
17131TIP3    H172884   6.438   0.382  14.632  3.0503  1.5970 -0.0799
17131TIP3    H272885   6.543   0.337  14.533  2.5703 -2.4440  1.0744
17132TIP3   OH272886   4.459   4.571  15.906 -0.0571  0.1917 -0.4077
17132TIP3    H172887   4.509   4.533  15.834 -0.0110 -0.4553 -0.0421
17132TIP3    H272888   4.380   4.518  15.912 -1.0770  1.5392 -1.3215
17133TIP3   OH272889   6.464   0.268   3.921  0.1191  0.6215  0.1870
17133TIP3    H172890   6.498   0.181   3.938  0.3185  0.4326 -1.1145
17133TIP3    H272891   6.538   0.316   3.884 -0.3287  0.9665 -0.2768
17134TIP3   OH272892   1.821   4.700  15.248 -0.5916  0.3673 -0.2506
17134TIP3    H172893   1.836   4.792  15.270 -0.4097  0.0293  1.1304
17134TIP3    H272894   1.773   4.665  15.322  1.4454 -1.2344  0.3980
17135TIP3   OH272895   4.672   1.957  12.166 -0.2418  0.3939  0.1631
17135TIP3    H172896   4.629   1.883  12.209  0.5491  0.4558  1.0950
17135TIP3    H272897   4.617   2.033  12.187 -1.0293  0.0934 -0.7584
17136TIP3   OH272898   5.937   1.176  15.467 -0.3576 -1.0145 -0.3140
17136TIP3    H172899   5.930   1.233  15.544 -0.5910 -0.3579 -0.8117
17136TIP3    H272900   5.857   1.194  15.417 -0.0710 -1.2193 -0.8530
17137TIP3   OH272901   2.315   0.363   3.902 -0.1864 -0.1113 -0.0564
17137TIP3    H172902   2.384   0.363   3.835 -0.6325  3.0405 -0.6513
17137TIP3    H272903   2.281   0.273   3.901  1.4637 -0.8005 -2.3301
17138TIP3   OH272904   6.263   4.057  10.899 -0.0361  0.4225 -0.4998
17138TIP3    H172905   6.171   4.037  10.917 -0.0635  0.7602 -0.2801
17138TIP3    H272906   6.277   4.025  10.809 -0.3940  0.4673 -0.5714
17139TIP3   OH272907   3.759   0.889  15.687 -0.2166  0.0468 -0.8464
17139TIP3    H172908   3.729   0.883  15.596 -0.9728 -0.3079 -0.5833
17139TIP3    H272909   3.746   0.981  15.710  2.3930  0.7562 -1.8770
17140TIP3   OH272910   1.147   0.828  16.770 -0.1512  0.5365  0.2084
17140TIP3    H172911   1.236   0.844  16.739 -0.1517 -1.0235 -0.6933
17140TIP3    H272912   1.094   0.894  16.724  0.2733  0.1608 -0.8466
17141TIP3   OH272913   3.354   5.899   0.264  0.1061  0.5469 -0.2354
17141TIP3    H172914   3.408   5.959   0.315  0.0582  2.0928 -1.8934
17141TIP3    H272915   3.416   5.848   0.212  0.0962  0.0941  0.1990
17142TIP3   OH272916   2.525   2.793   1.484  0.6730 -0.2041 -0.2541
17142TIP3    H172917   2.430   2.784   1.484  0.7549 -1.7658 -1.9772
17142TIP3    H272918   2.557   2.715   1.530  1.1386  0.5503  0.7406
17143TIP3   OH272919   3.872   4.461  11.425 -0.9032  0.3176  0.3246
17143TIP3    H172920   3.856   4.537  11.370  2.1759  1.3033  0.6446
17143TIP3    H272921   3.883   4.388  11.364 -0.7447  0.7543 -0.1655
17144TIP3   OH272922   1.220   2.593   2.958  0.1720  0.3512  0.1530
17144TIP3    H172923   1.255   2.504   2.959 -1.6250 -0.4609 -1.6412
17144TIP3    H272924   1.247   2.628   2.872  0.8166  1.5371  0.8150
17145TIP3   OH272925   4.854   2.726  15.826  0.1109 -0.8844  0.1346
17145TIP3    H172926   4.776   2.719  15.771  0.3448  0.5441 -0.4311
17145TIP3    H272927   4.921   2.677  15.779  0.6417  1.3081 -1.5736
17146TIP3   OH272928   5.695   4.888  15.186 -0.8255 -0.2491 -0.3484
17146TIP3    H172929   5.626   4.932  15.137  0.8523  1.6526 -1.1617
17146TIP3    H272930   5.724   4.952  15.251 -0.0765 -1.1332  0.2210
17147TIP3   OH272931   4.959   3.625  15.799  0.6358  0.5769 -0.4019
17147TIP3    H172932   4.929   3.647  15.710  0.7971  0.5002 -0.4771
17147TIP3    H272933   4.881   3.595  15.844  0.2815  1.8308 -0.1290
17148TIP3   OH272934   3.432   1.865   3.839  0.0440  0.1479  0.0035
17148TIP3    H172935   3.466   1.866   3.929  1.2834  1.0398 -0.4557
17148TIP3    H272936   3.485   1.799   3.794 -1.1620 -0.9380  0.1158
17149TIP3   OH272937   0.168   3.885   4.165 -0.3200  0.1931  0.2697
17149TIP3    H172938   0.218   3.908   4.087  1.5938 -0.5348  1.2186
17149TIP3    H272939   0.135   3.797   4.148 -0.3218  0.2225  0.1171
17150TIP3   OH272940   4.998   4.221   0.034  0.6483 -0.3837  1.2074
17150TIP3    H172941   5.088   4.252   0.035  0.5537 -0.1063  1.2757
17150TIP3    H272942   5.005   4.126   0.027  0.9315 -0.2333 -3.3062
17151TIP3   OH272943   2.111   6.385   0.736  0.1289  0.5100  0.3687
17151TIP3    H172944   2.188   6.329   0.737 -0.5316 -0.4286 -0.0667
17151TIP3    H272945   2.060   6.356   0.812  0.5093  1.5967  1.0692
17152TIP3   OH272946   0.355   1.290  15.993 -0.5066 -0.1877  0.1598
17152TIP3    H172947   0.414   1.253  16.059 -0.9857  1.6072  1.7047
17152TIP3    H272948   0.268   1.262  16.021 -0.7391  0.8148  0.4861
17153TIP3   OH272949   2.946   1.786  11.806 -0.0959 -0.4294 -0.1543
17153TIP3    H172950   2.854   1.780  11.831  0.0910 -0.5114  0.5442
17153TIP3    H272951   2.989   1.718  11.857  0.2137 -1.0334 -1.1943
17154TIP3   OH272952   5.487   4.954   0.159 -0.2471 -0.1590  0.2017
17154TIP3    H172953   5.562   4.947   0.100 -0.2901  2.0129 -0.2141
17154TIP3    H272954   5.515   4.910   0.239  1.1504 -0.1313 -0.2408
17155TIP3   OH272955   1.449   1.413  17.039 -0.6495 -0.5537 -0.0483
17155TIP3    H172956   1.426   1.506  17.036  0.0737 -0.3351  0.8257
17155TIP3    H272957   1.424   1.385  17.127 -0.3922 -1.0600 -0.1328
17156TIP3   OH272958   4.181   5.620  11.268 -0.3556  0.2458  0.6952
17156TIP3    H172959   4.218   5.557  11.206 -1.2842 -0.9899  1.3438
17156TIP3    H272960   4.234   5.608  11.347  0.2704  1.2001  0.4368
17157TIP3   OH272961   4.218   5.234   3.924  0.3259  0.1436  0.9368
17157TIP3    H172962   4.186   5.228   3.834 -0.0543  1.1062  0.9945
17157TIP3    H272963   4.177   5.160   3.969 -2.4805  1.6827  1.1735
17158TIP3   OH272964   2.134   4.970  13.092  0.6680  0.3417  0.3415
17158TIP3    H172965   2.121   5.059  13.060  1.4833  0.5171  0.4773
17158TIP3    H272966   2.216   4.974  13.141  1.3723 -0.7451 -0.6977
17159TIP3   OH272967   2.378   1.919  12.944  0.5474 -0.3221  0.3683
17159TIP3    H172968   2.456   1.919  12.999 -0.9006  0.6993  2.5989
17159TIP3    H272969   2.384   2.000  12.893 -0.3804  1.3530  2.7397
17160TIP3   OH272970   6.442   4.502  14.671 -0.0371 -0.3071  0.1826
17160TIP3    H172971   6.445   4.584  14.621 -0.5453 -0.2387  0.2572
17160TIP3    H272972   6.471   4.527  14.759  0.3140 -0.3126  0.0661
17161TIP3   OH272973   0.148   1.703   4.514  0.3615  0.2460 -0.2820
17161TIP3    H172974   0.216   1.648   4.554 -0.0806 -0.3590 -0.3442
17161TIP3    H272975   0.181   1.722   4.426  1.0769  1.1061  0.1650
17162TIP3   OH272976   4.912   3.676  11.846  0.1754  0.1048  0.0146
17162TIP3    H172977   4.911   3.763  11.807  0.3092  0.5430  0.9745
17162TIP3    H272978   4.892   3.617  11.773  2.0082  0.7507 -1.0861
17163TIP3   OH272979   2.948   2.734   3.024  0.2802 -0.2053 -0.0637
17163TIP3    H172980   2.962   2.813   3.076 -3.1180  0.4060  0.1290
17163TIP3    H272981   2.933   2.766   2.935  1.1393 -0.8552 -0.4573
17164TIP3   OH272982   3.393   6.173   1.535 -0.5381  0.3706  0.5364
17164TIP3    H172983   3.328   6.240   1.512 -1.3956 -1.0094 -1.3198
17164TIP3    H272984   3.356   6.092   1.501  1.8176 -0.6009  0.1259
17165TIP3   OH272985   2.131   1.113  11.708 -0.0522 -0.7504 -0.5701
17165TIP3    H172986   2.192   1.079  11.642 -1.0963  4.0225 -4.6445
17165TIP3    H272987   2.177   1.187  11.747 -0.8779 -1.2240  1.4050
17166TIP3   OH272988   1.225   0.778  14.060 -0.3104  0.4955  0.9006
17166TIP3    H172989   1.228   0.709  13.994  1.6809  0.0325  1.3924
17166TIP3    H272990   1.174   0.848  14.019  0.2395 -0.0618 -0.8517
17167TIP3   OH272991   2.989   6.234   1.487 -0.3701  0.9577 -0.6571
17167TIP3    H172992   2.938   6.271   1.559 -1.1129 -1.8560  0.3969
17167TIP3    H272993   2.966   6.288   1.411 -1.1177  2.7716  0.7772
17168TIP3   OH272994   5.485   5.761  12.251  0.3406 -0.8262 -0.4963
17168TIP3    H172995   5.567   5.745  12.298 -0.3108 -1.7874  0.3622
17168TIP3    H272996   5.465   5.853  12.268  0.3332 -1.0523  0.7901
17169TIP3   OH272997   2.639   5.874  15.715  0.1980  0.1030 -0.3953
17169TIP3    H172998   2.632   5.966  15.743 -1.4736  0.7369 -2.6202
17169TIP3    H272999   2.733   5.855  15.721  0.4387  1.5505  1.2445
17170TIP3   OH273000   6.489   6.289  14.558 -0.7400  0.3716 -0.0155
17170TIP3    H173001   6.513   6.288  14.650  1.0274 -0.3988 -0.4309
17170TIP3    H273002   6.404   6.244  14.554  0.7274 -2.8132  0.9092
17171TIP3   OH273003   1.613   6.041   0.481 -0.3412  0.4484  0.3794
17171TIP3    H173004   1.579   6.091   0.556 -0.0741 -1.2543  1.6970
17171TIP3    H273005   1.568   6.078   0.405 -3.6543 -0.3077  1.7904
17172TIP3   OH273006   2.958   4.390   3.504  0.3026 -0.1952  0.3695
17172TIP3    H173007   3.028   4.353   3.556  0.5859 -1.2056 -0.6975
17172TIP3    H273008   2.891   4.322   3.500 -0.1215  0.2197  0.1955
17173TIP3   OH273009   1.214   6.375  17.025  0.1138  0.2940 -0.4727
17173TIP3    H173010   1.290   6.401  17.077  0.6406 -1.3872 -0.3392
17173TIP3    H273011   1.204   6.444  16.959  0.3322  1.7047  0.9191
17174TIP3   OH273012   2.889   4.253  11.983 -0.0134 -0.4020 -0.0594
17174TIP3    H173013   2.798   4.272  12.006  0.5530  2.5364  0.0614
17174TIP3    H273014   2.904   4.304  11.903  0.9857 -2.4795 -1.2840
17175TIP3   OH273015   4.760   2.526   3.966  1.1624 -0.3437 -0.0702
17175TIP3    H173016   4.787   2.573   4.045 -0.0739 -0.6923  0.5980
17175TIP3    H273017   4.764   2.434   3.990  1.5497 -0.4874 -0.6816
17176TIP3   OH273018   5.339   0.690   0.784  0.3531  0.0091  0.6334
17176TIP3    H173019   5.301   0.757   0.841  2.1594 -0.1681  2.1308
17176TIP3    H273020   5.390   0.634   0.843  0.7599 -1.3296 -0.9097
17177TIP3   OH273021   4.489   5.392  15.846 -0.7108 -0.6706  0.0727
17177TIP3    H173022   4.524   5.337  15.917  0.1022 -0.5755 -0.2557
17177TIP3    H273023   4.485   5.480  15.884 -1.7499 -0.8773  0.5055
17178TIP3   OH273024   2.156   2.070  17.030  0.2583 -0.3054 -0.6327
17178TIP3    H173025   2.245   2.034  17.036 -0.2884 -1.8802 -1.2880
17178TIP3    H273026   2.118   2.054  17.116 -0.0626 -1.5940 -0.9943
17179TIP3   OH273027   4.220   1.960  17.067  0.3501 -0.3375  0.2036
17179TIP3    H173028   4.197   1.952  17.159  3.5804  0.3519  1.2210
17179TIP3    H273029   4.230   1.870  17.037 -0.6281 -0.5651  0.5299
17180TIP3   OH273030   1.124   6.640   6.875  0.1628  0.1460  0.1583
17180TIP3    H173031   1.151   6.730   6.892  2.7740 -0.5573  0.1628
17180TIP3    H273032   1.169   6.589   6.942 -1.1514 -1.2091  0.0621
17181TIP3   OH273033   0.071   1.177   6.506  0.3294 -0.0870  0.3333
17181TIP3    H173034  -0.009   1.225   6.489 -0.7791 -2.0767 -0.3871
17181TIP3    H273035   0.111   1.223   6.580 -2.8982 -0.6190  2.6221
17182TIP3   OH273036   3.171   1.488   3.349 -0.0756 -0.5647  0.7617
17182TIP3    H173037   3.137   1.576   3.334  0.6814 -0.3456  0.2697
17182TIP3    H273038   3.151   1.470   3.441 -2.8094 -1.0298  0.1805
17183TIP3   OH273039   2.959   4.577  11.465 -0.0257 -0.2286 -0.0518
17183TIP3    H173040   2.914   4.575  11.549  0.4932 -0.4453  0.2222
17183TIP3    H273041   2.987   4.487  11.449 -0.6058 -0.2985 -0.7241
17184TIP3   OH273042   2.901   2.253   6.219  0.0567  0.8199 -0.4410
17184TIP3    H173043   2.823   2.303   6.196 -0.1173  0.9010  0.2997
17184TIP3    H273044   2.876   2.162   6.206 -0.8429  0.7161  1.7177
17185TIP3   OH273045   3.375   1.657  12.339 -0.1547  0.5030  0.4732
17185TIP3    H173046   3.357   1.660  12.245 -0.1540 -1.7838  0.3357
17185TIP3    H273047   3.299   1.614  12.377  0.5661 -0.1001  1.2852
17186TIP3   OH273048   1.601   1.599  15.205 -0.3682  0.2132 -0.2433
17186TIP3    H173049   1.557   1.523  15.166  0.1910  0.3335 -1.1403
17186TIP3    H273050   1.694   1.585  15.185 -0.1798  0.7578  0.2340
17187TIP3   OH273051   4.871   4.188   5.552  0.9261  0.1859 -0.8712
17187TIP3    H173052   4.934   4.244   5.506  1.4752  1.4184  1.2658
17187TIP3    H273053   4.790   4.239   5.552  1.4369  1.0789  1.1119
17188TIP3   OH273054   2.129   3.368  16.493  0.0373 -0.0161 -0.3798
17188TIP3    H173055   2.059   3.406  16.441 -0.2323  0.0337  0.0215
17188TIP3    H273056   2.160   3.293  16.441 -1.0637 -0.7205 -0.0472
17189TIP3   OH273057   0.796   1.921  15.338  0.0951 -0.7529  0.5074
17189TIP3    H173058   0.739   1.997  15.352  0.5596 -0.1716 -0.5430
17189TIP3    H273059   0.738   1.845  15.343 -0.4308 -0.3081  1.2894
17190TIP3   OH273060   2.005   2.031   1.255  0.3060  0.0864  0.2047
17190TIP3    H173061   2.030   2.013   1.164 -0.7215  0.1466 -0.0957
17190TIP3    H273062   1.968   2.118   1.253  1.1887  0.4952  0.8784
17191TIP3   OH273063   4.238   0.750   5.169 -0.1222  0.0226 -0.1491
17191TIP3    H173064   4.242   0.739   5.074  1.8399 -1.0635  0.0046
17191TIP3    H273065   4.194   0.672   5.201  1.8053 -1.0597 -0.0064
17192TIP3   OH273066   4.268   0.354   1.871  0.2204  0.5004  0.5500
17192TIP3    H173067   4.210   0.297   1.820 -0.9631  2.5243 -0.4718
17192TIP3    H273068   4.320   0.293   1.924 -0.8756 -1.5224 -0.5643
17193TIP3   OH273069   3.080   1.042  11.740 -0.5193 -0.3201 -0.4852
17193TIP3    H173070   3.067   0.984  11.664  0.9457 -0.9545 -0.3006
17193TIP3    H273071   3.117   1.122  11.703 -0.8884 -0.1782 -0.5530
17194TIP3   OH273072   2.937   4.046   6.057  0.6892  0.6899 -0.2397
17194TIP3    H173073   2.993   3.971   6.078  1.1761  0.7659 -1.2186
17194TIP3    H273074   2.951   4.108   6.128 -0.3215 -0.4524  1.0068
17195TIP3   OH273075   5.219   1.743  16.764 -0.0006 -0.8368  0.1118
17195TIP3    H173076   5.164   1.764  16.688 -1.0983 -1.5133  0.7074
17195TIP3    H273077   5.185   1.799  16.834  1.2840  0.1030  0.0368
17196TIP3   OH273078   1.284   5.670   3.671  0.5999  0.1728 -0.0446
17196TIP3    H173079   1.194   5.678   3.641  0.5059 -1.5664 -0.3436
17196TIP3    H273080   1.337   5.700   3.597  0.2818  0.4999 -0.1393
17197TIP3   OH273081   0.969   6.181   3.532  0.4361  0.6314  0.2980
17197TIP3    H173082   0.971   6.216   3.443  1.4472  2.5871  1.0361
17197TIP3    H273083   1.020   6.244   3.584  0.0751 -0.5821  2.2167
17198TIP3   OH273084   3.978   5.767   4.896 -0.3608 -0.1073 -0.3524
17198TIP3    H173085   4.066   5.803   4.888 -0.5337  0.1575 -1.1732
17198TIP3    H273086   3.989   5.687   4.947  0.1520  0.6496  0.7696
17199TIP3   OH273087   4.205   1.234  11.761 -0.4151 -0.5707  0.5358
17199TIP3    H173088   4.298   1.253  11.748 -0.6495  1.9618  2.0226
17199TIP3    H273089   4.160   1.288  11.696 -0.9235 -0.6168  0.8410
17200TIP3   OH273090   4.770   1.934   5.166 -0.0110  0.0878 -0.3932
17200TIP3    H173091   4.791   2.012   5.217 -0.2376  0.3140 -0.6447
17200TIP3    H273092   4.854   1.907   5.128  0.7018 -1.5415  2.0771
17201TIP3   OH273093   6.588   1.423   0.341  0.0405 -0.0037 -0.3878
17201TIP3    H173094   6.569   1.512   0.313  0.6532  0.5907  0.9797
17201TIP3    H273095   6.513   1.372   0.311 -1.5784  1.4307  0.9753
17202TIP3   OH273096   3.071   4.974   0.432  0.4953  0.2563 -0.2135
17202TIP3    H173097   3.050   5.066   0.414  0.6913  0.1864 -0.8044
17202TIP3    H273098   3.162   4.976   0.463  0.0492  0.4179  1.1719
17203TIP3   OH273099   4.340   1.373   1.671 -0.2952 -0.6756 -0.1413
17203TIP3    H173100   4.265   1.331   1.629 -0.2327  0.6051 -1.6550
17203TIP3    H273101   4.312   1.388   1.761 -2.5306  1.1723 -1.0422
17204TIP3   OH273102   2.086   4.969   1.111 -0.5247 -0.5685 -0.0269
17204TIP3    H173103   2.018   4.937   1.171 -0.8424  3.3209  1.9846
17204TIP3    H273104   2.038   5.007   1.038 -0.2892 -1.3264 -0.5939
17205TIP3   OH273105   5.621   3.585   0.983 -0.1626  0.1959 -0.3653
17205TIP3    H173106   5.702   3.616   1.023  1.3464 -3.5327 -0.1244
17205TIP3    H273107   5.627   3.614   0.892  1.2300  0.3988 -0.2333
17206TIP3   OH273108   6.023   4.110  16.341  0.5534  0.4726  0.0265
17206TIP3    H173109   5.983   4.046  16.400  1.4939  1.8374  2.2557
17206TIP3    H273110   5.950   4.164  16.311 -0.4207 -2.0415 -2.6522
17207TIP3   OH273111   3.425   4.077   3.056 -0.0552  0.0123  0.3353
17207TIP3    H173112   3.421   4.149   3.119  1.4972  1.2623 -0.8979
17207TIP3    H273113   3.337   4.072   3.019  0.0305  1.9891 -0.2579
17208TIP3   OH273114   0.248   1.231   1.749 -0.2241  0.0564  0.3249
17208TIP3    H173115   0.226   1.283   1.671  0.0698  0.4832  0.5250
17208TIP3    H273116   0.256   1.142   1.716  3.0186  0.6216 -0.7762
17209TIP3   OH273117   0.056   4.489   5.401 -0.0079  0.1792  0.3163
17209TIP3    H173118   0.061   4.405   5.446  2.3425  1.3138  2.4208
17209TIP3    H273119   0.129   4.489   5.339 -1.0892  0.0358 -1.0219
17210TIP3   OH273120   0.126   6.209  17.488  0.1428  0.0380  0.1241
17210TIP3    H173121   0.090   6.125  17.518  0.3968  0.0913  0.5836
17210TIP3    H273122   0.141   6.197  17.395  0.3893 -0.5038  0.2321
17211TIP3   OH273123   4.513   4.150   4.905 -0.2030 -0.3641 -0.4212
17211TIP3    H173124   4.519   4.119   4.815  0.0514  1.0801 -0.9329
17211TIP3    H273125   4.604   4.152   4.935 -0.2714 -0.6611 -0.1886
17212TIP3   OH273126   5.774   1.957  17.317  0.7596  0.0066 -0.4833
17212TIP3    H173127   5.685   1.923  17.315  1.6219 -2.4749  0.0488
17212TIP3    H273128   5.773   2.030  17.254 -1.2186 -0.9864 -1.7187
17213TIP3   OH273129   4.975   0.750  14.482 -0.2582 -0.1918  0.4416
17213TIP3    H173130   4.933   0.835  14.473 -0.0917 -0.1816 -0.3141
17213TIP3    H273131   5.056   0.758  14.431 -0.6274 -1.0477 -0.3093
17214TIP3   OH273132   4.992   2.027  13.660  0.1994 -0.2056 -0.1565
17214TIP3    H173133   5.025   2.115  13.679  0.0314 -0.7597  3.5661
17214TIP3    H273134   5.065   1.969  13.681 -1.0967 -1.1048  2.3935
17215TIP3   OH273135   1.430   6.384   0.168  0.1246 -0.0396  0.2933
17215TIP3    H173136   1.484   6.325   0.222 -1.8201 -1.9078  0.3385
17215TIP3    H273137   1.401   6.330   0.095 -0.1030  1.4815 -0.7889
17216TIP3   OH273138   2.510   0.556  10.922  0.2459 -0.6451  0.6424
17216TIP3    H173139   2.501   0.472  10.968 -0.3205 -2.1066 -1.9486
17216TIP3    H273140   2.421   0.591  10.919  0.3492 -0.3436  0.9801
17217TIP3   OH273141   0.100   3.349   2.701  0.1420 -0.4927 -0.4585
17217TIP3    H173142   0.054   3.397   2.769  1.2252 -0.3644  0.2145
17217TIP3    H273143   0.141   3.418   2.647  1.5736 -0.6079  0.4196
17218TIP3   OH273144   5.441   4.722  11.544 -0.2827 -0.1713  0.3139
17218TIP3    H173145   5.512   4.713  11.607 -1.1119  0.2543  1.3398
17218TIP3    H273146   5.482   4.706  11.459  1.5028  2.2124  0.6345
17219TIP3   OH273147   3.148   1.919  13.118  0.0392  0.4359 -0.4411
17219TIP3    H173148   3.077   1.855  13.115 -0.1350  0.6281 -0.4445
17219TIP3    H273149   3.105   2.002  13.138  0.3320  0.4540  0.1454
17220TIP3   OH273150   1.605   2.741  16.157 -0.9014  0.4165  0.3436
17220TIP3    H173151   1.543   2.738  16.084  0.2799  0.4147 -0.6909
17220TIP3    H273152   1.619   2.650  16.181  0.2052  0.2549 -0.7765
17221TIP3   OH273153   2.759   2.258  11.222  0.0869  0.7364  0.1703
17221TIP3    H173154   2.821   2.218  11.161  0.1091  0.8573  0.1137
17221TIP3    H273155   2.813   2.283  11.298 -0.0084  0.2128  0.4154
17222TIP3   OH273156   6.526   2.764   0.985  0.3742  0.2854 -0.7924
17222TIP3    H173157   6.440   2.793   0.956 -0.0295  1.7281  1.5959
17222TIP3    H273158   6.535   2.676   0.949 -1.5603  0.5636 -2.1053
17223TIP3   OH273159   0.383   2.889  13.850 -0.1218  0.2486 -0.1340
17223TIP3    H173160   0.390   2.834  13.928  0.0675 -0.5405 -0.6901
17223TIP3    H273161   0.289   2.893  13.832 -0.1194 -0.1492 -0.2562
17224TIP3   OH273162   6.636   5.732  13.451  0.1372 -0.5895  0.3249
17224TIP3    H173163   6.574   5.672  13.409  1.3892 -1.6571 -0.0386
17224TIP3    H273164   6.589   5.815  13.455 -0.7205 -0.9561 -1.4340
17225TIP3   OH273165   1.583   0.501   3.968  0.3897 -0.7926  0.2709
17225TIP3    H173166   1.564   0.570   4.032  0.3283 -0.2438 -0.3251
17225TIP3    H273167   1.512   0.438   3.979  0.3668 -0.6922  0.7299
17226TIP3   OH273168   5.775   1.350   3.674 -0.2968  0.2358 -0.0748
17226TIP3    H173169   5.870   1.354   3.689  0.2070 -0.8483 -2.4671
17226TIP3    H273170   5.736   1.369   3.759  2.0533  1.6457  0.7790
17227TIP3   OH273171   1.237   1.751  14.145  0.8423  0.2845  0.3157
17227TIP3    H173172   1.167   1.745  14.210 -1.6972  0.1518 -2.2022
17227TIP3    H273173   1.252   1.661  14.116 -1.8881  0.6178 -2.7953
17228TIP3   OH273174   2.337   5.737   1.687 -0.2168  0.1252 -0.4517
17228TIP3    H173175   2.336   5.681   1.609 -0.0867  0.0440 -0.3957
17228TIP3    H273176   2.398   5.808   1.665 -0.7910  0.5433 -0.7280
17229TIP3   OH273177   4.805   5.619   3.948 -0.0339 -0.0645  0.8221
17229TIP3    H173178   4.820   5.697   4.001 -0.8432 -0.1559  1.2066
17229TIP3    H273179   4.735   5.572   3.993 -0.4576 -0.3577 -0.1041
17230TIP3   OH273180   1.556   4.064  15.803  0.1923 -0.3381 -0.5954
17230TIP3    H173181   1.510   4.032  15.880 -0.6120  0.2288 -0.8336
17230TIP3    H273182   1.648   4.039  15.818  0.0324 -0.2995  0.4988
17231TIP3   OH273183   0.651   0.373   0.380  0.5383  0.1677  0.1430
17231TIP3    H173184   0.567   0.348   0.341 -0.7803  2.0452  1.5337
17231TIP3    H273185   0.701   0.411   0.308 -0.2529  0.0048 -0.5055
17232TIP3   OH273186   3.408   0.705  11.982 -0.2365 -0.3539  0.4274
17232TIP3    H173187   3.341   0.774  11.978 -1.3412 -1.4424 -0.9652
17232TIP3    H273188   3.477   0.742  12.038 -1.5896  1.1563  1.2004
17233TIP3   OH273189   1.536   4.479  13.836  0.0733 -0.2969  0.0873
17233TIP3    H173190   1.448   4.514  13.821  0.4226  1.0311  0.9653
17233TIP3    H273191   1.532   4.442  13.925  0.4690  0.0345  0.2482
17234TIP3   OH273192   4.102   5.473  16.548  0.0536  0.1007 -0.7926
17234TIP3    H173193   4.117   5.454  16.455  0.9421  0.9165 -0.8329
17234TIP3    H273194   4.187   5.455  16.589  0.4534  2.2107 -0.5683
17235TIP3   OH273195   6.152   0.176  13.371  0.1852 -0.0503 -0.1429
17235TIP3    H173196   6.234   0.129  13.363 -0.6934 -2.3495  2.5850
17235TIP3    H273197   6.085   0.108  13.368 -1.4269  1.4496  0.2106
17236TIP3   OH273198   0.403   6.634  15.382 -0.1080 -0.1956 -0.3249
17236TIP3    H173199   0.354   6.679  15.313 -1.0654 -1.4269 -0.5025
17236TIP3    H273200   0.349   6.646  15.460 -0.7315 -1.5326 -0.5140
17237TIP3   OH273201   0.876   3.301   3.901 -0.3206 -0.7019  0.3171
17237TIP3    H173202   0.919   3.381   3.929 -2.6037  1.1056 -0.9947
17237TIP3    H273203   0.904   3.288   3.811  0.0744 -1.4455  0.5365
17238TIP3   OH273204   2.293   4.621   1.798  0.1900 -0.3835 -0.1881
17238TIP3    H173205   2.338   4.555   1.746 -1.0170 -0.7599 -0.7837
17238TIP3    H273206   2.269   4.576   1.879  1.6967  0.0853  0.5469
17239TIP3   OH273207   1.356   5.068  16.015  0.0117  0.1390 -0.4615
17239TIP3    H173208   1.435   5.090  15.966  0.6649  1.4278  1.1182
17239TIP3    H273209   1.387   5.036  16.100 -1.1471  1.6353  0.5807
17240TIP3   OH273210   3.283   0.520  16.002 -0.2858 -0.0455  0.6429
17240TIP3    H173211   3.305   0.445  16.057  0.7031  0.3926  0.8763
17240TIP3    H273212   3.213   0.565  16.049  0.6705  0.4263  1.6601
17241TIP3   OH273213   6.641   4.017   2.530 -0.1424 -0.2129 -0.4668
17241TIP3    H173214   6.605   3.952   2.590  0.5054 -1.4989 -1.4117
17241TIP3    H273215   6.701   4.068   2.584 -0.5162 -0.5160  0.2589
17242TIP3   OH273216   5.323   1.182  14.570 -0.3636  0.6174  0.7038
17242TIP3    H173217   5.357   1.269  14.548  0.6475 -0.4793 -2.7565
17242TIP3    H273218   5.392   1.140  14.620  0.4127  0.8657 -0.1301
17243TIP3   OH273219   5.003   0.242  11.127 -0.1999  0.2202  0.2385
17243TIP3    H173220   5.026   0.276  11.213 -1.5272  0.8524  0.3686
17243TIP3    H273221   5.045   0.157  11.122  2.5740  1.4777  0.2349
17244TIP3   OH273222   5.909   6.295   0.277 -0.2092  0.4152  0.6624
17244TIP3    H173223   5.938   6.371   0.327  0.7796 -0.6367  1.7728
17244TIP3    H273224   5.930   6.316   0.186 -0.4583  1.6702  0.8762
17245TIP3   OH273225   3.043   0.170   0.002 -0.1194  0.7731  0.0298
17245TIP3    H173226   3.079   0.192  -0.083 -1.6617  0.5071 -0.7416
17245TIP3    H273227   3.109   0.196   0.065  0.7161  1.7072 -1.2086
17246TIP3   OH273228   0.623   0.864   3.289 -0.4800  0.1463 -0.3870
17246TIP3    H173229   0.672   0.935   3.330 -1.3939  0.9296 -0.6225
17246TIP3    H273230   0.659   0.785   3.328 -0.3408  0.7945  0.8591
17247TIP3   OH273231   5.939   4.442   0.267 -0.3000  0.1425  0.1435
17247TIP3    H173232   5.892   4.381   0.324  0.1307 -0.7998 -0.4948
17247TIP3    H273233   5.899   4.429   0.181  0.0248  0.5212 -0.0657
17248TIP3   OH273234   2.344   1.476   6.342  0.0437 -0.0810  0.0759
17248TIP3    H173235   2.269   1.416   6.342  0.3507 -0.4671  0.0077
17248TIP3    H273236   2.308   1.558   6.375 -1.0529  0.5438 -2.4281
17249TIP3   OH273237   3.008   2.718  11.667  0.3210  0.2841 -0.4868
17249TIP3    H173238   2.929   2.722  11.613  0.1141  0.4197 -0.1797
17249TIP3    H273239   2.983   2.664  11.742  1.2471 -1.7439 -1.5625
17250TIP3   OH273240   2.493   4.451  12.210  0.1227  0.0734  0.1154
17250TIP3    H173241   2.519   4.435  12.300 -0.6946 -1.8095  0.0557
17250TIP3    H273242   2.399   4.468  12.214  0.2562  0.9333 -0.2822
17251TIP3   OH273243   4.478   3.526   6.688 -0.0148  0.8896 -0.0830
17251TIP3    H173244   4.550   3.471   6.659  0.2993  1.3745 -0.2352
17251TIP3    H273245   4.404   3.500   6.632 -0.2918 -0.4101  0.8322
17252TIP3   OH273246   3.581   1.788   4.124  0.0507 -0.6838 -0.0744
17252TIP3    H173247   3.648   1.739   4.172 -1.1355 -0.9185  1.4214
17252TIP3    H273248   3.498   1.754   4.158 -0.8407 -0.2736 -1.7432
17253TIP3   OH273249   5.773   1.420  14.987  0.2624  0.1917  0.7639
17253TIP3    H173250   5.720   1.428  15.066 -1.4487  1.9158 -0.4532
17253TIP3    H273251   5.784   1.510  14.956 -1.2221 -0.5251 -2.2114
17254TIP3   OH273252   5.196   6.026  12.346  0.2278  0.0832  0.4043
17254TIP3    H173253   5.190   6.121  12.356  2.4667  0.3475 -0.1815
17254TIP3    H273254   5.227   5.995  12.431 -1.2569 -0.2600  0.8523
17255TIP3   OH273255   1.846   4.935  16.409 -0.1458 -0.0396  0.2537
17255TIP3    H173256   1.857   4.864  16.345  1.2727 -0.0650  0.5001
17255TIP3    H273257   1.881   4.899  16.490  2.4432  1.5539 -0.0399
17256TIP3   OH273258   5.299   0.511  12.453 -0.1698  0.2492 -0.6155
17256TIP3    H173259   5.212   0.518  12.413 -0.9798 -0.1303  0.9911
17256TIP3    H273260   5.312   0.417  12.467 -0.4020  0.4121  0.9409
17257TIP3   OH273261   5.860   5.517   0.750 -0.1530 -0.2113 -0.0827
17257TIP3    H173262   5.791   5.583   0.747  0.5864  0.5656 -0.3239
17257TIP3    H273263   5.873   5.500   0.843 -0.1330  0.2279 -0.0004
17258TIP3   OH273264   0.903   2.692   0.392  0.2412  0.5089  0.1296
17258TIP3    H173265   0.951   2.610   0.381 -0.9743 -0.1465 -0.5024
17258TIP3    H273266   0.971   2.759   0.400  1.2528 -0.4962  0.2121
17259TIP3   OH273267   4.315   1.096   5.470  0.6303  0.0121  0.1979
17259TIP3    H173268   4.311   1.185   5.437 -0.4187 -0.1806 -0.2236
17259TIP3    H273269   4.230   1.081   5.512  0.8696 -0.7137  0.4480
17260TIP3   OH273270   4.914   3.264  16.800 -0.3051  0.6253 -0.2655
17260TIP3    H173271   4.884   3.352  16.822 -0.1095  0.3769  1.0827
17260TIP3    H273272   4.968   3.275  16.722  1.8141  2.0974  1.3230
17261TIP3   OH273273   4.405   1.854   2.446 -0.7684 -0.0718 -0.5363
17261TIP3    H173274   4.465   1.816   2.509 -0.7223  0.1963 -0.4187
17261TIP3    H273275   4.322   1.862   2.493 -0.9069 -0.4752 -0.7091
17262TIP3   OH273276   5.821   1.837   5.564 -0.0285  0.2783 -0.5621
17262TIP3    H173277   5.765   1.914   5.568 -0.4985 -0.0950  0.0990
17262TIP3    H273278   5.764   1.768   5.530 -0.4567 -0.5052  1.5867
17263TIP3   OH273279   0.452   2.628  14.899 -0.0404 -0.1853  0.5260
17263TIP3    H173280   0.429   2.595  14.986  0.5057 -0.0844  0.7146
17263TIP3    H273281   0.401   2.708  14.889 -0.0525 -0.1607  0.7815
17264TIP3   OH273282   4.378   2.062  15.556  0.4085  0.1617 -0.1996
17264TIP3    H173283   4.285   2.046  15.572  0.3961 -0.4624 -0.8371
17264TIP3    H273284   4.420   2.042  15.640  0.1684 -1.4337 -0.4348
17265TIP3   OH273285   5.302   1.661  11.660 -0.7882 -0.2835 -0.2111
17265TIP3    H173286   5.298   1.757  11.663  1.0709 -0.1885  0.7415
17265TIP3    H273287   5.270   1.638  11.573 -1.4590  1.1781 -0.3866
17266TIP3   OH273288   5.013   6.213  15.857 -0.0312 -0.3167  0.2335
17266TIP3    H173289   5.016   6.302  15.823  1.2245 -0.6568 -0.5978
17266TIP3    H273290   5.092   6.204  15.909 -0.0228 -1.0145  0.1173
17267TIP3   OH273291   0.047   1.684  15.408  0.4682  0.2525 -0.0461
17267TIP3    H173292   0.091   1.645  15.483 -0.2260  0.5713  0.5419
17267TIP3    H273293  -0.044   1.694  15.436  0.0685 -0.1535 -1.1414
17268TIP3   OH273294   0.331   0.401   2.256 -0.3909  0.5852  0.0163
17268TIP3    H173295   0.250   0.421   2.209 -1.1964  0.4476  1.3011
17268TIP3    H273296   0.370   0.328   2.207 -0.9687  0.7427 -0.6899
17269TIP3   OH273297   2.223   2.067   5.836 -0.1996  0.8367  0.4638
17269TIP3    H173298   2.233   1.975   5.862  0.5763 -0.2153 -3.0457
17269TIP3    H273299   2.129   2.078   5.823 -0.2302  0.3366  0.2403
17270TIP3   OH273300   4.185   4.350   3.424  0.7296 -0.2030  0.0920
17270TIP3    H173301   4.155   4.439   3.443 -0.1106 -0.7963  1.6459
17270TIP3    H273302   4.138   4.294   3.485  0.2340 -1.9077 -1.7469
17271TIP3   OH273303   4.903   6.767  10.844  0.2264 -0.4066  0.1327
17271TIP3    H173304   4.849   6.840  10.872 -2.8638 -2.0502 -1.0667
17271TIP3    H273305   4.955   6.801  10.771 -0.9497  0.6328 -0.2423
17272TIP3   OH273306   1.191   2.699   0.009 -0.1240  0.0382  0.2154
17272TIP3    H173307   1.264   2.653  -0.033  0.2369  0.7577  0.0429
17272TIP3    H273308   1.114   2.672  -0.041  0.2344  0.4838 -0.6027
17273TIP3   OH273309   2.700   2.024   0.520  0.3360  0.2739  0.0520
17273TIP3    H173310   2.699   2.022   0.616 -0.1373  2.5441  0.1634
17273TIP3    H273311   2.636   2.091   0.497 -1.1372 -1.7089 -1.9905
17274TIP3   OH273312   2.329   5.050   5.583 -0.2967 -0.6448  0.6940
17274TIP3    H173313   2.264   5.072   5.517 -2.4631 -0.6531  2.7210
17274TIP3    H273314   2.378   5.131   5.596 -0.0845 -0.5414 -0.5844
17275TIP3   OH273315   2.465   2.000   1.370 -0.9190 -0.0422  0.5439
17275TIP3    H173316   2.478   1.939   1.442 -0.7926  0.1649  0.6958
17275TIP3    H273317   2.411   1.951   1.307 -1.9959  0.1640  1.2811
17276TIP3   OH273318   4.719   2.322   3.054 -0.5270 -0.3438 -0.0517
17276TIP3    H173319   4.763   2.385   3.111 -1.9612  0.4296  0.2515
17276TIP3    H273320   4.787   2.259   3.030  0.0945 -0.7581  2.5716
17277TIP3   OH273321   4.655   6.215  13.452 -0.2052 -0.0444  0.5440
17277TIP3    H173322   4.598   6.148  13.415 -1.1197  1.2130 -0.4031
17277TIP3    H273323   4.738   6.205  13.405 -0.7029  0.2128 -0.4068
17278TIP3   OH273324   1.724   2.633   1.240  0.0072  0.2416  0.0691
17278TIP3    H173325   1.813   2.647   1.272 -0.2944  0.0780  1.0235
17278TIP3    H273326   1.682   2.580   1.308 -0.7932  0.2330 -0.4121
17279TIP3   OH273327   5.153   0.207   6.098 -0.0533 -0.3650  0.1099
17279TIP3    H173328   5.126   0.174   6.012 -3.3341  0.1353  0.8303
17279TIP3    H273329   5.155   0.130   6.154  0.9192 -0.5091 -0.0920
17280TIP3   OH273330   2.145   3.705  12.235 -0.2269  0.3021 -0.3869
17280TIP3    H173331   2.176   3.634  12.292  0.8179  0.4371 -0.7798
17280TIP3    H273332   2.219   3.765  12.228 -1.3466  1.8795  0.6020
17281TIP3   OH273333   0.583   3.146   0.943 -0.4662 -0.0171 -0.5790
17281TIP3    H173334   0.491   3.125   0.925 -0.4606 -0.2216 -0.3849
17281TIP3    H273335   0.629   3.062   0.933 -0.2711  0.1229 -0.8571
17282TIP3   OH273336   0.506   3.140  13.638 -0.6431  0.0245 -0.5850
17282TIP3    H173337   0.466   3.159  13.722 -0.8343 -2.6301  0.0250
17282TIP3    H273338   0.600   3.135  13.656 -0.6094  0.2750 -0.6961
17283TIP3   OH273339   4.044   1.644  17.321 -0.4436  0.0596 -0.3256
17283TIP3    H173340   4.005   1.594  17.392 -2.2398  0.6541 -0.8330
17283TIP3    H273341   4.089   1.579  17.267 -0.7978 -0.6666  0.2358
17284TIP3   OH273342   2.724   1.351   3.797  0.0358 -0.0032  0.6158
17284TIP3    H173343   2.819   1.339   3.797  0.2190  1.2255 -0.0336
17284TIP3    H273344   2.713   1.446   3.802 -1.1254 -0.0030 -1.2241
17285TIP3   OH273345   1.669   4.895   2.298 -0.0365  0.5799  0.2704
17285TIP3    H173346   1.732   4.911   2.227  0.2830  0.3082  0.4885
17285TIP3    H273347   1.630   4.810   2.276 -0.9924  1.1670 -0.3480
17286TIP3   OH273348   0.193   5.365   2.237 -0.0967 -0.2536  0.3327
17286TIP3    H173349   0.107   5.406   2.228 -0.7254 -1.6000 -0.0097
17286TIP3    H273350   0.188   5.315   2.318  0.8062  0.6302  0.9655
17287TIP3   OH273351   2.227   4.648  15.111 -0.2900  0.1280 -0.0066
17287TIP3    H173352   2.182   4.570  15.143 -0.1782  0.2648  0.4918
17287TIP3    H273353   2.157   4.711  15.094 -0.3858 -0.0973 -0.4713
17288TIP3   OH273354   1.219   5.118  15.267  0.1251  0.0390  0.2469
17288TIP3    H173355   1.215   5.163  15.351  1.0823 -0.6351  0.6537
17288TIP3    H273356   1.266   5.179  15.210 -1.2833  0.8849 -0.0823
17289TIP3   OH273357   1.367   2.763   2.789 -0.4960  0.0505  0.4428
17289TIP3    H173358   1.390   2.792   2.700 -1.6669 -1.4494 -0.3885
17289TIP3    H273359   1.446   2.718   2.820 -0.0788  0.5730  0.1632
17290TIP3   OH273360   1.916   1.263  14.874 -0.5664  0.1224 -0.2860
17290TIP3    H173361   1.882   1.353  14.874 -1.5466 -0.1955 -2.4494
17290TIP3    H273362   1.865   1.218  14.808  1.6491 -1.3625 -1.0868
17291TIP3   OH273363   6.730   3.553  14.190  0.3521  0.1459 -0.0549
17291TIP3    H173364   6.723   3.629  14.132 -1.8961  0.7707  0.9412
17291TIP3    H273365   6.649   3.553  14.240  1.5475 -1.2373  2.0457
17292TIP3   OH273366   1.931   5.081  11.661  0.6736 -0.3830 -0.0132
17292TIP3    H173367   1.932   4.985  11.672  0.4449 -0.6015 -1.6764
17292TIP3    H273368   1.842   5.101  11.633  0.8128  0.2787  0.0093
17293TIP3   OH273369   3.661   2.843   4.635  0.2665  0.1605 -0.0590
17293TIP3    H173370   3.577   2.887   4.649  0.6511  1.1900 -0.8610
17293TIP3    H273371   3.637   2.758   4.598 -0.4077  1.2958 -2.4556
17294TIP3   OH273372   4.474   1.633   1.001  0.0657 -0.3722  0.3574
17294TIP3    H173373   4.528   1.620   0.923  0.5555  1.7815  0.2880
17294TIP3    H273374   4.402   1.689   0.972 -2.0194 -2.7314  0.5878
17295TIP3   OH273375   3.028   5.406   4.572  0.2285  0.3671 -0.9748
17295TIP3    H173376   3.021   5.311   4.575 -1.2765  0.4408 -1.4254
17295TIP3    H273377   3.078   5.429   4.651 -0.7556 -0.6756 -0.0176
17296TIP3   OH273378   1.884   3.813  15.659  0.5208  0.2449 -0.1201
17296TIP3    H173379   1.876   3.881  15.725  0.6747  0.3609 -0.2204
17296TIP3    H273380   1.913   3.859  15.580 -0.0778  0.1702 -0.3853
17297TIP3   OH273381   6.077   1.498   5.075 -0.2105 -0.5445 -0.1966
17297TIP3    H173382   5.988   1.477   5.101 -0.5389  0.0882 -0.7545
17297TIP3    H273383   6.072   1.590   5.046  0.4292 -0.7674 -1.0630
17298TIP3   OH273384   1.931   3.606  12.696  0.2585  0.1466 -0.4669
17298TIP3    H173385   1.864   3.552  12.654 -0.2347 -0.7350  1.3444
17298TIP3    H273386   1.993   3.544  12.734  0.4947  0.8715  0.3801
17299TIP3   OH273387   6.243   4.379   5.316 -0.3730 -0.2302  0.1833
17299TIP3    H173388   6.292   4.438   5.372  1.1539 -1.2768  0.0132
17299TIP3    H273389   6.295   4.373   5.236 -1.3848 -0.4811 -0.4719
17300TIP3   OH273390   4.218   3.536   6.158  0.1575  0.6202 -0.0071
17300TIP3    H173391   4.212   3.458   6.212 -1.3062  2.0514  2.0366
17300TIP3    H273392   4.263   3.600   6.214 -1.7708  2.2781 -0.2422
17301TIP3   OH273393   1.849   0.200   0.341  0.0308  0.1223 -0.1287
17301TIP3    H173394   1.847   0.279   0.287  0.8571  0.2439  0.0111
17301TIP3    H273395   1.767   0.154   0.319 -2.9772  3.2146  3.2183
17302TIP3   OH273396   2.664   0.887   1.188  0.2696  0.0167 -0.6770
17302TIP3    H173397   2.743   0.932   1.159 -0.3073  0.6290 -1.3359
17302TIP3    H273398   2.659   0.809   1.132  0.7307 -0.3581 -0.2104
17303TIP3   OH273399   1.468   2.597   5.088 -0.3404 -0.2411  0.4368
17303TIP3    H173400   1.394   2.658   5.087 -0.8728 -0.8624 -0.5908
17303TIP3    H273401   1.426   2.510   5.091  0.3068 -0.6235 -0.8776
17304TIP3   OH273402   0.227   6.436  15.670 -0.0757  0.8624  0.1608
17304TIP3    H173403   0.242   6.529  15.655 -0.3426  1.0797  1.1600
17304TIP3    H273404   0.137   6.421  15.640 -0.6940  1.3465  1.6638
17305TIP3   OH273405   3.277   3.133   3.545  0.3380  0.1782  0.6274
17305TIP3    H173406   3.215   3.060   3.545 -0.6684  0.9895 -0.8936
17305TIP3    H273407   3.317   3.130   3.458  1.8264  0.2066  1.2801
17306TIP3   OH273408   6.685   5.226  12.203  0.0492  0.4600 -0.5947
17306TIP3    H173409   6.750   5.247  12.136  1.3690  1.8745  1.0258
17306TIP3    H273410   6.666   5.133  12.189  0.7162  0.5624 -2.5213
17307TIP3   OH273411   2.603   6.762  13.181  0.2212  0.2337  0.0072
17307TIP3    H173412   2.572   6.775  13.092 -0.3832 -1.1789 -0.0134
17307TIP3    H273413   2.696   6.742  13.172 -0.0025 -0.6787 -0.3910
17308TIP3   OH273414   4.648   0.490   1.947  0.0568  0.5316 -0.1088
17308TIP3    H173415   4.606   0.485   2.033  1.9278 -0.7234  0.8123
17308TIP3    H273416   4.589   0.442   1.889  0.6551 -2.2368  1.3790
17309TIP3   OH273417   6.519   6.362  13.129  0.2203 -0.0952 -0.1078
17309TIP3    H173418   6.515   6.391  13.221  1.8527 -1.5472  0.4887
17309TIP3    H273419   6.608   6.383  13.102 -0.7427  1.8791 -1.9768
17310TIP3   OH273420   4.173   3.298  14.285 -0.0430 -0.5435 -0.2501
17310TIP3    H173421   4.118   3.254  14.220  0.8063  0.9673 -2.0946
17310TIP3    H273422   4.207   3.375  14.239  4.1140 -1.6957  0.4799
17311TIP3   OH273423   0.641   1.233   1.992  0.5433  0.5351 -0.0395
17311TIP3    H173424   0.649   1.192   1.906 -3.3303  1.1140 -0.8492
17311TIP3    H273425   0.708   1.302   1.992  1.1466  0.0154 -2.2525
17312TIP3   OH273426   5.788   3.655  13.058  0.2314  0.0259  0.4197
17312TIP3    H173427   5.770   3.643  13.151 -2.5932  2.4104  0.3208
17312TIP3    H273428   5.774   3.748  13.042 -1.7422 -0.6680 -2.7993
17313TIP3   OH273429   0.948   2.659  16.578  0.3986  0.3904 -0.0877
17313TIP3    H173430   0.937   2.564  16.582  1.9169  0.2278  0.7060
17313TIP3    H273431   0.883   2.687  16.513 -2.0453 -0.8474  1.6180
17314TIP3   OH273432   0.571   5.442   4.688 -0.0407  0.3720 -0.0548
17314TIP3    H173433   0.518   5.511   4.729 -1.1768 -0.3773 -0.2126
17314TIP3    H273434   0.507   5.388   4.641  0.8877 -0.5088 -0.3313
17315TIP3   OH273435   6.138   1.340  12.779  0.8424 -0.7955  0.3228
17315TIP3    H173436   6.213   1.387  12.818  0.4328  0.6560 -0.5849
17315TIP3    H273437   6.061   1.383  12.817  0.4384 -2.1105  1.0443
17316TIP3   OH273438   2.646   2.154   5.107  0.0707  0.3031 -0.3937
17316TIP3    H173439   2.605   2.237   5.131  0.6699  0.1520  1.2934
17316TIP3    H273440   2.737   2.162   5.137 -0.3165 -1.6057  1.5485
17317TIP3   OH273441   0.060   2.550  13.150  0.3428 -0.3718 -0.3962
17317TIP3    H173442   0.066   2.456  13.164 -1.5559 -0.4801 -0.0243
17317TIP3    H273443  -0.008   2.579  13.212  1.4553  1.3830  0.0964
17318TIP3   OH273444   4.510   5.657  13.649 -0.3540 -0.7387 -0.2408
17318TIP3    H173445   4.488   5.581  13.595 -0.9619 -1.0039  0.3660
17318TIP3    H273446   4.466   5.641  13.732  0.0852 -0.0519  0.1348
17319TIP3   OH273447   1.398   4.203  13.183 -0.1996  0.3140 -0.4737
17319TIP3    H173448   1.377   4.294  13.207 -0.6218  0.3924 -1.1165
17319TIP3    H273449   1.324   4.152  13.214  0.0733  0.1705 -0.0447
17320TIP3   OH273450   2.384   4.053   0.385  0.0724  0.4146  0.0681
17320TIP3    H173451   2.427   4.136   0.364  1.1611  0.7297  3.0015
17320TIP3    H273452   2.354   4.064   0.476  0.6257 -2.5072  0.7161
17321TIP3   OH273453   3.620   1.629   3.341  0.3992 -0.0731  0.1871
17321TIP3    H173454   3.655   1.651   3.254 -1.6655 -0.9888 -0.9337
17321TIP3    H273455   3.686   1.663   3.402  1.9873  0.4727 -1.7165
17322TIP3   OH273456   3.167   3.887  12.553 -0.2567 -1.0206 -0.0639
17322TIP3    H173457   3.080   3.850  12.566 -1.0035  0.6807  0.0298
17322TIP3    H273458   3.177   3.952  12.623  1.2538 -1.4395  0.1533
17323TIP3   OH273459   2.339   2.724  11.524 -0.0497 -0.5201 -0.5481
17323TIP3    H173460   2.246   2.744  11.529  0.3069  1.1263  0.0468
17323TIP3    H273461   2.379   2.802  11.486  1.1699 -0.9853 -0.2843
17324TIP3   OH273462   3.547   5.798  16.008  0.0806  0.0445  0.4027
17324TIP3    H173463   3.536   5.810  15.913  0.9981 -0.7064  0.1815
17324TIP3    H273464   3.528   5.706  16.022  2.1074 -0.3882  0.5783
17325TIP3   OH273465   3.115   0.884   5.599 -0.4519 -0.0023  0.1121
17325TIP3    H173466   3.071   0.825   5.660  0.3476 -0.3715  0.3468
17325TIP3    H273467   3.130   0.831   5.520  1.4776 -0.5705  0.8060
17326TIP3   OH273468   5.108   4.840  14.238  1.0001  0.0765 -0.0814
17326TIP3    H173469   5.133   4.932  14.228  0.2462  0.4558  1.3557
17326TIP3    H273470   5.014   4.839  14.221  0.9560 -0.3888  0.1911
17327TIP3   OH273471   0.672   2.215   4.607  0.4775 -0.3430  0.2096
17327TIP3    H173472   0.730   2.181   4.539  0.2546  0.5027 -0.4177
17327TIP3    H273473   0.593   2.243   4.561 -0.4166 -1.4047  1.0520
17328TIP3   OH273474   4.609   4.348   4.154  0.3872 -0.3339 -0.0098
17328TIP3    H173475   4.590   4.254   4.159 -0.0731 -0.5119 -3.1769
17328TIP3    H273476   4.528   4.391   4.182 -0.6274 -0.9764 -1.7950
17329TIP3   OH273477   6.629   2.004   4.718  0.2962 -0.0535  0.6344
17329TIP3    H173478   6.718   2.040   4.720  0.0849  0.5117  0.1624
17329TIP3    H273479   6.604   2.008   4.626  0.2859 -1.4868  0.5533
17330TIP3   OH273480   3.677   2.848   3.068  0.1589  0.8212 -0.1066
17330TIP3    H173481   3.734   2.924   3.058  2.8478 -1.0058  0.3951
17330TIP3    H273482   3.719   2.794   3.135 -1.3640 -1.3749 -0.7831
17331TIP3   OH273483   1.849   0.857   2.013 -0.3488  0.0177 -0.0764
17331TIP3    H173484   1.919   0.922   2.013  0.1798 -0.4864  1.8058
17331TIP3    H273485   1.770   0.907   1.998 -0.1863  1.4832  3.1038
17332TIP3   OH273486   1.736   3.997  11.283 -0.1878  0.0295  0.8868
17332TIP3    H173487   1.675   3.946  11.337 -1.2550  0.3478  0.0095
17332TIP3    H273488   1.690   4.009  11.200  1.0791  0.2959  0.2055
17333TIP3   OH273489   3.788   3.385   2.264  0.3846 -0.1894 -0.8371
17333TIP3    H173490   3.804   3.385   2.358  1.5858 -0.2025 -1.0254
17333TIP3    H273491   3.697   3.355   2.255  0.4860 -0.8924  0.2670
17334TIP3   OH273492   1.664   5.322   1.481  0.2746  0.9353  0.0952
17334TIP3    H173493   1.644   5.230   1.497 -0.9152  0.8381 -1.6527
17334TIP3    H273494   1.720   5.322   1.403 -0.0269  1.7025 -0.1369
17335TIP3   OH273495   6.119   2.308   1.490  0.1095 -0.0298  0.1116
17335TIP3    H173496   6.155   2.390   1.522 -0.6707 -0.4896  2.3083
17335TIP3    H273497   6.031   2.331   1.458 -0.8273 -0.2205  2.3623
17336TIP3   OH273498   2.015   6.302  14.475  0.1809  0.0149 -0.3405
17336TIP3    H173499   2.057   6.326  14.393 -3.5955  1.4378 -2.0810
17336TIP3    H273500   1.970   6.220  14.456  1.0439 -0.8244  1.0709
17337TIP3   OH273501   0.674   1.395  15.897 -0.1792 -0.4300  0.3837
17337TIP3    H173502   0.662   1.489  15.882  1.5552 -0.4107 -1.2270
17337TIP3    H273503   0.622   1.353  15.828  0.3511 -0.5949  0.0783
17338TIP3   OH273504   6.009   6.469   5.932 -0.1635 -0.3179  0.0319
17338TIP3    H173505   5.955   6.417   5.872  0.7336 -0.5101 -0.6356
17338TIP3    H273506   5.972   6.452   6.018 -0.5995 -1.1619 -0.3057
17339TIP3   OH273507   5.887   6.299  16.922 -0.2926 -0.0705  0.0698
17339TIP3    H173508   5.885   6.204  16.909 -0.1282  0.2521 -3.1115
17339TIP3    H273509   5.960   6.329  16.868  0.6051  1.7926  2.1840
17340TIP3   OH273510   5.535   4.681   4.408 -0.1925 -0.2884 -0.1300
17340TIP3    H173511   5.553   4.712   4.497  1.3683 -2.1385  0.2537
17340TIP3    H273512   5.453   4.633   4.416 -0.8027  0.7265 -0.0245
17341TIP3   OH273513   3.803   5.968   1.541 -0.3107  0.2936 -0.0534
17341TIP3    H173514   3.824   6.027   1.469 -1.9243  1.8167  0.6439
17341TIP3    H273515   3.858   5.891   1.527  0.6387  1.2691 -1.9339
17342TIP3   OH273516   2.422   1.958   5.291  0.1547 -0.0569 -0.1821
17342TIP3    H173517   2.442   1.866   5.273  2.5550  0.0965  1.2581
17342TIP3    H273518   2.466   2.007   5.222 -1.2207  0.0469 -1.0173
17343TIP3   OH273519   4.758   6.118  11.837 -0.3227 -0.0639  0.0488
17343TIP3    H173520   4.714   6.141  11.919 -0.6109  2.3092 -0.7028
17343TIP3    H273521   4.691   6.072  11.786 -0.6611 -0.0749  0.5018
17344TIP3   OH273522   6.466   0.502   2.980  0.0530  0.6279  0.2297
17344TIP3    H173523   6.511   0.551   3.049  0.2985 -1.2305  1.4869
17344TIP3    H273524   6.376   0.493   3.012 -0.1971  0.9352 -0.3727
17345TIP3   OH273525   1.133   0.218   6.803  0.0652 -0.2920 -0.1194
17345TIP3    H173526   1.146   0.305   6.765  1.1096 -0.6341 -0.5868
17345TIP3    H273527   1.038   0.207   6.806 -0.1305  1.3432  1.0768
17346TIP3   OH273528   0.278   2.790   2.887 -0.3039 -0.2294 -0.4526
17346TIP3    H173529   0.353   2.824   2.936 -0.7231  1.4399 -0.8966
17346TIP3    H273530   0.264   2.855   2.818 -2.7242  0.0010  0.1803
17347TIP3   OH273531   3.338   2.466   1.460  0.2450 -0.8181  0.0535
17347TIP3    H173532   3.348   2.421   1.376 -2.1168  1.9441 -1.9184
17347TIP3    H273533   3.248   2.447   1.486  0.2012  0.2742  0.7178
17348TIP3   OH273534   2.113   6.671   5.276 -0.6775  0.4773 -0.5046
17348TIP3    H173535   2.041   6.697   5.333 -0.5747 -3.5912  1.8546
17348TIP3    H273536   2.075   6.604   5.219  0.7073 -0.1771 -0.7123
17349TIP3   OH273537   0.093   3.869   4.698 -0.1395 -0.3764 -0.7033
17349TIP3    H173538   0.086   3.956   4.660 -2.8311 -0.4120 -0.5247
17349TIP3    H273539   0.099   3.884   4.792  2.6340 -0.3749 -0.8205
17350TIP3   OH273540   0.999   4.843   2.233  0.4012  0.2413  0.5555
17350TIP3    H173541   0.914   4.798   2.232  1.1324 -1.2261  1.4179
17350TIP3    H273542   0.977   4.935   2.222 -1.1089 -0.3328 -2.2529
17351TIP3   OH273543   5.203   4.727  16.440 -0.4839 -0.6676  0.2920
17351TIP3    H173544   5.148   4.666  16.390  0.0929 -0.6674 -0.3498
17351TIP3    H273545   5.292   4.708  16.412 -0.2610  0.1800  0.4063
17352TIP3   OH273546   5.994   1.506   0.938  0.0822 -0.6330  0.0073
17352TIP3    H173547   6.013   1.572   0.872 -0.2025 -0.5073  0.0463
17352TIP3    H273548   5.899   1.492   0.930  0.1451 -1.0415 -0.0065
17353TIP3   OH273549   5.532   5.497   0.597 -0.7086 -0.5111 -0.6345
17353TIP3    H173550   5.617   5.487   0.554 -1.3203 -2.1971 -1.5407
17353TIP3    H273551   5.502   5.584   0.570 -0.0264 -0.5874 -1.7033
17354TIP3   OH273552   4.253   3.353  11.507  0.3797  0.1922 -0.0908
17354TIP3    H173553   4.260   3.430  11.451  0.4351  0.1725 -0.1113
17354TIP3    H273554   4.162   3.325  11.498  0.7499 -0.6904 -1.3242
17355TIP3   OH273555   4.550   6.644  13.046 -0.0547 -0.6120 -0.3043
17355TIP3    H173556   4.604   6.688  12.980 -0.1920 -0.8463 -0.5737
17355TIP3    H273557   4.597   6.659  13.128 -0.7107  1.0522 -0.2018
17356TIP3   OH273558   2.344   5.909  12.068 -0.6498 -0.7384  0.0681
17356TIP3    H173559   2.379   5.939  12.152 -0.1073  0.9535 -0.7276
17356TIP3    H273560   2.327   5.815  12.081  1.1429 -0.9082  1.4885
17357TIP3   OH273561   5.850   4.161   1.663 -0.0827  0.1850 -0.2424
17357TIP3    H173562   5.899   4.082   1.684 -0.0270  0.4433  0.6638
17357TIP3    H273563   5.791   4.136   1.593  0.9212 -0.2923 -0.9349
17358TIP3   OH273564   4.768   1.484   6.536 -0.0756 -0.3177  1.0359
17358TIP3    H173565   4.709   1.427   6.586  2.0742 -2.5498  1.2106
17358TIP3    H273566   4.722   1.568   6.530 -2.9988 -1.7737  1.5800
17359TIP3   OH273567   4.175   0.277  12.600  0.0091  0.3074 -0.2256
17359TIP3    H173568   4.249   0.320  12.558  1.0708 -1.7958 -0.6809
17359TIP3    H273569   4.215   0.224  12.669 -1.2179  0.0859  0.3366
17360TIP3   OH273570   2.242   6.452   6.463  0.1775 -0.1302 -0.1164
17360TIP3    H173571   2.295   6.481   6.537  0.1180  1.2108 -0.5707
17360TIP3    H273572   2.173   6.399   6.502  0.1163  0.6043  0.7987
17361TIP3   OH273573   0.230   1.462   4.580  0.2484 -0.2476  0.0808
17361TIP3    H173574   0.308   1.450   4.525 -0.2374 -1.8773 -0.3102
17361TIP3    H273575   0.174   1.387   4.559 -1.3574  0.7928  0.4942
17362TIP3   OH273576   5.555   0.465  12.145  0.5771  0.2506  0.3456
17362TIP3    H173577   5.461   0.462  12.162  0.4034 -2.6019 -0.5937
17362TIP3    H273578   5.562   0.464  12.050  1.5537  0.2840  0.4082
17363TIP3   OH273579   0.439   4.658  13.983  0.3043 -0.3847 -0.0772
17363TIP3    H173580   0.350   4.628  14.003  0.9579 -1.7625  0.9431
17363TIP3    H273581   0.487   4.578  13.962  1.0876  0.4516 -1.5916
17364TIP3   OH273582   0.668   3.310   4.277 -0.0487 -0.2177  0.2532
17364TIP3    H173583   0.593   3.283   4.224 -0.1387  0.6824 -0.0983
17364TIP3    H273584   0.741   3.313   4.214 -0.2985  1.5283 -0.0082
17365TIP3   OH273585   3.004   1.576   1.385 -0.0305 -0.0603 -0.2486
17365TIP3    H173586   2.987   1.520   1.309 -0.1396  1.5836 -1.4903
17365TIP3    H273587   3.077   1.632   1.357 -0.6619  1.1813  0.5052
17366TIP3   OH273588   5.936   3.938   6.171 -0.1784  0.0359 -0.0737
17366TIP3    H173589   6.022   3.928   6.131  1.4371  0.9528  2.8532
17366TIP3    H273590   5.887   3.994   6.111  2.0583  1.3413 -0.7613
17367TIP3   OH273591   2.730   3.758  16.221 -0.2910 -0.1958 -0.0325
17367TIP3    H173592   2.639   3.784  16.208 -0.4843 -0.8336  0.0265
17367TIP3    H273593   2.777   3.841  16.230 -0.5494  0.2386 -2.1061
17368TIP3   OH273594   3.302   5.407   0.643 -0.2791  0.0179  0.4570
17368TIP3    H173595   3.239   5.444   0.581 -2.3352 -0.2551  2.2408
17368TIP3    H273596   3.252   5.341   0.691  1.2596  0.0771  2.2662
17369TIP3   OH273597   5.253   5.987   2.785 -0.3692 -0.2691  0.0127
17369TIP3    H173598   5.343   5.980   2.817  0.2465  2.6828 -0.7310
17369TIP3    H273599   5.210   5.907   2.815  1.9439 -0.8212  2.2036
17370TIP3   OH273600   0.589   2.467   3.575  0.5354 -0.6155  0.2693
17370TIP3    H173601   0.562   2.557   3.596  0.6221 -0.3814 -0.5804
17370TIP3    H273602   0.556   2.415   3.648 -0.7361 -0.0933  0.0945
17371TIP3   OH273603   3.735   3.614   3.138 -0.5354 -0.0373  0.6183
17371TIP3    H173604   3.753   3.681   3.204  1.1036  1.2061 -0.9825
17371TIP3    H273605   3.671   3.655   3.079  1.0151  0.4872 -0.7811
17372TIP3   OH273606   2.396   4.196   1.244  0.0122  0.4292  0.5711
17372TIP3    H173607   2.319   4.156   1.203 -0.8888  2.1311  0.5152
17372TIP3    H273608   2.442   4.238   1.171 -0.3215  1.4446  0.9229
17373TIP3   OH273609   0.628   1.713   4.270  0.7593 -0.2046  0.1321
17373TIP3    H173610   0.626   1.804   4.300 -0.5192 -0.6611  1.5760
17373TIP3    H273611   0.719   1.686   4.281  0.9830  0.6554  0.5071
17374TIP3   OH273612   0.693   4.282  10.150 -0.1051  0.6011  0.4010
17374TIP3    H173613   0.631   4.339  10.105  0.2933  0.9988  0.3522
17374TIP3    H273614   0.732   4.337  10.217 -0.1879  0.2030  0.7801
17375TIP3   OH273615   6.346   0.721  12.295  0.1880 -0.1602 -0.3074
17375TIP3    H173616   6.385   0.776  12.363 -0.1114 -1.3428  0.8580
17375TIP3    H273617   6.305   0.783  12.235 -0.6516  0.8943  1.2807
17376TIP3   OH273618   3.911   3.092   1.269 -0.9836 -0.6552  0.7962
17376TIP3    H173619   3.948   3.043   1.196  0.3091  0.5504  0.5835
17376TIP3    H273620   3.977   3.085   1.338 -1.8097 -1.0775  1.5487
17377TIP3   OH273621   0.343   4.075   0.968  0.3616  0.4437 -0.5075
17377TIP3    H173622   0.268   4.067   0.909  0.1749  0.2690 -0.2519
17377TIP3    H273623   0.354   4.169   0.981 -0.1122  0.4565 -0.1731
17378TIP3   OH273624   5.400   1.094   4.663  0.0140  0.1831 -0.3162
17378TIP3    H173625   5.483   1.119   4.704 -0.3913 -0.1746  0.7417
17378TIP3    H273626   5.415   1.004   4.634 -0.8121 -0.8853  2.2595
17379TIP3   OH273627   5.444   6.331   5.307 -0.4832 -0.0494  0.0699
17379TIP3    H173628   5.468   6.304   5.396  1.5346  0.3738 -0.2893
17379TIP3    H273629   5.504   6.403   5.287 -0.3084 -0.6753 -1.9247
17380TIP3   OH273630   6.653   5.083   3.346 -0.5602  0.3739  0.1375
17380TIP3    H173631   6.667   5.023   3.420  0.6842 -0.9917 -1.1490
17380TIP3    H273632   6.567   5.059   3.313 -0.1922 -0.5655 -0.1929
17381TIP3   OH273633   1.580   6.549   6.967  0.1825  0.2868  0.1731
17381TIP3    H173634   1.649   6.610   6.994 -0.4842  0.2022  2.2057
17381TIP3    H273635   1.601   6.467   7.012  0.2650 -0.6137 -1.4009
17382TIP3   OH273636   5.918   3.235  13.460 -0.3451 -0.3139 -0.3113
17382TIP3    H173637   5.942   3.255  13.369 -1.0468 -1.3684 -0.7466
17382TIP3    H273638   5.893   3.319  13.498  0.6766  0.2598 -0.8627
17383TIP3   OH273639   4.600   5.853   3.498 -0.3114 -0.1561 -0.4442
17383TIP3    H173640   4.650   5.909   3.557  0.2097  0.7318 -1.6751
17383TIP3    H273641   4.526   5.907   3.470  0.9050  0.4919 -2.6815
17384TIP3   OH273642   2.161   2.193  13.575  0.6342  0.1388  0.4916
17384TIP3    H173643   2.133   2.151  13.494  0.4430 -0.3937  0.8226
17384TIP3    H273644   2.212   2.269  13.547 -2.0693  1.8482 -0.1624
17385TIP3   OH273645   2.060   1.527  12.497  0.4684 -0.4075 -0.0885
17385TIP3    H173646   2.048   1.473  12.575 -0.3135  0.6078  0.5259
17385TIP3    H273647   2.013   1.480  12.428  1.2419 -1.3617  0.0187
17386TIP3   OH273648   4.262   4.847   3.695  0.4915 -0.5830  0.1599
17386TIP3    H173649   4.237   4.792   3.769 -0.3585 -1.7612 -0.9542
17386TIP3    H273650   4.348   4.814   3.668 -0.6162 -2.3998 -1.3810
17387TIP3   OH273651   5.215   2.894  13.108 -0.2975  0.7274  0.0173
17387TIP3    H173652   5.269   2.867  13.034  1.9915  1.2480  1.3977
17387TIP3    H273653   5.125   2.882  13.078  0.5575 -0.2210 -2.3883
17388TIP3   OH273654   3.438   1.261   1.525 -0.8371 -0.4502 -0.2441
17388TIP3    H173655   3.468   1.336   1.473  2.0209 -0.9373  0.5526
17388TIP3    H273656   3.373   1.218   1.469 -0.3968  0.9690 -1.9402
17389TIP3   OH273657   1.392   6.288  16.078  0.0127 -0.7299  0.2138
17389TIP3    H173658   1.414   6.303  15.986 -1.1451  0.6974  0.1330
17389TIP3    H273659   1.429   6.362  16.125  1.7741 -2.1170  1.1463
17390TIP3   OH273660   3.060   1.094   4.284 -0.3436  0.4578 -0.2867
17390TIP3    H173661   3.016   1.177   4.301 -0.2603  0.4319  0.0833
17390TIP3    H273662   3.088   1.065   4.371 -0.7870 -0.1898 -0.3554
17391TIP3   OH273663   6.089   4.335  11.569  0.3771  0.2958  0.4898
17391TIP3    H173664   6.136   4.400  11.622 -0.2034  1.2462 -0.1280
17391TIP3    H273665   6.075   4.378  11.485 -0.8529 -0.2769  0.3774
17392TIP3   OH273666   4.975   5.510  14.462 -0.4895 -0.3793 -0.2390
17392TIP3    H173667   4.907   5.459  14.418 -0.2329 -0.3645 -0.6598
17392TIP3    H273668   4.929   5.556  14.533 -0.7619 -1.0018 -0.0114
17393TIP3   OH273669   4.684   6.495   4.657  0.6676  0.2565  0.1831
17393TIP3    H173670   4.706   6.487   4.564  1.8740  0.5743  0.4249
17393TIP3    H273671   4.668   6.588   4.670 -0.9218  0.0228  0.0055
17394TIP3   OH273672   0.634   0.714  17.014  0.3746 -0.2531 -0.3973
17394TIP3    H173673   0.729   0.722  17.015  0.3652  2.0024  3.1932
17394TIP3    H273674   0.613   0.667  17.095 -1.5381  0.2005 -0.5729
17395TIP3   OH273675   4.674   3.294   4.805 -0.3968 -0.2125 -0.4896
17395TIP3    H173676   4.613   3.259   4.870 -1.5424  2.4581 -0.0070
17395TIP3    H273677   4.682   3.225   4.740 -1.7713 -1.7054  0.8433
17396TIP3   OH273678   5.653   2.421   0.344  0.0370 -0.1283  0.3364
17396TIP3    H173679   5.681   2.331   0.360  0.2158  0.0947  1.3408
17396TIP3    H273680   5.645   2.460   0.431  2.1430  1.4862 -0.1138
17397TIP3   OH273681   4.614   3.459  13.667 -0.0512 -0.1830 -0.5724
17397TIP3    H173682   4.651   3.472  13.579  1.5533  0.0706  0.0955
17397TIP3    H273683   4.530   3.504  13.665 -0.3474 -0.7287 -2.1647
17398TIP3   OH273684   5.438   6.247  14.336  0.4284 -0.0594  0.1865
17398TIP3    H173685   5.494   6.267  14.411 -0.9968 -0.4027  1.3761
17398TIP3    H273686   5.432   6.152  14.334  0.2605 -0.0447 -0.2120
17399TIP3   OH273687   4.524   0.943   2.197  0.1426 -0.8239 -0.4748
17399TIP3    H173688   4.507   0.859   2.239  0.3045 -1.1935 -1.1333
17399TIP3    H273689   4.438   0.975   2.170  0.2517 -1.7434 -2.0166
17400TIP3   OH273690   6.714   5.281   5.141 -0.2142  0.0268 -0.4178
17400TIP3    H173691   6.710   5.286   5.236  0.4361  1.1344 -0.4348
17400TIP3    H273692   6.807   5.284   5.120 -0.3782  0.8294 -1.1241
17401TIP3   OH273693   2.431   3.146  16.289 -0.0844 -0.8587  0.4045
17401TIP3    H173694   2.387   3.061  16.294 -2.3606  0.1294 -1.0701
17401TIP3    H273695   2.486   3.140  16.211  1.1077 -1.5230  1.2755
17402TIP3   OH273696   1.019   0.232  13.012 -0.4173  0.3700  0.1675
17402TIP3    H173697   0.990   0.310  13.060  2.1351  0.0445  2.4405
17402TIP3    H273698   0.999   0.159  13.070  0.3921 -0.3093 -0.3844
17403TIP3   OH273699   2.524   4.992   1.300  0.3740  0.5979  0.1486
17403TIP3    H173700   2.565   5.049   1.365  0.1707 -0.4618  1.2556
17403TIP3    H273701   2.463   5.048   1.253  0.3374  1.3390  1.0591
17404TIP3   OH273702   5.865   5.502  16.927  0.3016  0.3390 -0.1962
17404TIP3    H173703   5.885   5.461  16.843  0.0920 -0.7579  0.2661
17404TIP3    H273704   5.777   5.538  16.916  0.6469  1.0279 -0.7398
17405TIP3   OH273705   4.606   5.594   5.726  0.1063 -0.8480 -0.2206
17405TIP3    H173706   4.522   5.550   5.711 -0.7327  0.2834  0.9745
17405TIP3    H273707   4.589   5.656   5.797  1.1194  1.7156 -2.0620
17406TIP3   OH273708   6.036   1.068  12.790 -0.1099 -0.2736  0.2893
17406TIP3    H173709   6.029   1.010  12.714  0.3640  0.1962 -0.1257
17406TIP3    H273710   6.051   1.155  12.752  0.7216 -0.1238  0.9325
17407TIP3   OH273711   2.953   1.447   1.137  0.0908 -0.1423 -0.9718
17407TIP3    H173712   3.021   1.434   1.072  1.8098  0.1032  0.6824
17407TIP3    H273713   2.871   1.450   1.087  1.0460 -2.4154 -2.8422
17408TIP3   OH273714   1.834   3.406  15.877 -0.2724  0.2608  0.5940
17408TIP3    H173715   1.765   3.423  15.813  0.2348 -2.5902 -0.9027
17408TIP3    H273716   1.913   3.442  15.838 -0.1658 -0.4458  0.1455
17409TIP3   OH273717   4.120   2.593  12.364  0.0940 -0.8130  0.3858
17409TIP3    H173718   4.058   2.630  12.425 -1.0592 -1.4880 -0.3363
17409TIP3    H273719   4.189   2.659  12.356 -1.6956  1.0262 -0.5833
17410TIP3   OH273720   6.060   6.773   6.264 -0.2148 -0.3872 -0.1680
17410TIP3    H173721   6.015   6.744   6.343 -1.6291  2.0424  0.0461
17410TIP3    H273722   6.139   6.817   6.295 -0.6749  0.4025 -0.0919
17411TIP3   OH273723   0.100   1.479  16.105  0.4578  0.4011  0.1191
17411TIP3    H173724   0.178   1.529  16.132  0.2555  0.1751  1.1709
17411TIP3    H273725   0.117   1.390  16.136 -0.8560  0.6660  1.7572
17412TIP3   OH273726   5.148   5.566  13.150  0.0881  0.5807  0.2574
17412TIP3    H173727   5.092   5.633  13.189 -1.3598 -0.6845  0.4534
17412TIP3    H273728   5.205   5.538  13.222 -0.6512  0.2285  0.7136
17413TIP3   OH273729   2.504   5.857   4.306  0.1719 -0.1135 -0.6476
17413TIP3    H173730   2.426   5.910   4.287  0.0242  0.3446  1.0965
17413TIP3    H273731   2.508   5.795   4.233 -1.7359 -0.0533 -0.8662
17414TIP3   OH273732   1.574   3.594   0.258 -0.2254 -0.6592 -0.6143
17414TIP3    H173733   1.620   3.527   0.309  0.3025  0.2263  0.1154
17414TIP3    H273734   1.644   3.648   0.222 -0.6499  0.7502  0.5620
17415TIP3   OH273735   4.515   5.890  15.257  0.5846  0.4386  0.3535
17415TIP3    H173736   4.431   5.924  15.227  1.2132  1.4149 -0.3606
17415TIP3    H273737   4.579   5.957  15.232  1.6204 -0.4235  0.5974
17416TIP3   OH273738   1.504   1.251   0.358  0.2871 -0.0892  0.2532
17416TIP3    H173739   1.415   1.267   0.328  1.1948  2.0060 -1.5775
17416TIP3    H273740   1.532   1.334   0.396  1.7652 -0.4239 -0.0248
17417TIP3   OH273741   2.921   3.235  15.699 -0.1159  0.6257 -0.3482
17417TIP3    H173742   2.868   3.279  15.765  1.2114 -1.0905  2.0183
17417TIP3    H273743   3.009   3.269  15.713  0.3993 -0.6404 -0.4056
17418TIP3   OH273744   5.548   1.711   3.327 -0.4765 -0.1206  0.3827
17418TIP3    H173745   5.588   1.641   3.378 -0.5081 -1.2436 -1.0869
17418TIP3    H273746   5.454   1.693   3.331 -0.3620 -1.8776 -2.2599
17419TIP3   OH273747   3.459   0.992   2.176 -0.1345 -0.1417  0.1240
17419TIP3    H173748   3.366   1.011   2.165 -0.5435 -2.4347 -1.0441
17419TIP3    H273749   3.461   0.900   2.204  1.8172 -0.5258 -1.1413
17420TIP3   OH273750   4.585   3.723  12.895  0.1385 -0.3726 -0.1146
17420TIP3    H173751   4.553   3.692  12.979  0.6302 -2.6440 -0.6812
17420TIP3    H273752   4.507   3.748  12.847 -0.1232  1.2512  1.0916
17421TIP3   OH273753   1.160   5.750   1.347 -0.4247  0.0565  0.3855
17421TIP3    H173754   1.227   5.682   1.355 -1.5954 -1.1326  0.3716
17421TIP3    H273755   1.119   5.753   1.433  0.5690  1.8105  0.8399
17422TIP3   OH273756   4.613   6.187   2.540 -0.2868 -0.3798 -0.4650
17422TIP3    H173757   4.588   6.260   2.482  0.3034 -1.4654 -2.1841
17422TIP3    H273758   4.616   6.111   2.481 -0.3254 -1.6816  1.1652
17423TIP3   OH273759   1.678   4.277  15.981  0.1102  0.6875  0.2723
17423TIP3    H173760   1.682   4.181  15.988  0.3877  0.6502 -0.3466
17423TIP3    H273761   1.622   4.293  15.906  0.9046  0.9912 -0.2662
17424TIP3   OH273762   5.047   5.792  15.920 -0.1160 -0.5402 -0.0826
17424TIP3    H173763   5.122   5.850  15.936 -0.8457  0.3356  0.2339
17424TIP3    H273764   5.055   5.724  15.987  1.2246 -1.3390 -0.9822
17425TIP3   OH273765   0.771   2.788   6.036 -0.7026 -0.2438 -0.0386
17425TIP3    H173766   0.746   2.762   6.125  0.1156  0.9659  0.5809
17425TIP3    H273767   0.688   2.795   5.990 -1.3645  1.0514  1.2258
17426TIP3   OH273768   0.456   5.644   1.947 -0.7290  0.1615 -0.7625
17426TIP3    H173769   0.463   5.586   2.024  1.4002 -0.3641 -1.2667
17426TIP3    H273770   0.453   5.584   1.873 -0.2021  0.6852 -1.2124
17427TIP3   OH273771   1.987   0.785   6.352 -0.2943 -0.2029  0.7343
17427TIP3    H173772   1.972   0.879   6.354  2.2778  0.2801  1.3476
17427TIP3    H273773   1.946   0.752   6.432  0.3141  0.6775  1.4128
17428TIP3   OH273774   4.904   4.265  15.498 -0.3930 -0.3043 -0.7264
17428TIP3    H173775   4.871   4.177  15.519 -0.9172 -0.3139 -1.5283
17428TIP3    H273776   4.933   4.300  15.582 -1.1233 -0.8618 -0.2214
17429TIP3   OH273777   3.697   2.426  11.502 -0.1363  0.0439 -0.0289
17429TIP3    H173778   3.708   2.344  11.550  1.3358  0.8905  1.1633
17429TIP3    H273779   3.786   2.458  11.486 -0.5939  0.2514 -2.6304
17430TIP3   OH273780   1.142   5.588   5.643  0.2058 -0.1495  0.1199
17430TIP3    H173781   1.113   5.609   5.732 -1.4906  3.1380 -1.0464
17430TIP3    H273782   1.107   5.500   5.626 -0.4964 -0.3275  2.2543
17431TIP3   OH273783   3.754   6.088  14.100  0.1234 -0.0759 -0.2672
17431TIP3    H173784   3.840   6.096  14.140  0.6026 -0.4366 -1.1980
17431TIP3    H273785   3.740   5.994  14.092 -0.6700 -0.0429  0.4987
17432TIP3   OH273786   6.009   4.249   5.164  0.3278 -0.3741 -0.2082
17432TIP3    H173787   5.940   4.266   5.228  0.1653  0.6732 -0.6261
17432TIP3    H273788   6.071   4.321   5.176  1.1913 -1.1206 -0.0662
17433TIP3   OH273789   5.500   3.455  16.423  0.5549  0.2344  0.6998
17433TIP3    H173790   5.513   3.365  16.391  1.0801 -0.0538  1.6739
17433TIP3    H273791   5.584   3.478  16.463  0.6977  1.4811 -0.2550
17434TIP3   OH273792   2.366   1.172   1.502  0.2941 -0.7835 -0.1154
17434TIP3    H173793   2.446   1.196   1.456 -0.7000  0.3683 -1.3095
17434TIP3    H273794   2.320   1.114   1.442 -0.6935  0.1774 -0.3265
17435TIP3   OH273795   2.034   1.487  16.275  0.0118  0.2633 -0.3531
17435TIP3    H173796   2.016   1.537  16.355  0.3337 -0.5483  0.2357
17435TIP3    H273797   1.948   1.464  16.242 -0.1436 -1.5492  1.1505
17436TIP3   OH273798   0.886   3.162  15.589 -0.3270  0.1697 -0.2871
17436TIP3    H173799   0.813   3.113  15.550 -0.7522  0.8440 -0.3495
17436TIP3    H273800   0.932   3.198  15.513 -1.8734  2.5285 -0.1995
17437TIP3   OH273801   6.060   4.272  15.484 -0.4212  0.3355  0.9789
17437TIP3    H173802   6.033   4.362  15.467 -1.4959 -0.2355 -0.4961
17437TIP3    H273803   5.993   4.237  15.542 -0.5951  0.1573  0.6700
17438TIP3   OH273804   4.333   6.021  13.310  0.0356 -0.1520  0.2720
17438TIP3    H173805   4.423   6.037  13.282  0.1818  0.2118  0.9332
17438TIP3    H273806   4.337   5.938  13.357 -0.1185 -0.5203 -0.3661
17439TIP3   OH273807   3.012   4.494  14.860 -0.5148 -0.7404 -0.1530
17439TIP3    H173808   3.054   4.561  14.913 -0.1858 -2.1673  1.4574
17439TIP3    H273809   3.028   4.412  14.906 -1.6529 -1.8441 -1.5988
17440TIP3   OH273810   2.765   2.943  12.722  0.2769 -0.2823  0.3131
17440TIP3    H173811   2.775   2.850  12.743  1.9979 -0.0266  0.8195
17440TIP3    H273812   2.705   2.944  12.648  0.7015 -1.8486 -0.1051
17441TIP3   OH273813   4.393   3.009   2.634  0.1423  0.1167 -0.8590
17441TIP3    H173814   4.415   2.967   2.717 -0.2183 -0.0853 -0.8638
17441TIP3    H273815   4.305   3.044   2.646  0.6691  1.4433 -0.6453
17442TIP3   OH273816   0.112   6.169  12.658 -0.3401  0.3398 -0.0094
17442TIP3    H173817   0.132   6.075  12.657 -0.5721  0.2813  0.7590
17442TIP3    H273818   0.197   6.212  12.665 -0.2225  0.1949 -0.5153
17443TIP3   OH273819   6.424   0.472   0.472 -0.0793 -0.4745 -0.2019
17443TIP3    H173820   6.329   0.485   0.474 -0.0054  0.0588  0.0764
17443TIP3    H273821   6.443   0.451   0.380 -0.3324  0.5358 -0.5089
17444TIP3   OH273822   5.055   6.103  16.244 -0.2777 -0.3850  0.0808
17444TIP3    H173823   5.070   6.160  16.320 -0.1174  1.7388 -1.4682
17444TIP3    H273824   5.132   6.115  16.189 -1.1015 -0.6438 -1.1596
17445TIP3   OH273825   0.031   1.787   4.783 -0.0578  0.3312  0.2886
17445TIP3    H173826   0.059   1.748   4.700  0.4013 -0.6756  0.8992
17445TIP3    H273827  -0.052   1.831   4.762  0.3682  0.6259 -0.8293
17446TIP3   OH273828   0.530   0.438   2.472 -0.0260 -0.2713 -0.3634
17446TIP3    H173829   0.464   0.434   2.403  0.3946  1.3773 -0.8991
17446TIP3    H273830   0.613   0.452   2.427  0.3064  0.4666  0.4347
17447TIP3   OH273831   4.097   5.571  13.347 -0.0554  0.2758 -0.7789
17447TIP3    H173832   4.050   5.569  13.430  0.1591 -0.5375 -0.6735
17447TIP3    H273833   4.083   5.485  13.309 -1.6332  1.2066 -2.4472
17448TIP3   OH273834   0.526   1.283   5.083  0.1352 -0.6024 -0.1756
17448TIP3    H173835   0.434   1.276   5.111  0.2559 -0.0606  0.4009
17448TIP3    H273836   0.535   1.220   5.012 -1.2471  0.8537 -1.7271
17449TIP3   OH273837   6.334   3.233   4.608 -0.4708  0.4828 -0.3807
17449TIP3    H173838   6.280   3.168   4.652  0.2828 -0.1900 -0.4133
17449TIP3    H273839   6.393   3.182   4.552  0.9240  1.0945  0.4536
17450TIP3   OH273840   4.936   1.482  17.133  0.0085  0.4931 -0.3018
17450TIP3    H173841   4.900   1.569  17.149 -1.4418 -0.0662 -0.4138
17450TIP3    H273842   4.872   1.439  17.076  1.9065  0.2014 -2.3796
17451TIP3   OH273843   2.037   2.671   3.509 -0.0652 -0.4417 -0.6699
17451TIP3    H173844   2.129   2.695   3.502  0.3299 -0.5026  2.9053
17451TIP3    H273845   2.038   2.578   3.531 -1.1331 -0.8839 -2.2328
17452TIP3   OH273846   6.207   4.732  15.935 -0.0644 -0.1234  0.8108
17452TIP3    H173847   6.172   4.693  15.855 -2.7161  0.0702  1.7584
17452TIP3    H273848   6.143   4.799  15.959  0.5667 -0.2622  3.1566
17453TIP3   OH273849   1.962   2.154  15.709 -0.4470  0.3639  0.2985
17453TIP3    H173850   2.019   2.086  15.742 -0.2617  0.5980  0.4668
17453TIP3    H273851   2.016   2.204  15.648 -1.1921 -0.9318 -1.5023
17454TIP3   OH273852   3.670   0.126  15.802  0.2303 -0.4102 -0.2295
17454TIP3    H173853   3.678   0.181  15.725  0.8450 -1.7005 -1.1135
17454TIP3    H273854   3.587   0.080  15.791 -0.3732  0.4359  0.5965
17455TIP3   OH273855   2.158   5.716   3.342 -0.2439 -0.0350  0.1249
17455TIP3    H173856   2.130   5.780   3.278 -1.6920 -2.3225 -1.6966
17455TIP3    H273857   2.244   5.687   3.311  0.1908  0.6429  0.6732
17456TIP3   OH273858   3.333   5.891  11.826 -0.1646  0.9829  0.5198
17456TIP3    H173859   3.271   5.819  11.825  1.6305 -0.6645  1.6063
17456TIP3    H273860   3.402   5.866  11.766 -0.6019  2.9255 -0.9041
17457TIP3   OH273861   4.829   5.768   3.368  0.1064  0.2723 -0.2838
17457TIP3    H173862   4.767   5.817   3.421  0.3363  1.0996 -0.7507
17457TIP3    H273863   4.777   5.700   3.326 -0.5541  1.1270 -0.8933
17458TIP3   OH273864   2.959   2.058   5.709 -0.0286  0.0223 -0.1628
17458TIP3    H173865   2.917   2.016   5.784 -1.0709  0.2375 -0.6063
17458TIP3    H273866   2.981   2.146   5.740  0.5838 -0.2725  0.2378
17459TIP3   OH273867   4.559   4.536  16.807 -0.2623 -0.1344  0.0971
17459TIP3    H173868   4.469   4.544  16.839 -0.7322 -1.4827 -0.7926
17459TIP3    H273869   4.607   4.497  16.880 -1.0761 -2.1480 -0.3732
17460TIP3   OH273870   4.891   6.001  13.289 -0.2867  0.3441  0.0857
17460TIP3    H173871   4.975   5.994  13.242 -0.8416  0.9664 -1.0509
17460TIP3    H273872   4.916   6.008  13.381  0.8417 -1.2414 -0.0395
17461TIP3   OH273873   5.054   5.769   0.446 -0.5693  0.1662 -0.0269
17461TIP3    H173874   5.132   5.765   0.392 -1.5584 -0.2384 -1.4896
17461TIP3    H273875   5.041   5.863   0.463 -0.3349  0.3152 -0.6518
17462TIP3   OH273876   2.502   0.792  12.383  0.9007 -0.5757 -0.5006
17462TIP3    H173877   2.555   0.712  12.389  0.1765 -1.1689 -1.7309
17462TIP3    H273878   2.527   0.842  12.461  1.0840 -2.1613  0.5135
17463TIP3   OH273879   1.975   4.445  12.507 -0.0566  0.6340 -0.2770
17463TIP3    H173880   1.955   4.513  12.442  0.8829  0.8390 -0.3701
17463TIP3    H273881   1.954   4.363  12.463  1.3750  0.7139 -1.1998
17464TIP3   OH273882   4.315   4.102  14.474  0.7046  0.5862  0.2360
17464TIP3    H173883   4.269   4.166  14.420  0.4610  0.4403  0.2684
17464TIP3    H273884   4.384   4.067  14.417  0.3390  0.3069 -0.0362
17465TIP3   OH273885   3.540   6.212   5.350 -0.3360 -0.7182 -1.0059
17465TIP3    H173886   3.597   6.216   5.273 -2.6637 -1.3482 -2.8575
17465TIP3    H273887   3.511   6.121   5.354  0.1654 -0.8304  0.9951
17466TIP3   OH273888   0.498   3.133   3.215  0.0333 -0.1592 -0.0222
17466TIP3    H173889   0.559   3.203   3.236  0.2276 -0.1640 -0.5660
17466TIP3    H273890   0.434   3.135   3.287  0.1953  0.3857  0.1133
17467TIP3   OH273891   2.754   5.599  15.789  0.3733 -0.0349 -0.0774
17467TIP3    H173892   2.667   5.615  15.753 -0.0724 -0.0627  0.9494
17467TIP3    H273893   2.813   5.608  15.715 -0.2799  2.0714 -0.4193
17468TIP3   OH273894   4.510   5.288  13.605 -0.2386  0.4780  0.0856
17468TIP3    H173895   4.534   5.286  13.698 -1.1761  1.2479  0.3602
17468TIP3    H273896   4.464   5.205  13.590 -1.9006  1.2258  0.8428
17469TIP3   OH273897   1.962   2.435  14.523 -0.1754 -0.2361 -0.6856
17469TIP3    H173898   2.022   2.464  14.455 -0.2360  1.2277 -0.1500
17469TIP3    H273899   1.893   2.389  14.476 -0.5265  1.2618 -1.6943
17470TIP3   OH273900   2.597   3.649   4.728  0.3525 -0.2335 -0.0666
17470TIP3    H173901   2.650   3.589   4.676  1.3049  1.2216 -0.8385
17470TIP3    H273902   2.507   3.630   4.701  0.5616 -1.7816  0.2368
17471TIP3   OH273903   0.823   4.962  17.116  0.2603  0.3108 -0.3491
17471TIP3    H173904   0.806   5.056  17.121 -2.1984 -0.0801 -0.0208
17471TIP3    H273905   0.821   4.932  17.207  0.3366 -0.1645 -0.4977
17472TIP3   OH273906   2.422   2.467   0.965 -0.5765 -0.1826 -0.0079
17472TIP3    H173907   2.376   2.457   1.049 -1.7191 -0.4782 -0.6405
17472TIP3    H273908   2.430   2.561   0.953 -1.0624 -0.1242  0.1002
17473TIP3   OH273909   0.274   3.197  17.013  0.1269 -0.3997 -0.3519
17473TIP3    H173910   0.354   3.210  16.961 -0.3936 -0.1814 -1.1193
17473TIP3    H273911   0.288   3.249  17.092  0.6909 -0.2644 -0.5355
17474TIP3   OH273912   0.224   5.111  16.956  0.3198  0.9785  0.3732
17474TIP3    H173913   0.202   5.062  16.877  0.8512 -0.9642  1.3683
17474TIP3    H273914   0.233   5.202  16.926 -0.7012  0.5021 -1.5440
17475TIP3   OH273915   3.878   2.761   1.766 -0.2474  0.1483 -0.0329
17475TIP3    H173916   3.959   2.801   1.798 -1.1983 -0.3579  3.3566
17475TIP3    H273917   3.833   2.831   1.720  0.8296  1.2286  0.5113
17476TIP3   OH273918   6.098   6.569  16.584 -0.0814 -0.0142  0.3908
17476TIP3    H173919   6.108   6.530  16.671 -1.0937 -1.0388  0.0688
17476TIP3    H273920   6.167   6.529  16.531 -0.7569 -0.9669  0.2085
17477TIP3   OH273921   6.249   4.816  15.286 -0.0403  0.9626 -0.5526
17477TIP3    H173922   6.294   4.832  15.203  0.4960 -0.9604 -0.6954
17477TIP3    H273923   6.167   4.775  15.262  1.1023 -1.7671 -0.1548
17478TIP3   OH273924   0.543   5.075   2.903  0.0676  0.1456 -0.0046
17478TIP3    H173925   0.556   5.017   2.829 -1.6781 -1.1961  0.6662
17478TIP3    H273926   0.526   5.017   2.977 -0.0705  1.4716  1.0571
17479TIP3   OH273927   4.595   4.223  16.729  0.1455  0.6370  0.1417
17479TIP3    H173928   4.507   4.238  16.763  0.2862 -0.1751  0.8945
17479TIP3    H273929   4.621   4.308  16.693 -1.2898  0.6515 -0.9349
17480TIP3   OH273930   6.743   3.588   1.800 -0.2090  0.9278  0.3612
17480TIP3    H173931   6.779   3.553   1.881 -1.6955  1.2342  1.2065
17480TIP3    H273932   6.819   3.616   1.749  0.7461  0.9175  1.7355
17481TIP3   OH273933   5.350   1.944  13.159  0.8956 -0.4742 -0.4096
17481TIP3    H173934   5.310   1.970  13.242  0.1827  1.4951 -1.3122
17481TIP3    H273935   5.419   1.882  13.185  0.2986 -0.3987  1.5792
17482TIP3   OH273936   0.160   5.481  16.286 -0.1508  0.7036  0.4553
17482TIP3    H173937   0.255   5.486  16.278 -0.1251  1.5468  1.0846
17482TIP3    H273938   0.136   5.557  16.339 -1.1136  0.1688  0.8277
17483TIP3   OH273939   1.661   3.528  12.573 -0.3795 -0.0386 -0.3060
17483TIP3    H173940   1.683   3.436  12.556  0.6570  0.1122  0.1497
17483TIP3    H273941   1.594   3.549  12.508 -0.7428 -1.1574 -0.3181
17484TIP3   OH273942   4.330   5.191   0.490  0.4783  0.1913  0.1747
17484TIP3    H173943   4.320   5.128   0.561 -0.9035  1.5281  1.2534
17484TIP3    H273944   4.273   5.158   0.420 -1.1970  0.8010  1.1926
17485TIP3   OH273945   4.143   5.556  17.467 -0.1820  0.5882  1.1156
17485TIP3    H173946   4.057   5.590  17.441 -0.6178 -1.6766 -0.7315
17485TIP3    H273947   4.204   5.599  17.408 -0.6480 -1.1496 -0.7284
17486TIP3   OH273948   4.413   3.924   3.790 -0.1372 -0.8679  0.0382
17486TIP3    H173949   4.348   3.859   3.765  0.7877 -2.3865  1.3703
17486TIP3    H273950   4.491   3.873   3.813  0.7193  0.7268  0.8954
17487TIP3   OH273951   5.976   6.475  14.303 -0.0906 -0.1238 -0.4021
17487TIP3    H173952   5.996   6.383  14.318 -0.6098 -0.6859 -2.7030
17487TIP3    H273953   5.880   6.479  14.300 -0.0852  0.5604 -0.0210
17488TIP3   OH273954   1.447   0.160   4.321  0.1782  0.3593  0.4298
17488TIP3    H173955   1.468   0.253   4.327  0.5180  0.5391 -2.4383
17488TIP3    H273956   1.363   0.157   4.275 -1.0433 -0.7272  2.5789
17489TIP3   OH273957   1.350   1.935   0.428 -0.0838 -0.2977  0.0427
17489TIP3    H173958   1.342   1.989   0.506 -0.0176 -2.3562  1.5456
17489TIP3    H273959   1.423   1.876   0.447  0.6126 -0.1777 -2.0165
17490TIP3   OH273960   1.278   2.857  16.793  0.2868  0.2606 -0.1610
17490TIP3    H173961   1.226   2.902  16.860  2.5810  1.2056  1.1167
17490TIP3    H273962   1.252   2.765  16.800 -0.6776  0.5975  0.9128
17491TIP3   OH273963   2.811   2.028   0.196 -0.5036  0.5637  0.1529
17491TIP3    H173964   2.851   1.944   0.218 -1.2858  0.0646 -0.3088
17491TIP3    H273965   2.762   2.053   0.274  0.7350  1.2215  0.7568
17492TIP3   OH273966   0.222   5.312   5.308  0.2147  0.4595 -0.0668
17492TIP3    H173967   0.161   5.263   5.362  0.0764 -0.6644 -1.2075
17492TIP3    H273968   0.277   5.246   5.266 -0.7594  1.1047 -2.5986
17493TIP3   OH273969   2.276   3.710  14.858 -0.0693 -0.1544  0.4796
17493TIP3    H173970   2.345   3.699  14.791  0.0611 -0.5563  0.6739
17493TIP3    H273971   2.248   3.801  14.849 -1.0154 -0.5548 -1.0560
17494TIP3   OH273972   4.305   0.063   4.670  0.3669 -0.2502  0.7365
17494TIP3    H173973   4.219   0.085   4.706  0.3036  0.7658  0.0078
17494TIP3    H273974   4.286   0.028   4.583  0.6232 -1.2101  1.0531
17495TIP3   OH273975   0.747   5.497   2.009 -0.3961 -0.0613 -0.2593
17495TIP3    H173976   0.790   5.457   2.084  0.4280 -0.9813 -1.2046
17495TIP3    H273977   0.655   5.471   2.017 -0.8483  1.8375  1.7200
17496TIP3   OH273978   4.457   6.081  10.505 -0.3819  0.0821  0.7491
17496TIP3    H173979   4.518   6.069  10.433  2.6599 -0.2264  3.1424
17496TIP3    H273980   4.424   5.993  10.523 -0.9557  0.1217 -0.0691
17497TIP3   OH273981   0.658   5.669  16.881 -0.0597  0.5648  0.3674
17497TIP3    H173982   0.597   5.741  16.873 -0.6823 -0.0284 -0.3995
17497TIP3    H273983   0.645   5.617  16.801  0.8403 -0.0322  0.5863
17498TIP3   OH273984   5.686   6.319   6.509  0.2265  0.5582 -0.6308
17498TIP3    H173985   5.641   6.281   6.585 -0.7239 -1.1765 -1.9720
17498TIP3    H273986   5.624   6.382   6.473  0.5441  1.1413 -0.1654
17499TIP3   OH273987   0.651   6.310  14.548 -0.3961  0.7039 -0.2900
17499TIP3    H173988   0.586   6.324  14.617 -0.1917 -0.1847  0.0898
17499TIP3    H273989   0.732   6.291  14.594 -0.0679  0.9093 -0.7725
17500TIP3   OH273990   3.201   0.578  14.574  0.8236  0.3059  0.4781
17500TIP3    H173991   3.142   0.521  14.524  0.6662  0.2924  0.6766
17500TIP3    H273992   3.250   0.519  14.631  0.9580  0.3273  0.3853
17501TIP3   OH273993   3.873   2.081   2.496  0.0217 -0.2900  0.0772
17501TIP3    H173994   3.924   2.008   2.460  0.2171  0.8184 -2.0616
17501TIP3    H273995   3.901   2.157   2.446 -1.3004  0.9891  1.1800
17502TIP3   OH273996   0.036   4.640  16.970  0.3486  0.1604 -0.4925
17502TIP3    H173997  -0.055   4.644  16.940  0.7732 -2.0676 -2.3080
17502TIP3    H273998   0.032   4.668  17.062 -2.4868 -1.6930  0.0715
17503TIP3   OH273999   3.353   0.164   2.888 -0.0497  0.1511  0.0770
17503TIP3    H174000   3.268   0.121   2.887 -0.3822  0.8055 -0.4555
17503TIP3    H274001   3.354   0.218   2.809 -0.7616  3.2163  1.9872
17504TIP3   OH274002   5.441   2.520  16.023 -0.1103  0.1956 -0.0278
17504TIP3    H174003   5.397   2.552  16.102  1.3440  2.3118  0.0024
17504TIP3    H274004   5.435   2.424  16.030 -0.4400  0.3266  2.3947
17505TIP3   OH274005   2.906   1.654  16.259 -0.6204  0.0523  0.4717
17505TIP3    H174006   2.945   1.727  16.210 -0.8389  1.1350  1.8437
17505TIP3    H274007   2.972   1.585  16.255  0.2366  0.8463  0.3820
17506TIP3   OH274008   2.245   0.204   4.347  0.2944  0.7139  0.3401
17506TIP3    H174009   2.194   0.134   4.388 -1.6101  1.2903 -0.8927
17506TIP3    H274010   2.181   0.254   4.297  1.8589  2.4274 -0.0692
17507TIP3   OH274011   3.991   4.022  14.451  0.0432  0.1768  0.0317
17507TIP3    H174012   3.911   4.019  14.399  0.7766  0.0406 -1.1209
17507TIP3    H274013   4.026   3.932  14.446  1.8047  0.8854 -2.0005
17508TIP3   OH274014   5.258   1.873  12.768  0.2811 -0.0088  0.0176
17508TIP3    H174015   5.244   1.965  12.791  2.8559  0.7164 -1.0003
17508TIP3    H274016   5.209   1.860  12.687  0.7188  0.7858 -0.3845
17509TIP3   OH274017   0.647   5.248  13.831  0.3056 -0.0965 -0.2298
17509TIP3    H174018   0.731   5.202  13.839  0.9030  0.6133 -1.8442
17509TIP3    H274019   0.669   5.329  13.784 -1.0989  0.7005  0.4262
17510TIP3   OH274020   2.228   5.523  17.054 -0.5040 -0.4780 -0.4651
17510TIP3    H174021   2.232   5.451  17.117  2.9667 -0.5953 -0.6255
17510TIP3    H274022   2.226   5.602  17.109 -0.9907 -0.6168 -0.2727
17511TIP3   OH274023   4.304   4.089  17.104  0.5034  0.0969  0.5647
17511TIP3    H174024   4.315   4.183  17.089  0.2940  0.2056  1.0630
17511TIP3    H274025   4.212   4.079  17.125  0.1696 -0.4470 -1.0103
17512TIP3   OH274026   0.075   4.656   2.331  0.0271  0.2472  0.2513
17512TIP3    H174027   0.084   4.621   2.420 -0.9656  0.1729  0.3394
17512TIP3    H274028   0.026   4.738   2.342 -0.6179 -0.0541 -0.2621
17513TIP3   OH274029   4.675   1.503   5.641 -0.0109 -0.1547 -0.1258
17513TIP3    H174030   4.692   1.576   5.582 -0.0874 -0.6408 -0.7595
17513TIP3    H274031   4.588   1.521   5.678 -0.4224 -0.3678 -0.9669
17514TIP3   OH274032   4.026   2.989   1.978 -0.0051 -0.2076  0.3143
17514TIP3    H174033   4.036   3.081   1.954  0.4914  0.0802  1.5688
17514TIP3    H274034   4.110   2.964   2.016 -0.4580 -0.8951  0.9033
17515TIP3   OH274035   4.831   0.274  11.787 -0.0222 -0.1300 -0.3691
17515TIP3    H174036   4.894   0.227  11.732 -0.0322  0.2163 -0.6800
17515TIP3    H274037   4.745   0.245  11.757 -0.0383  0.3952 -0.8431
17516TIP3   OH274038   3.991   5.247   2.236 -0.0221  0.9796 -0.2386
17516TIP3    H174039   4.029   5.325   2.278  0.4830  1.6698 -1.8815
17516TIP3    H274040   4.054   5.224   2.167  0.1392 -1.2625  0.5573
17517TIP3   OH274041   6.029   3.984  10.985 -0.3849 -0.1711  0.6139
17517TIP3    H174042   5.999   3.906  10.937 -1.0447  0.8602 -0.7160
17517TIP3    H274043   5.948   4.029  11.010 -0.0392 -0.4725  2.4188
17518TIP3   OH274044   6.140   6.421  16.813 -0.2259 -0.3444  0.4190
17518TIP3    H174045   6.185   6.348  16.857 -0.3856 -1.0936 -0.6150
17518TIP3    H274046   6.161   6.498  16.866  0.1771 -1.0923  1.3837
17519TIP3   OH274047   5.594   0.557  16.858 -0.3047 -0.1290  0.0963
17519TIP3    H174048   5.584   0.476  16.908  0.4009 -1.1255 -1.3082
17519TIP3    H274049   5.604   0.625  16.925  2.1434 -1.5862  1.3749
17520TIP3   OH274050   4.600   5.650  11.074  0.1955  0.7583  0.2784
17520TIP3    H174051   4.543   5.573  11.071 -0.9127  1.5842 -1.0447
17520TIP3    H274052   4.664   5.635  11.004 -0.0575  1.0364 -0.0207
17521TIP3   OH274053   0.987   2.995  15.802  0.1134 -0.0345 -0.0707
17521TIP3    H174054   0.981   3.024  15.711  1.2197  0.3773 -0.0280
17521TIP3    H274055   0.923   2.924  15.809  0.2822 -0.3216 -1.2748
17522TIP3   OH274056   1.646   3.230   4.851 -0.1297 -0.4208 -0.3477
17522TIP3    H174057   1.567   3.176   4.857 -0.0851 -0.3090  2.7034
17522TIP3    H274058   1.716   3.174   4.885  0.5262  0.4662 -0.1899
17523TIP3   OH274059   1.820   1.656  14.650 -0.3212  0.3186  0.0587
17523TIP3    H174060   1.813   1.630  14.558 -0.5062  2.3937 -0.5583
17523TIP3    H274061   1.768   1.736  14.656 -1.1456 -0.3107  2.2184
17524TIP3   OH274062   2.759   6.340   5.669 -0.3462  0.0280 -0.6303
17524TIP3    H174063   2.688   6.365   5.728 -0.3354 -1.6379  0.1552
17524TIP3    H274064   2.718   6.333   5.583 -1.9136 -3.5765  0.2010
17525TIP3   OH274065   5.058   6.378   6.019  0.0465  0.2931 -0.5041
17525TIP3    H174066   5.103   6.317   6.077  0.0466 -0.7517 -1.5510
17525TIP3    H274067   4.968   6.347   6.016  0.4386 -0.8931 -2.5086
17526TIP3   OH274068   3.454   3.631  15.194  0.3346 -0.3132 -0.2507
17526TIP3    H174069   3.469   3.721  15.224  1.1897 -0.7649  0.7506
17526TIP3    H274070   3.367   3.610  15.227  0.4156 -0.0842  0.1185
17527TIP3   OH274071   2.912   6.012  15.173  0.4604 -0.2516  0.0205
17527TIP3    H174072   2.843   6.076  15.188  0.7279  0.4300 -1.4828
17527TIP3    H274073   2.980   6.060  15.125  0.2456 -1.8583 -2.0338
17528TIP3   OH274074   3.389   3.182   8.318  0.4541  0.5354 -0.0253
17528TIP3    H174075   3.427   3.094   8.311  0.9964  0.7394  0.3199
17528TIP3    H274076   3.306   3.176   8.270  0.5718 -0.1156 -0.1570
17529TIP3   OH274077   4.596   6.292  14.165  0.1494 -1.0551 -0.0768
17529TIP3    H174078   4.564   6.314  14.253 -0.9661 -2.4284 -0.1088
17529TIP3    H274079   4.533   6.334  14.106 -0.4303 -2.0184 -0.1667
17530TIP3   OH274080   0.813   1.136  12.832 -0.0691 -0.1688  0.4833
17530TIP3    H174081   0.862   1.188  12.768 -0.2322 -0.5400  0.0570
17530TIP3    H274082   0.871   1.063  12.853 -1.7367 -2.6434 -2.7045
17531TIP3   OH274083   0.004   6.625   1.841 -0.1304 -0.1272  0.6053
17531TIP3    H174084   0.078   6.608   1.898  0.4819  0.1121 -0.0961
17531TIP3    H274085  -0.064   6.564   1.869  0.0819  0.1342  1.7143
17532TIP3   OH274086   6.631   6.623  16.241 -0.1696 -0.1353 -0.0642
17532TIP3    H174087   6.618   6.638  16.334 -1.5795 -0.1468 -0.2380
17532TIP3    H274088   6.616   6.530  16.229 -1.0947  0.0514 -0.4550
17533TIP3   OH274089   2.066   2.120  13.292  0.3890  0.3237 -0.2549
17533TIP3    H174090   2.105   2.057  13.232 -0.8150  0.4544 -1.2157
17533TIP3    H274091   2.014   2.177  13.236 -1.4330 -0.0489  0.9892
17534TIP3   OH274092   1.635   3.444   1.470 -0.6132  0.0061 -0.1557
17534TIP3    H174093   1.724   3.464   1.499 -1.0787 -1.0101  2.2401
17534TIP3    H274094   1.606   3.523   1.425  0.0522  2.0343  2.6947
17535TIP3   OH274095   1.480   2.957   4.104 -0.5793 -0.6192 -0.4032
17535TIP3    H174096   1.457   2.943   4.196  1.3768 -1.2014  0.0404
17535TIP3    H274097   1.448   3.045   4.085 -0.7896 -0.3831  0.9095
17536TIP3   OH274098   3.938   3.629  15.585 -0.2125 -0.0655  0.5350
17536TIP3    H174099   3.996   3.604  15.657 -1.4221 -0.1860  1.4974
17536TIP3    H274100   3.991   3.687  15.531  1.3255 -1.4657  0.4880
17537TIP3   OH274101   5.573   0.426  12.936 -0.1063 -0.0740 -0.5346
17537TIP3    H174102   5.488   0.418  12.892 -0.6555 -0.5884  0.5788
17537TIP3    H274103   5.552   0.419  13.030  1.3657 -2.0551 -0.2917
17538TIP3   OH274104   5.467   4.480  15.386  0.0584 -0.1408 -0.2404
17538TIP3    H174105   5.507   4.500  15.470  1.3241  1.3703 -1.1348
17538TIP3    H274106   5.380   4.447  15.407  0.6530 -0.5897  1.6664
17539TIP3   OH274107   3.718   4.031   1.570 -0.3315  0.8445 -0.0380
17539TIP3    H174108   3.720   4.120   1.535 -1.0700  0.8764 -0.0221
17539TIP3    H274109   3.694   4.042   1.662 -1.3446  0.5772 -0.2591
17540TIP3   OH274110   2.695   1.953  14.589  0.6194 -0.0919 -0.4173
17540TIP3    H174111   2.778   1.907  14.606 -0.1589 -0.8056  1.6940
17540TIP3    H274112   2.644   1.891  14.538  0.0613 -1.1496  1.3408
17541TIP3   OH274113   4.448   5.841  10.970 -0.5522  0.5882  0.1271
17541TIP3    H174114   4.492   5.775  11.023 -0.2528  0.8637  0.2253
17541TIP3    H274115   4.489   5.835  10.884 -0.5998  0.5707  0.1052
17542TIP3   OH274116   4.844   4.265  15.801 -0.4139 -0.0739 -0.2522
17542TIP3    H174117   4.795   4.195  15.757 -2.1407 -1.0874  2.9543
17542TIP3    H274118   4.786   4.341  15.796 -0.6987 -0.2439  0.3854
17543TIP3   OH274119   3.998   1.017   4.483  0.2019 -0.5516 -0.6831
17543TIP3    H174120   3.945   0.952   4.528 -1.3670  0.9543 -0.2750
17543TIP3    H274121   4.081   1.018   4.531 -0.8521 -0.1161  1.2199
17544TIP3   OH274122   4.422   3.937  11.199  0.3135  0.1084 -0.0731
17544TIP3    H174123   4.440   4.005  11.265  1.2001  1.5600 -1.7320
17544TIP3    H274124   4.478   3.961  11.125 -1.0981 -1.1320 -1.5923
17545TIP3   OH274125   3.523   3.340   2.215  0.4162  0.4221  0.1740
17545TIP3    H174126   3.496   3.308   2.301  1.8397  0.9058  0.8320
17545TIP3    H274127   3.443   3.376   2.176 -0.7516 -1.8048  0.3344
17546TIP3   OH274128   3.731   4.113  13.681 -0.3418  0.6109  0.4463
17546TIP3    H174129   3.716   4.208  13.688  1.3048  0.9087  0.2097
17546TIP3    H274130   3.825   4.103  13.693 -0.2753 -0.8573 -1.0468
17547TIP3   OH274131   3.146   0.188   2.140 -0.9454  0.1176 -0.0882
17547TIP3    H174132   3.133   0.205   2.046 -3.7065  1.0550  0.3724
17547TIP3    H274133   3.189   0.267   2.173  1.1647 -0.6938 -0.6697
17548TIP3   OH274134   6.548   4.836   1.073 -0.2416 -0.1229  0.7572
17548TIP3    H174135   6.616   4.855   1.009  0.0136 -1.3484  0.6458
17548TIP3    H274136   6.478   4.794   1.024 -1.3688  1.6317  0.7679
17549TIP3   OH274137   4.813   2.298  15.366 -0.0769 -0.1194  0.4922
17549TIP3    H174138   4.855   2.214  15.345  0.3219 -0.2456  1.7089
17549TIP3    H274139   4.886   2.359  15.377 -0.3647  0.4072 -0.3944
17550TIP3   OH274140   0.051   1.885  17.322 -0.5657  0.7111  0.3903
17550TIP3    H174141   0.064   1.893  17.227 -0.5998 -0.4713  0.2705
17550TIP3    H274142   0.134   1.848  17.354 -0.9376  0.0946  0.6636
17551TIP3   OH274143   3.955   4.837  13.988 -0.4048 -0.3086  0.2223
17551TIP3    H174144   3.917   4.856  13.902  1.9151 -1.4147 -1.1480
17551TIP3    H274145   3.891   4.780  14.031 -0.4428 -1.9886 -1.9132
17552TIP3   OH274146   4.306   1.047  13.555 -0.0060 -0.3987  0.1648
17552TIP3    H174147   4.251   1.060  13.633  0.0012 -1.9338  0.4429
17552TIP3    H274148   4.248   1.068  13.481 -1.3586 -2.9930  0.3887
17553TIP3   OH274149   0.952   4.258  15.165 -0.1671  0.0118 -0.2473
17553TIP3    H174150   0.961   4.343  15.121 -2.7524 -0.8814 -2.8157
17553TIP3    H274151   1.041   4.222  15.166  0.3431  0.8710 -3.3197
17554TIP3   OH274152   2.768   1.294  12.420 -0.3920 -0.3015 -0.6502
17554TIP3    H174153   2.737   1.361  12.480 -4.2546 -1.5619 -1.0063
17554TIP3    H274154   2.850   1.264  12.459 -1.4517  0.6349  2.6356
17555TIP3   OH274155   0.215   0.438   6.863  0.3947 -0.1511  0.1615
17555TIP3    H174156   0.128   0.436   6.823  0.0493 -0.9438  0.9295
17555TIP3    H274157   0.234   0.531   6.873 -0.0329  0.0486 -0.6975
17556TIP3   OH274158   2.303   0.963   4.537 -0.4725  0.7593  0.6722
17556TIP3    H174159   2.254   0.891   4.578  1.9426 -1.3527  0.1292
17556TIP3    H274160   2.368   0.988   4.603 -1.1593  2.3992  0.7754
17557TIP3   OH274161   5.969   4.315  16.760 -0.1103  0.2109  0.2787
17557TIP3    H174162   6.028   4.291  16.689 -1.1434 -0.4974 -0.3631
17557TIP3    H274163   5.929   4.397  16.732 -1.0621 -0.4333 -0.3338
17558TIP3   OH274164   4.381   1.164  14.267  0.0059  0.4633 -0.2465
17558TIP3    H174165   4.300   1.184  14.316 -0.7377 -0.3261 -1.1204
17558TIP3    H274166   4.385   1.232  14.199  0.4813  0.9340  0.2383
17559TIP3   OH274167   4.190   3.317  16.561  0.2215 -0.5494 -0.2824
17559TIP3    H174168   4.252   3.382  16.594  0.3496 -0.5383 -0.5405
17559TIP3    H274169   4.204   3.240  16.617  0.3451 -0.4887 -0.2300
17560TIP3   OH274170   2.772   2.468  14.380 -0.0993  0.4809  1.0282
17560TIP3    H174171   2.702   2.451  14.444 -0.9257  1.4251  0.3915
17560TIP3    H274172   2.851   2.476  14.434 -0.5573 -0.0323  1.8104
17561TIP3   OH274173   6.047   5.062   0.335  0.3375  0.0806  0.2830
17561TIP3    H174174   6.098   4.982   0.330 -0.4580 -0.5276  1.5455
17561TIP3    H274175   6.030   5.085   0.243  2.2430 -0.0742 -0.1458
17562TIP3   OH274176   0.476   1.625   4.530  0.2385 -0.0463  0.1623
17562TIP3    H174177   0.453   1.551   4.474 -2.0086  0.6145  0.1302
17562TIP3    H274178   0.547   1.592   4.585 -0.6268 -2.1929  0.0860
17563TIP3   OH274179   4.721   4.713  14.865  0.1583 -0.2471 -0.2974
17563TIP3    H174180   4.788   4.781  14.859  0.3570 -0.5181 -1.4861
17563TIP3    H274181   4.733   4.675  14.952  0.1886  1.0698  0.2940
17564TIP3   OH274182   4.022   2.549  12.110  0.3028  0.2607 -0.5134
17564TIP3    H174183   4.057   2.547  12.199 -2.2732  1.0827  0.6107
17564TIP3    H274184   4.022   2.457  12.082  0.6066 -0.0890  0.5818
17565TIP3   OH274185   5.180   2.464  12.037  0.0802  0.5126  0.3377
17565TIP3    H174186   5.250   2.400  12.055  0.5980  0.9226 -0.1746
17565TIP3    H274187   5.224   2.549  12.042 -0.7497  0.8900  1.7358
17566TIP3   OH274188   2.317   4.535  13.764  0.3514  0.0796  0.5358
17566TIP3    H174189   2.247   4.505  13.706  0.4663 -0.0057  0.4412
17566TIP3    H274190   2.362   4.455  13.790  1.0428  0.2214 -0.2041
17567TIP3   OH274191   5.857   3.286   5.268 -0.4801 -0.0527 -0.1643
17567TIP3    H174192   5.881   3.321   5.182 -0.2890 -1.2383 -0.6023
17567TIP3    H274193   5.761   3.284   5.267 -0.4651 -1.8802 -1.1241
17568TIP3   OH274194   5.728   2.047  10.878 -0.2600  0.1748 -0.4278
17568TIP3    H174195   5.813   2.089  10.888 -0.8708  1.3057  0.2083
17568TIP3    H274196   5.738   1.963  10.924  1.2531 -0.8794 -2.5111
17569TIP3   OH274197   3.638   1.135   2.964  0.3694 -0.3530  0.0974
17569TIP3    H174198   3.556   1.115   2.919  0.1362  1.2762 -0.2656
17569TIP3    H274199   3.638   1.077   3.040 -0.4389 -1.3583 -0.6341
17570TIP3   OH274200   2.092   3.161   3.922 -0.5659 -0.0865 -0.2148
17570TIP3    H174201   2.040   3.081   3.927 -2.4956  1.0083 -1.3846
17570TIP3    H274202   2.175   3.134   3.884 -0.3635 -1.8359  1.3128
17571TIP3   OH274203   5.700   4.466   4.953 -0.3500  0.1544 -0.0516
17571TIP3    H174204   5.718   4.376   4.977  1.5931  0.6452  0.5243
17571TIP3    H274205   5.703   4.467   4.857 -0.0323 -0.3226 -0.0496
17572TIP3   OH274206   1.107   6.401  16.389  0.0223  0.1307 -0.3071
17572TIP3    H174207   1.080   6.382  16.299 -0.7632 -1.3494  0.1993
17572TIP3    H274208   1.071   6.488  16.406 -1.7089 -0.4435 -0.7494
17573TIP3   OH274209   6.440   0.209   3.057 -0.5242  0.3801  0.3509
17573TIP3    H174210   6.433   0.302   3.035  0.2803  0.5302  0.6833
17573TIP3    H274211   6.350   0.177   3.059 -0.9755  1.6151  2.2206
17574TIP3   OH274212   2.477   4.091  16.397  0.0637  0.0102 -0.2332
17574TIP3    H174213   2.397   4.136  16.422  0.7905  0.7838  0.8001
17574TIP3    H274214   2.479   4.096  16.301 -1.0067  0.1426 -0.2580
17575TIP3   OH274215   2.436   5.873  14.977 -0.5613  0.0071  0.4736
17575TIP3    H174216   2.497   5.914  14.916 -1.7615  0.5761 -0.3779
17575TIP3    H274217   2.404   5.944  15.032 -0.4837 -0.2824  0.9010
17576TIP3   OH274218   5.269   0.762  14.281  0.3492  0.7232 -0.0112
17576TIP3    H174219   5.224   0.823  14.339  0.3255  0.3959  0.3189
17576TIP3    H274220   5.285   0.812  14.201 -0.5110  0.8697 -0.0994
17577TIP3   OH274221   0.637   4.930  16.921 -0.1879  0.0563  0.3363
17577TIP3    H174222   0.689   4.931  17.001  0.1170 -0.2858  0.1473
17577TIP3    H274223   0.626   4.837  16.900 -1.2244  0.1005  0.5940
17578TIP3   OH274224   3.591   4.820   2.465 -0.1078 -0.4861  0.0880
17578TIP3    H174225   3.586   4.868   2.548  1.4667  0.0802 -0.1072
17578TIP3    H274226   3.501   4.792   2.448 -0.9736  1.7603  0.5746
17579TIP3   OH274227   0.363   2.526  17.166  0.1651  0.0389 -0.5779
17579TIP3    H174228   0.362   2.491  17.255 -1.7511  0.1677 -0.5205
17579TIP3    H274229   0.416   2.606  17.173 -0.6101  0.4716  0.6257
17580TIP3   OH274230   6.427   3.442   3.557  0.3776 -0.2551 -0.2250
17580TIP3    H174231   6.345   3.482   3.588 -0.1352 -0.1584 -1.6302
17580TIP3    H274232   6.462   3.396   3.633 -1.0560 -0.4111  0.3693
17581TIP3   OH274233   4.418   6.597  13.889 -0.2373 -0.3795 -0.1782
17581TIP3    H174234   4.502   6.588  13.934 -0.0061 -0.5147 -0.6287
17581TIP3    H274235   4.404   6.691  13.881  0.0929 -0.3524 -0.4985
17582TIP3   OH274236   5.231   6.383  15.222  0.0580  0.1352  0.7117
17582TIP3    H174237   5.282   6.440  15.165 -0.8920 -0.1598 -0.4793
17582TIP3    H274238   5.221   6.302  15.171 -0.9866 -0.0567  1.2027
17583TIP3   OH274239   3.565   5.197   2.493 -0.6300 -0.2678 -0.4730
17583TIP3    H174240   3.640   5.174   2.440 -0.9886 -2.5627 -0.1256
17583TIP3    H274241   3.588   5.167   2.581 -1.1273  0.9428  0.0913
17584TIP3   OH274242   3.308   4.543   5.522  0.2710 -1.1679 -0.0989
17584TIP3    H174243   3.276   4.560   5.610  0.4269 -1.8245  0.0916
17584TIP3    H274244   3.399   4.515   5.535 -0.2006 -2.9448 -0.2979
17585TIP3   OH274245   6.179   5.020   3.122  0.4737 -0.3228  0.3490
17585TIP3    H174246   6.095   5.022   3.076  0.4986  0.8745  0.3338
17585TIP3    H274247   6.223   4.941   3.089 -0.4001 -0.6392 -0.0729
17586TIP3   OH274248   5.653   5.313  17.319  0.0536 -0.4227  0.0682
17586TIP3    H174249   5.574   5.340  17.365 -1.1698 -1.7211 -1.1713
17586TIP3    H274250   5.653   5.365  17.238  0.2948 -0.6552 -0.0823
17587TIP3   OH274251   2.350   0.611  12.245 -0.2962  0.4086  0.3615
17587TIP3    H174252   2.306   0.650  12.169 -0.4805  1.2221  0.8713
17587TIP3    H274253   2.400   0.683  12.283  1.4191 -0.4720 -0.1450
17588TIP3   OH274254   6.233   1.709   0.447 -0.4176  0.2724  0.2079
17588TIP3    H174255   6.138   1.722   0.440 -0.4919 -0.6622 -0.7420
17588TIP3    H274256   6.253   1.728   0.538 -1.1859  2.5814 -0.0310
17589TIP3   OH274257   0.675   2.977   0.274  0.4648  0.1309 -0.4648
17589TIP3    H174258   0.740   2.937   0.216  0.5785 -0.2191 -0.0962
17589TIP3    H274259   0.725   3.040   0.326  0.1709  1.2958 -1.5301
17590TIP3   OH274260   3.068   5.008  13.552  0.8159  0.2051 -0.1298
17590TIP3    H174261   3.098   4.917  13.557 -1.6828 -0.8167 -1.4023
17590TIP3    H274262   3.111   5.044  13.475 -1.0227 -1.2249 -1.9413
17591TIP3   OH274263   2.465   0.393   1.728 -0.4323 -0.5284 -0.3527
17591TIP3    H174264   2.448   0.465   1.667  0.1382  0.5711  0.7552
17591TIP3    H274265   2.394   0.331   1.712 -1.7294  0.9103 -0.3779
17592TIP3   OH274266   1.756   0.458   2.843 -0.6548 -0.2743 -0.8166
17592TIP3    H174267   1.700   0.525   2.883 -0.9496 -1.0594  0.1054
17592TIP3    H274268   1.704   0.378   2.845 -0.0610 -0.6799 -1.3222
17593TIP3   OH274269   0.411   2.230   4.479  0.3953 -0.1211 -0.6642
17593TIP3    H174270   0.356   2.166   4.525  1.5690 -0.1937  0.6968
17593TIP3    H274271   0.355   2.306   4.468 -0.5027 -0.7848 -0.8421
17594TIP3   OH274272   6.703   1.979  11.564  0.2815 -0.1897 -0.1765
17594TIP3    H174273   6.720   1.888  11.544  1.7357 -0.1048  0.5679
17594TIP3    H274274   6.692   2.021  11.479 -1.0445 -1.1378 -0.5097
17595TIP3   OH274275   2.711   3.566  17.002 -0.2558 -0.8881 -0.2738
17595TIP3    H174276   2.663   3.636  16.959 -1.2958 -2.1643 -1.2848
17595TIP3    H274277   2.803   3.584  16.984 -0.5512 -0.1402 -1.0526
17596TIP3   OH274278   1.894   1.016   0.568 -0.3875 -0.6815 -0.4022
17596TIP3    H174279   1.955   1.089   0.557  0.5592 -1.7386 -3.1767
17596TIP3    H274280   1.918   0.976   0.651 -2.5518  3.4177  2.5926
17597TIP3   OH274281   4.317   6.706  12.910 -0.5652  0.3191 -0.3581
17597TIP3    H174282   4.412   6.700  12.921 -0.5672 -1.4537 -0.9955
17597TIP3    H274283   4.282   6.647  12.976 -1.0936 -0.8794 -1.6729
17598TIP3   OH274284   2.695   5.155   3.443  0.0786  0.1788 -0.2946
17598TIP3    H174285   2.663   5.145   3.532 -2.2576 -0.6292 -1.1474
17598TIP3    H274286   2.616   5.164   3.390  1.3621 -0.2043 -2.3883
17599TIP3   OH274287   3.014   1.565  13.469  0.0148 -0.1955  0.7131
17599TIP3    H174288   3.068   1.617  13.528 -0.4370 -0.2248  1.1607
17599TIP3    H274289   3.042   1.591  13.381 -0.2355  0.8513  0.9228
17600TIP3   OH274290   4.003   3.453  13.533  0.8737 -0.1004 -0.0705
17600TIP3    H174291   3.938   3.522  13.518 -1.8843 -2.4770  0.2303
17600TIP3    H274292   3.985   3.421  13.621  1.8425 -1.4655 -0.3390
17601TIP3   OH274293   0.527   4.827  17.202  0.3727  0.4696 -0.2436
17601TIP3    H174294   0.484   4.912  17.197 -0.0635  0.2437 -0.4143
17601TIP3    H274295   0.484   4.774  17.134  1.4217  0.4556 -0.9313
17602TIP3   OH274296   1.447   0.765  11.759 -0.0167  0.5257 -0.5658
17602TIP3    H174297   1.514   0.711  11.801 -0.4150 -2.0137 -2.9079
17602TIP3    H274298   1.395   0.800  11.831  1.7204 -0.2583  1.1604
17603TIP3   OH274299   2.382   0.589   2.244 -0.0780  0.4701  0.1064
17603TIP3    H174300   2.319   0.586   2.172  0.4254 -0.8475 -0.3129
17603TIP3    H274301   2.463   0.620   2.203 -0.1739  1.1269  0.4149
17604TIP3   OH274302   4.071   2.211  14.867  0.1459  0.1175 -0.8396
17604TIP3    H174303   3.980   2.234  14.851 -0.3950 -2.0356 -1.1349
17604TIP3    H274304   4.116   2.233  14.785 -0.0934  1.0856 -0.7270
17605TIP3   OH274305   4.640   5.454  11.722 -0.1657 -0.2421  0.4780
17605TIP3    H174306   4.687   5.396  11.783  0.4831 -0.1002  0.1174
17605TIP3    H274307   4.636   5.405  11.640  1.0753  0.5106 -0.0642
17606TIP3   OH274308   1.187   2.020   6.156 -0.0009 -0.0825  0.6595
17606TIP3    H174309   1.147   1.954   6.099  0.0225  1.0074 -0.6827
17606TIP3    H274310   1.155   2.104   6.121 -0.1662  0.6268  2.4217
17607TIP3   OH274311   1.241   2.755   4.883 -0.6979 -0.2732  0.3507
17607TIP3    H174312   1.226   2.780   4.974 -1.6608 -0.0266  0.1385
17607TIP3    H274313   1.208   2.665   4.877  0.1044 -0.5738  0.4340
17608TIP3   OH274314   4.992   4.497   5.698  0.2122 -0.0717  0.0235
17608TIP3    H174315   5.075   4.452   5.684 -0.3803 -1.2891  0.3336
17608TIP3    H274316   5.010   4.560   5.768  0.4834 -1.4374  1.2172
17609TIP3   OH274317   0.848   2.431   5.048 -0.2517  0.6854 -0.7685
17609TIP3    H174318   0.797   2.511   5.065 -0.8275  0.3422 -0.8768
17609TIP3    H274319   0.811   2.366   5.108  1.3580  0.9418  0.5793
17610TIP3   OH274320   0.136   3.385   5.028 -0.0483 -0.2009 -0.1332
17610TIP3    H174321   0.104   3.410   4.941 -1.7512  0.8693  0.7367
17610TIP3    H274322   0.216   3.437   5.039 -1.5532  2.2181  0.1540
17611TIP3   OH274323   0.248   1.644   3.368 -0.0966 -0.7602  0.2525
17611TIP3    H174324   0.308   1.699   3.318 -0.2551 -0.5764  0.2598
17611TIP3    H274325   0.189   1.607   3.303 -1.6664  1.1772  0.4816
17612TIP3   OH274326   4.338   5.830   5.644 -0.4480  0.7667 -0.1434
17612TIP3    H174327   4.415   5.870   5.603 -1.0784  2.5558  0.3351
17612TIP3    H274328   4.374   5.769   5.708  0.5665  0.8728 -0.5980
17613TIP3   OH274329   5.458   1.697   4.324  0.3368 -0.5558 -0.3935
17613TIP3    H174330   5.481   1.663   4.237  1.3543 -0.1345 -0.3062
17613TIP3    H274331   5.522   1.657   4.383 -0.0811 -0.5056  0.0956
17614TIP3   OH274332   4.384   0.437  11.638 -0.0543 -0.3068 -0.1043
17614TIP3    H174333   4.442   0.361  11.645 -0.4173 -0.4909  1.3098
17614TIP3    H274334   4.304   0.409  11.683 -0.2849  0.8107  0.1932
17615TIP3   OH274335   4.458   5.719   0.739 -0.6468  0.1421 -0.3420
17615TIP3    H174336   4.385   5.729   0.677 -1.2191 -0.3499  0.2423
17615TIP3    H274337   4.468   5.806   0.778 -0.5247  0.3622 -0.8534
17616TIP3   OH274338   4.370   2.335   1.366 -0.2099  0.6975 -0.2501
17616TIP3    H174339   4.301   2.397   1.343 -1.4362 -0.6336 -0.2589
17616TIP3    H274340   4.429   2.336   1.290 -1.7798 -0.2698 -1.5476
17617TIP3   OH274341   6.363   5.435  12.011  0.0358  0.2795 -0.1848
17617TIP3    H174342   6.409   5.370  11.958  0.3961 -0.1995  0.7093
17617TIP3    H274343   6.271   5.406  12.008  0.2055 -0.3307  0.2806
17618TIP3   OH274344   0.483   0.478   1.032 -0.0286  0.2332  0.6418
17618TIP3    H174345   0.574   0.476   1.000  0.7436 -0.2096  2.7068
17618TIP3    H274346   0.455   0.386   1.029  0.2401  0.1040  1.6591
17619TIP3   OH274347   5.308   6.567  15.019 -0.5496  0.2364  0.5994
17619TIP3    H174348   5.364   6.636  15.056 -0.0161  1.0647 -1.5367
17619TIP3    H274349   5.226   6.612  14.998 -0.0127  0.4176 -1.2897
17620TIP3   OH274350   2.960   1.855  16.522 -0.1105  0.1941  0.3226
17620TIP3    H174351   2.948   1.849  16.616  3.1568 -2.3446  0.7577
17620TIP3    H274352   2.944   1.766  16.490  2.1325  0.1821 -0.9591
17621TIP3   OH274353   0.240   2.384   3.925  0.8516 -0.3061  0.2186
17621TIP3    H174354   0.303   2.382   3.997  1.0560  0.4878  0.0775
17621TIP3    H274355   0.161   2.345   3.961  0.9653  0.0365  0.8635
17622TIP3   OH274356   6.056   4.262  13.556 -0.1754  0.3775  0.0301
17622TIP3    H174357   5.994   4.190  13.546 -1.1465  1.0242  1.1365
17622TIP3    H274358   6.015   4.336  13.512  0.5060  0.4618 -0.5009
17623TIP3   OH274359   5.555   5.544  11.144 -0.3820 -0.3209  0.7479
17623TIP3    H174360   5.634   5.566  11.095 -0.6227  0.1621  0.5603
17623TIP3    H274361   5.532   5.625  11.190 -2.2564  0.4195 -1.2961
17624TIP3   OH274362   3.644   1.747  11.324  0.1454  0.1851 -0.0156
17624TIP3    H174363   3.712   1.799  11.281 -0.4438 -0.6164 -2.0646
17624TIP3    H274364   3.562   1.794  11.306  0.1033  1.4781  2.9578
17625TIP3   OH274365   6.026   3.471  16.622 -0.2736  0.0738 -0.5751
17625TIP3    H174366   5.975   3.399  16.584  0.0421  0.4445 -1.7520
17625TIP3    H274367   6.103   3.429  16.660  0.0171 -0.2121 -1.4459
17626TIP3   OH274368   2.520   4.434   5.590 -0.5239  0.0839  0.7836
17626TIP3    H174369   2.494   4.356   5.639 -0.4334 -0.1762  0.4256
17626TIP3    H274370   2.463   4.504   5.623  0.5746  0.2845  2.3639
17627TIP3   OH274371   1.058   2.126  14.484  0.0867 -0.3558  0.0889
17627TIP3    H174372   1.112   2.047  14.479 -0.0411 -0.3423 -2.6512
17627TIP3    H274373   1.121   2.198  14.475 -0.0630 -0.2075  0.2213
17628TIP3   OH274374   6.187   4.012  15.485  0.0865  0.9797 -0.7064
17628TIP3    H174375   6.101   3.973  15.469 -0.1502 -0.2217  2.7158
17628TIP3    H274376   6.168   4.101  15.516  0.1196  0.9570 -0.6200
17629TIP3   OH274377   4.691   2.255  14.216  0.8718  0.5343 -0.5162
17629TIP3    H174378   4.695   2.172  14.168 -0.5380 -0.5359  1.0607
17629TIP3    H274379   4.598   2.268  14.233  1.2524  1.0786  1.4550
17630TIP3   OH274380   4.496   4.741   3.636 -0.3598 -0.2943 -0.2466
17630TIP3    H174381   4.585   4.706   3.641 -0.9101 -1.5204  2.7498
17630TIP3    H274382   4.488   4.770   3.545  2.1602 -2.6417 -1.3991
17631TIP3   OH274383   5.220   4.403   2.038  0.5602  0.3995 -0.4029
17631TIP3    H174384   5.241   4.326   1.984  1.2470  0.5427 -0.3539
17631TIP3    H274385   5.278   4.472   2.004  1.5342  0.3005  0.9781
17632TIP3   OH274386   4.582   4.305  16.091  0.0043 -0.1555  0.4929
17632TIP3    H174387   4.673   4.335  16.100 -0.8747  2.3630  2.1389
17632TIP3    H274388   4.536   4.379  16.053 -2.0611  0.2002  3.3590
17633TIP3   OH274389   2.129   3.113  15.193  0.1504  0.4153  0.3506
17633TIP3    H174390   2.046   3.139  15.234  0.2850  0.0251  0.8861
17633TIP3    H274391   2.133   3.018  15.207  0.6307  0.4154  0.2230
17634TIP3   OH274392   3.276   5.020  13.355 -0.2915  0.5861  0.3543
17634TIP3    H174393   3.237   4.990  13.273 -2.7325  3.0172  0.4607
17634TIP3    H274394   3.344   5.081  13.329  0.7275 -0.5977  0.1734
17635TIP3   OH274395   6.180   4.705   4.775  0.1781 -0.2200 -0.6076
17635TIP3    H174396   6.181   4.644   4.849  0.4403  0.4526 -0.0466
17635TIP3    H274397   6.227   4.659   4.705  0.1639 -0.7521 -0.2734
17636TIP3   OH274398   6.645   2.194  12.546 -0.0841 -0.7508  0.7036
17636TIP3    H174399   6.676   2.248  12.473  3.1458  0.1088  2.4744
17636TIP3    H274400   6.595   2.255  12.601  1.0742 -0.2406  1.2378
17637TIP3   OH274401   0.028   4.751   2.857  0.1297  0.1841  0.0203
17637TIP3    H174402   0.107   4.751   2.912  0.2786  1.8234 -0.1339
17637TIP3    H274403  -0.033   4.808   2.904  0.7709  2.8164 -2.1129
17638TIP3   OH274404   1.840   2.592  13.226  0.8963  0.1101 -0.9523
17638TIP3    H174405   1.806   2.598  13.316  1.1144  0.6944 -0.9070
17638TIP3    H274406   1.768   2.554  13.176  0.2723  1.0447 -0.7938
17639TIP3   OH274407   2.027   2.355   4.813  0.2090  0.1016 -0.2518
17639TIP3    H174408   2.012   2.335   4.905  2.6647 -1.4057 -0.0794
17639TIP3    H274409   1.941   2.380   4.779 -1.2909 -1.8042  1.8597
17640TIP3   OH274410   4.428   2.281  17.080  0.0566  0.3533 -0.1811
17640TIP3    H174411   4.467   2.277  17.168  0.7333  0.3715 -0.4789
17640TIP3    H274412   4.482   2.223  17.027 -0.3393  0.3608 -0.5920
17641TIP3   OH274413   0.698   1.704   3.994 -0.3814  0.2751 -0.6708
17641TIP3    H174414   0.773   1.763   3.984  0.3993 -0.5260  0.3129
17641TIP3    H274415   0.636   1.753   4.048 -0.3314  0.7251 -1.0170
17642TIP3   OH274416   5.397   4.261   5.369 -0.5882  0.0243 -0.4899
17642TIP3    H174417   5.352   4.344   5.350 -2.7597 -1.1699 -0.8388
17642TIP3    H274418   5.353   4.228   5.447 -0.4278 -1.2717 -0.9353
17643TIP3   OH274419   6.221   1.014   3.239 -0.1262 -0.0305  0.0943
17643TIP3    H174420   6.146   1.030   3.181 -0.4899  1.2111  0.8768
17643TIP3    H274421   6.237   0.920   3.232 -0.4924 -0.0026 -1.6094
17644TIP3   OH274422   0.902   1.120   4.692  0.3961  0.2051 -0.5648
17644TIP3    H174423   0.953   1.048   4.656  0.9831  0.4483 -0.2307
17644TIP3    H274424   0.925   1.195   4.637  1.5029  0.6397  0.4541
17645TIP3   OH274425   4.922   1.578  11.297  0.3856 -0.2869  0.6026
17645TIP3    H174426   4.855   1.645  11.312  0.8543  0.1099  0.9449
17645TIP3    H274427   4.906   1.548  11.208 -0.0937 -0.0209  0.5957
17646TIP3   OH274428   4.232   4.078  13.493  0.3498  0.0505 -0.5276
17646TIP3    H174429   4.270   4.130  13.422  1.7674  1.8394  1.4141
17646TIP3    H274430   4.143   4.112  13.503  1.4248  2.7350  1.0838
17647TIP3   OH274431   2.353   6.396   4.277  0.2495 -0.1652  0.0595
17647TIP3    H174432   2.404   6.471   4.249  1.5023 -1.2808 -0.7759
17647TIP3    H274433   2.344   6.342   4.199 -1.9677 -0.1809  0.2537
17648TIP3   OH274434   3.563   5.609  15.346  0.0694 -0.3093  0.4890
17648TIP3    H174435   3.558   5.524  15.302 -1.1868  0.0990 -0.1785
17648TIP3    H274436   3.475   5.645  15.340  0.4876  0.8732  1.1320
17649TIP3   OH274437   2.491   2.408  13.648 -0.2194  0.1459  0.2072
17649TIP3    H174438   2.422   2.445  13.703 -1.3835 -1.6097  0.0024
17649TIP3    H274439   2.453   2.403  13.560  0.5536  0.1583 -0.1409
17650TIP3   OH274440   4.512   4.393  11.183  0.0396 -0.3425  0.4102
17650TIP3    H174441   4.438   4.451  11.202 -0.5164 -0.2321 -1.8506
17650TIP3    H274442   4.533   4.410  11.091  1.8461 -1.5455  0.5564
17651TIP3   OH274443   1.086   5.643  13.877  0.0539  0.1146  0.2840
17651TIP3    H174444   1.155   5.685  13.825  0.0077 -1.8849 -1.5519
17651TIP3    H274445   1.077   5.556  13.838 -1.2193 -0.8897  2.6187
17652TIP3   OH274446   2.508   6.442  17.238 -0.2092  0.3881 -0.3952
17652TIP3    H174447   2.417   6.437  17.209 -0.7910  1.5029  1.0785
17652TIP3    H274448   2.558   6.456  17.158 -1.1899 -1.2124 -1.3615
17653TIP3   OH274449   0.371   4.015  16.332  0.4694  0.5255 -0.0572
17653TIP3    H174450   0.330   4.090  16.375 -1.2375 -0.2418 -0.2886
17653TIP3    H274451   0.381   4.042  16.241 -4.0195 -0.8494 -1.2051
17654TIP3   OH274452   0.849   5.837  13.469  0.7975  0.6304  0.3423
17654TIP3    H174453   0.840   5.846  13.374  1.3277  0.3896  0.2664
17654TIP3    H274454   0.867   5.744  13.483  0.9634  0.7069  0.6519
17655TIP3   OH274455   0.007   4.930  16.299 -0.3313  0.1572  0.0313
17655TIP3    H174456  -0.065   4.963  16.354  0.0289  2.9566 -0.9922
17655TIP3    H274457  -0.033   4.915  16.214 -0.1860 -0.7621  0.1185
17656TIP3   OH274458   1.267   3.975  16.837  0.7250 -0.1310  0.3309
17656TIP3    H174459   1.331   4.034  16.877 -0.1477  1.5207 -0.6241
17656TIP3    H274460   1.204   3.958  16.907  1.7054 -1.0955  1.0227
17657TIP3   OH274461   0.975   1.695   4.850 -0.0378  0.3411  0.2226
17657TIP3    H174462   1.024   1.694   4.768 -0.2943  1.7578  0.0158
17657TIP3    H274463   0.884   1.694   4.823 -0.1352 -1.0545  0.5668
17658TIP3   OH274464   6.459   2.932   1.852 -0.3340  0.0472  0.0372
17658TIP3    H174465   6.492   2.845   1.830  2.5131  0.9423  0.4223
17658TIP3    H274466   6.524   2.992   1.816 -1.9392  2.0246  0.2624
17659TIP3   OH274467   0.720   4.357  15.504 -0.2316 -0.1932  0.2882
17659TIP3    H174468   0.669   4.312  15.572  1.0972 -0.9682  0.8110
17659TIP3    H274469   0.745   4.440  15.545  1.9002 -1.3114  1.4144
17660TIP3   OH274470   3.820   0.899  14.165 -0.8192 -0.6298  0.0832
17660TIP3    H174471   3.877   0.825  14.183 -0.1125 -0.3894 -1.0861
17660TIP3    H274472   3.772   0.874  14.086  0.4506  0.7001 -1.1557
17661TIP3   OH274473   0.630   5.061  11.869 -0.2639 -0.1683  0.5253
17661TIP3    H174474   0.587   5.141  11.902  0.6267  0.3186  0.5230
17661TIP3    H274475   0.679   5.028  11.944 -0.4554 -0.6026  0.4611
17662TIP3   OH274476   2.531   2.039  15.971 -0.7709 -0.6410 -0.2418
17662TIP3    H174477   2.456   1.985  15.996 -2.3982  1.8012  0.5268
17662TIP3    H274478   2.535   2.033  15.876 -1.4528 -1.3739 -0.2354
17663TIP3   OH274479   3.075   5.798  16.097  0.2496  0.1499 -0.0016
17663TIP3    H174480   3.091   5.712  16.057 -1.1451  0.0543 -0.4203
17663TIP3    H274481   3.007   5.781  16.162 -2.6280  1.4432 -2.4374
17664TIP3   OH274482   1.132   6.014  14.960 -0.4231  0.3578  0.0943
17664TIP3    H174483   1.197   6.025  15.030 -0.8663 -3.6469  1.4183
17664TIP3    H274484   1.050   6.046  14.997 -0.0119  1.4932  0.0431
17665TIP3   OH274485   1.012   0.337   3.047  0.0391 -0.3406  0.0306
17665TIP3    H174486   1.029   0.248   3.077  1.3461  0.2149  1.0263
17665TIP3    H274487   1.005   0.389   3.127 -2.8940  0.1591 -0.4271
17666TIP3   OH274488   0.357   4.705  10.924  0.2131  0.5594 -0.8651
17666TIP3    H174489   0.439   4.713  10.974 -0.4510  0.4033  0.2956
17666TIP3    H274490   0.289   4.735  10.985 -0.7337 -0.5302 -1.3517
17667TIP3   OH274491   1.994   2.614   1.023 -0.0661  0.6065  0.6002
17667TIP3    H174492   1.983   2.705   1.052  0.8992  0.4848  1.4072
17667TIP3    H274493   1.906   2.585   1.000 -0.3773  1.7869  0.2096
17668TIP3   OH274494   3.146   3.450   0.343  0.3661  0.1631 -0.6486
17668TIP3    H174495   3.124   3.477   0.432 -0.5374 -0.6008 -0.6253
17668TIP3    H274496   3.232   3.489   0.327  0.5822  0.2465  0.5885
17669TIP3   OH274497   2.569   3.226   4.606 -0.7089 -0.0764  0.1851
17669TIP3    H174498   2.477   3.249   4.614 -1.0852 -1.3884 -0.1641
17669TIP3    H274499   2.575   3.138   4.642 -0.2727 -1.4198 -2.8580
17670TIP3   OH274500   6.547   0.525  16.751  0.2149 -0.8240  0.4158
17670TIP3    H174501   6.515   0.471  16.823  2.0957 -0.7407  1.3629
17670TIP3    H274502   6.540   0.614  16.783 -2.2579 -0.4643 -0.8982
17671TIP3   OH274503   0.159   2.085   3.767  0.6367 -0.3222  0.6959
17671TIP3    H174504   0.167   2.054   3.857  1.2491  0.4538  0.9253
17671TIP3    H274505   0.150   2.180   3.775  0.5817 -0.2527 -0.0605
17672TIP3   OH274506   4.324   5.589  11.488  0.6160 -0.0807  0.3312
17672TIP3    H174507   4.336   5.596  11.583 -1.6509 -1.4832  0.7987
17672TIP3    H274508   4.400   5.633  11.451  2.3386 -0.7573  2.7930
17673TIP3   OH274509   4.329   3.596  17.400  0.2331 -0.3834  0.0533
17673TIP3    H174510   4.262   3.548  17.351 -1.0109  1.6075 -0.3208
17673TIP3    H274511   4.295   3.598  17.490 -0.2649  0.6572 -0.1438
17674TIP3   OH274512   3.910   1.661  16.450 -0.3224  0.1276  0.0712
17674TIP3    H174513   4.000   1.649  16.480  0.5043  1.7968 -1.5104
17674TIP3    H274514   3.913   1.640  16.357 -1.7931 -0.6314  0.1736
17675TIP3   OH274515   4.550   3.882  15.229  0.2148 -0.2635  0.1033
17675TIP3    H174516   4.483   3.815  15.234  0.4915 -0.5777 -0.3524
17675TIP3    H274517   4.617   3.846  15.171  1.0991 -0.2382  1.0783
17676TIP3   OH274518   4.924   2.990  15.878  0.0034  0.4241  0.7636
17676TIP3    H174519   4.992   2.986  15.946  0.1868  0.8377  0.6094
17676TIP3    H274520   4.890   2.901  15.873  0.4333  0.2447  0.9463
17677TIP3   OH274521   1.260   3.913  11.934  0.4071 -0.7073  0.6435
17677TIP3    H174522   1.199   3.879  11.869  1.2002 -2.2068  0.6421
17677TIP3    H274523   1.205   3.954  12.000 -0.4965 -0.6492 -0.1246
17678TIP3   OH274524   4.982   4.689  17.481 -0.0932  0.2013  0.0430
17678TIP3    H174525   4.915   4.720  17.420 -1.2505  0.1654  1.2387
17678TIP3    H274526   5.031   4.767  17.506 -1.4221  0.7101  1.1781
17679TIP3   OH274527   6.688   4.987   3.987  0.2705 -0.2369  0.0737
17679TIP3    H174528   6.711   4.898   3.961  1.0867 -0.8517  2.6438
17679TIP3    H274529   6.654   5.027   3.907  0.1012 -2.7579 -1.2104
17680TIP3   OH274530   0.304   3.109  11.156  0.6148  0.0179 -0.6894
17680TIP3    H174531   0.209   3.105  11.146  0.3262 -0.8695  1.8058
17680TIP3    H274532   0.338   3.089  11.069 -1.4385  1.8076 -2.0099
17681TIP3   OH274533   3.252   2.647   1.928 -0.1628  0.2505  0.1728
17681TIP3    H174534   3.255   2.554   1.905 -2.1360 -0.3418  1.8890
17681TIP3    H274535   3.342   2.670   1.951  0.2551 -1.3998  0.2789
17682TIP3   OH274536   4.315   5.642   5.025 -0.1031 -0.1450  0.0411
17682TIP3    H174537   4.317   5.562   5.077  0.6455  0.6288  1.2694
17682TIP3    H274538   4.263   5.620   4.948 -0.0653 -1.7456  0.4421
17683TIP3   OH274539   4.262   1.446   6.447  0.1820  0.2296  0.0415
17683TIP3    H174540   4.172   1.417   6.466 -0.0997  1.1009  0.0574
17683TIP3    H274541   4.252   1.512   6.378  0.7831  0.5794  0.2876
17684TIP3   OH274542   6.454   2.357  13.095 -0.2924 -0.6958  0.2649
17684TIP3    H174543   6.502   2.422  13.043 -0.5868 -0.8548 -0.2141
17684TIP3    H274544   6.517   2.329  13.162 -0.4138  0.6499  0.9802
17685TIP3   OH274545   2.700   1.059   3.960 -0.5463 -0.3343 -0.5267
17685TIP3    H174546   2.644   1.106   3.899 -2.0414 -1.6632 -0.2249
17685TIP3    H274547   2.671   1.087   4.047  2.3448  2.4561 -0.2880
17686TIP3   OH274548   0.207   1.905  13.814  0.1207  0.4509 -0.2214
17686TIP3    H174549   0.188   1.998  13.805  2.0380  0.8050 -0.8732
17686TIP3    H274550   0.215   1.872  13.725  0.5014 -0.1109  0.0111
17687TIP3   OH274551   0.099   1.766  16.376 -0.9144 -0.6464 -0.2079
17687TIP3    H174552   0.129   1.681  16.408  1.0553  0.5460  1.2950
17687TIP3    H274553   0.167   1.827  16.402 -1.0476  1.0651 -3.4429
17688TIP3   OH274554   0.997   6.240  11.719 -0.6471 -0.9543  0.4105
17688TIP3    H174555   0.979   6.162  11.666 -1.7663 -0.1083 -0.5254
17688TIP3    H274556   1.090   6.234  11.741 -0.6862 -2.4722  0.2565
17689TIP3   OH274557   4.643   3.114  15.835  0.5022 -0.8655 -0.0966
17689TIP3    H174558   4.716   3.059  15.863  0.6014 -0.3599  0.6883
17689TIP3    H274559   4.685   3.195  15.805  0.2596 -0.4203  0.7286
17690TIP3   OH274560   0.352   4.519  12.224 -0.0631 -0.1516 -0.1348
17690TIP3    H174561   0.314   4.602  12.253 -0.0090 -0.0020 -0.4876
17690TIP3    H274562   0.426   4.504  12.283  1.5866  1.3967 -1.6735
17691TIP3   OH274563   5.810   2.380  11.800  0.0859 -0.2963  0.5480
17691TIP3    H174564   5.728   2.384  11.850 -0.2170 -1.1865  0.1396
17691TIP3    H274565   5.838   2.289  11.807  2.8329  0.6087  3.4768
17692TIP3   OH274566   1.710   3.695  12.829 -0.1277 -0.0484 -0.0835
17692TIP3    H174567   1.654   3.636  12.778  0.3801  0.5027 -1.3296
17692TIP3    H274568   1.799   3.672  12.801  0.3326 -1.0791  2.0334
17693TIP3   OH274569   2.114   5.415  16.847 -0.0183  0.4379 -0.2178
17693TIP3    H174570   2.172   5.463  16.906  0.1716 -0.9075  0.7291
17693TIP3    H274571   2.026   5.444  16.871  0.0804  0.1375  0.5077
17694TIP3   OH274572   3.114   5.229   4.141 -0.0944 -0.7369 -0.2184
17694TIP3    H174573   3.125   5.223   4.046  2.6868  0.5930 -0.0771
17694TIP3    H274574   3.194   5.272   4.172  0.1820 -3.1945  2.9900
17695TIP3   OH274575   4.699   0.237  15.549 -0.2810 -0.4235 -0.3980
17695TIP3    H174576   4.751   0.274  15.620 -1.6252  1.0235 -0.1109
17695TIP3    H274577   4.623   0.200  15.592 -0.7473 -0.1912 -1.0113
17696TIP3   OH274578   3.564   4.267  15.865  0.3737 -0.2663 -0.0237
17696TIP3    H174579   3.576   4.317  15.784 -3.4271  1.1774  0.0830
17696TIP3    H274580   3.652   4.238  15.889  2.1732  2.4579 -2.6172
17697TIP3   OH274581   5.120   6.115  12.967  0.5490 -0.3286 -0.1109
17697TIP3    H174582   5.129   6.187  12.905 -1.5678  0.2948  0.2005
17697TIP3    H274583   5.026   6.109  12.983  0.7842 -2.3189  0.8968
17698TIP3   OH274584   1.531   1.059   6.081  0.7970  0.0162  0.0369
17698TIP3    H174585   1.444   1.054   6.121  1.2280 -1.2133  0.8851
17698TIP3    H274586   1.548   1.152   6.072 -0.8209  0.2937 -0.6473
17699TIP3   OH274587   2.326   1.324   5.576 -0.0198  0.0265  0.1971
17699TIP3    H174588   2.242   1.282   5.556  0.8677 -0.7972 -2.1693
17699TIP3    H274589   2.360   1.275   5.651 -1.4496  0.1298  0.9483
17700TIP3   OH274590   0.710   0.120   4.400  0.4124 -0.2899  0.3450
17700TIP3    H174591   0.637   0.126   4.338 -0.5061 -0.5259  1.3561
17700TIP3    H274592   0.788   0.118   4.345 -0.4202 -1.7527 -0.8797
17701TIP3   OH274593   3.053   4.231  16.683 -0.0302 -0.0302 -0.4772
17701TIP3    H174594   3.130   4.179  16.707 -0.2838 -0.0412  0.3377
17701TIP3    H274595   2.979   4.175  16.705 -0.2827 -0.0561 -1.3510
17702TIP3   OH274596   3.739   3.801   4.084 -0.1209 -0.3137  0.2031
17702TIP3    H174597   3.667   3.741   4.068  1.6473 -2.2616 -0.8783
17702TIP3    H274598   3.749   3.802   4.179 -2.8760  1.7049  0.5703
17703TIP3   OH274599   4.364   3.212  14.477  0.4967  0.2258 -0.0056
17703TIP3    H174600   4.405   3.153  14.414 -0.8246 -0.1092 -0.5970
17703TIP3    H274601   4.287   3.246  14.431 -1.9360 -1.8968  2.1570
17704TIP3   OH274602   4.556   5.918  13.084  0.0072  0.2972 -0.0302
17704TIP3    H174603   4.548   5.823  13.082  1.0573  0.1601  0.6962
17704TIP3    H274604   4.577   5.938  13.176 -2.1838  1.4377  0.3009
17705TIP3   OH274605   1.988   4.660  13.635  0.3905  0.0046 -0.4973
17705TIP3    H174606   1.905   4.644  13.591  0.4395  1.9640 -1.4021
17705TIP3    H274607   2.035   4.577  13.628 -0.1036 -0.1501 -3.0749
17706TIP3   OH274608   5.765   5.415   1.998  0.4638  0.4098  0.5194
17706TIP3    H174609   5.794   5.487   1.942 -0.1662  0.4601  0.2545
17706TIP3    H274610   5.846   5.376   2.030  0.8264  0.6907 -0.0365
17707TIP3   OH274611   3.823   5.981   3.876 -0.1710 -0.0782  0.5578
17707TIP3    H174612   3.827   6.062   3.927 -1.2337  0.9480 -0.9105
17707TIP3    H274613   3.886   5.923   3.919  0.7452  1.5659  1.5518
17708TIP3   OH274614   4.180   3.389   5.816  0.2402 -0.5550  0.4286
17708TIP3    H174615   4.110   3.396   5.881  0.4080 -0.4606  0.6029
17708TIP3    H274616   4.258   3.418   5.863  0.2969 -0.1050  0.0683
17709TIP3   OH274617   5.257   3.790   3.586 -0.6459 -0.2650  0.0500
17709TIP3    H174618   5.348   3.779   3.559 -0.4742  0.9071  0.0695
17709TIP3    H274619   5.261   3.850   3.660 -1.4653  0.2609 -0.3088
17710TIP3   OH274620   1.886   2.741   5.450 -0.1379 -0.2429 -0.5314
17710TIP3    H174621   1.897   2.791   5.531  0.3071  0.0554 -0.7736
17710TIP3    H274622   1.971   2.747   5.407 -1.1685  2.1367 -2.4750
17711TIP3   OH274623   6.309   2.912   4.181  0.1785 -0.0919  0.4167
17711TIP3    H174624   6.263   2.903   4.264  0.1682  0.1890  0.4439
17711TIP3    H274625   6.392   2.868   4.194 -0.3152 -1.1192  0.1802
17712TIP3   OH274626   4.720   2.956   3.800  0.0486 -0.1082  0.1611
17712TIP3    H174627   4.766   2.873   3.790 -0.0960 -0.2966  0.9600
17712TIP3    H274628   4.671   2.966   3.718  0.7465 -0.3792 -0.2970
17713TIP3   OH274629   4.606   0.235  13.603 -0.5411  0.4697  0.3052
17713TIP3    H174630   4.666   0.187  13.660  0.9008  1.3379 -0.4007
17713TIP3    H274631   4.633   0.327  13.612  1.7760  0.4512 -3.8447
17714TIP3   OH274632   4.273   5.038   2.455  0.0344 -0.5167 -0.1477
17714TIP3    H174633   4.258   5.112   2.396 -0.5433 -1.2063 -0.8812
17714TIP3    H274634   4.350   5.064   2.506 -0.3453  0.7207 -0.1706
17715TIP3   OH274635   3.624   3.119   4.881 -0.2544  0.2131 -0.1632
17715TIP3    H174636   3.692   3.173   4.843 -1.7921  1.1144 -1.7630
17715TIP3    H274637   3.661   3.089   4.964  1.7239  1.3697 -0.5642
17716TIP3   OH274638   2.147   5.325   1.343 -0.4744  0.1322 -0.1146
17716TIP3    H174639   2.225   5.308   1.396  0.1714 -0.8753 -1.3182
17716TIP3    H274640   2.131   5.419   1.353 -0.0136  0.0755  1.3418
17717TIP3   OH274641   2.618   2.833   5.861 -0.7945 -0.1104 -0.2556
17717TIP3    H174642   2.674   2.900   5.900 -0.0511  0.0812 -1.5891
17717TIP3    H274643   2.557   2.808   5.931 -0.6618  1.4781  0.4536
17718TIP3   OH274644   1.814   4.997   2.831 -0.6733 -0.0830  0.6941
17718TIP3    H174645   1.719   5.006   2.827 -0.8383 -1.5034  0.9890
17718TIP3    H274646   1.831   4.948   2.912  0.2569 -0.3456  0.3558
17719TIP3   OH274647   1.204   4.562  15.195 -0.8598 -0.4450  0.2623
17719TIP3    H174648   1.197   4.657  15.184  0.3624 -0.4874 -1.2241
17719TIP3    H274649   1.136   4.527  15.137 -0.1724 -0.4882 -0.5400
17720TIP3   OH274650   0.047   4.156   5.101  0.1926 -0.1962  0.0798
17720TIP3    H174651   0.047   4.063   5.081 -0.9010 -0.6866  2.0911
17720TIP3    H274652  -0.030   4.169   5.157  1.3663  1.5471  1.4078
17721TIP3   OH274653   1.804   5.929  17.299  0.5614 -0.2918 -0.0267
17721TIP3    H174654   1.872   5.926  17.367  0.6053 -0.7092 -0.0850
17721TIP3    H274655   1.831   5.863  17.235 -0.2358 -0.9235  0.2694
17722TIP3   OH274656   3.166   4.412  14.615  0.1366 -0.0593 -0.0475
17722TIP3    H174657   3.247   4.362  14.621  0.7098  0.6859 -1.2462
17722TIP3    H274658   3.146   4.436  14.705  0.0613 -2.0472  0.5222
17723TIP3   OH274659   4.345   2.996  16.492 -0.1165  0.2243 -0.0516
17723TIP3    H174660   4.390   3.080  16.492 -1.2684  0.9272  2.2169
17723TIP3    H274661   4.365   2.958  16.578 -1.5910 -0.6871 -0.0722
17724TIP3   OH274662   1.395   3.072   4.879 -0.2648 -0.0790  0.1405
17724TIP3    H174663   1.340   3.142   4.916  0.1017 -0.7080  1.9684
17724TIP3    H274664   1.344   2.992   4.893  0.2931 -0.4483  0.0717
17725TIP3   OH274665   4.460   5.272   2.824 -0.1955  0.0528 -0.3335
17725TIP3    H174666   4.420   5.305   2.744 -2.4014  0.7415  0.9588
17725TIP3    H274667   4.424   5.328   2.893  3.0025  0.6599  1.0096
17726TIP3   OH274668   6.308   0.966   5.480  0.0663 -0.5399 -0.1239
17726TIP3    H174669   6.233   0.911   5.503  0.6910 -1.0913  0.6683
17726TIP3    H274670   6.361   0.911   5.421  0.0557 -0.3100 -0.3479
17727TIP3   OH274671   0.065   5.040  15.038 -0.6326  0.1224  0.3011
17727TIP3    H174672   0.159   5.043  15.018 -0.6475 -0.5382  0.1115
17727TIP3    H274673   0.062   5.037  15.134 -0.4682  0.3895  0.3150
17728TIP3   OH274674   3.321   0.833  13.743  0.0144 -0.1683 -0.1198
17728TIP3    H174675   3.342   0.876  13.826  1.4548  0.1105 -0.5961
17728TIP3    H274676   3.278   0.901  13.691 -0.4642 -0.2044  0.2263
17729TIP3   OH274677   3.070   0.766  16.022  0.2063 -0.9326  0.2551
17729TIP3    H174678   3.032   0.694  15.972 -0.1059  0.1906 -1.1746
17729TIP3    H274679   3.001   0.832  16.026  1.0714  0.0079  0.0282
17730TIP3   OH274680   6.335   1.676  13.472  0.0864 -0.1950 -0.3352
17730TIP3    H174681   6.342   1.586  13.442 -0.5463 -0.1360 -0.6637
17730TIP3    H274682   6.413   1.719  13.438 -0.1324 -0.3682 -1.0584
17731TIP3   OH274683   0.766   3.186   2.964  0.2176  0.5096  0.2456
17731TIP3    H174684   0.856   3.173   2.932 -0.8053  0.0153 -2.7293
17731TIP3    H274685   0.759   3.128   3.040  1.9210 -0.6692 -0.4368
17732TIP3   OH274686   6.514   1.903  11.961  0.6601 -0.0499  0.0233
17732TIP3    H174687   6.482   1.950  11.884  0.7261  0.9966  0.6210
17732TIP3    H274688   6.468   1.819  11.958 -2.7362  1.5698  1.1638
17733TIP3   OH274689   2.741   1.180   3.558  0.6941 -0.0003  0.4152
17733TIP3    H174690   2.758   1.273   3.573  1.5081 -0.0125 -0.3349
17733TIP3    H274691   2.828   1.141   3.551  0.3623 -0.6832 -0.0387
17734TIP3   OH274692   2.237   0.257   3.373  0.1874  0.3699 -0.3840
17734TIP3    H174693   2.216   0.280   3.282  0.7607 -0.0145 -0.6143
17734TIP3    H274694   2.216   0.336   3.423 -1.1631  0.2379 -0.6940
17735TIP3   OH274695   3.563   2.043  13.859  0.4771  0.0479  0.0042
17735TIP3    H174696   3.602   1.993  13.931  0.0056 -0.0839  0.1754
17735TIP3    H274697   3.560   2.133  13.891 -1.0770 -0.2391  0.7533
17736TIP3   OH274698   5.869   2.343   3.020 -0.3779 -0.3752 -0.8950
17736TIP3    H174699   5.960   2.313   3.026 -0.7412 -1.4621 -0.6473
17736TIP3    H274700   5.817   2.263   3.028 -1.5212  0.5492  3.4223
17737TIP3   OH274701   3.049   4.601   2.442  0.1473  0.6184 -0.1846
17737TIP3    H174702   2.994   4.679   2.451 -0.9719 -0.1472 -0.1569
17737TIP3    H274703   3.138   4.632   2.460 -0.5095  1.5166  1.8397
17738TIP3   OH274704   6.564   1.675   4.012  0.3780 -0.2066  0.0282
17738TIP3    H174705   6.490   1.615   4.017  0.0519  0.2935  2.0477
17738TIP3    H274706   6.609   1.652   3.931 -1.0142 -1.6535 -0.3667
17739TIP3   OH274707   0.567   4.517  12.722  0.6706 -0.1726  0.2565
17739TIP3    H174708   0.594   4.569  12.798  2.7527  0.2737 -0.7213
17739TIP3    H274709   0.478   4.488  12.743  0.3069  1.8714  1.8472
17740TIP3   OH274710   3.601   4.741  11.881 -0.2118 -0.2274  0.0038
17740TIP3    H174711   3.632   4.781  11.800  0.6354  1.3488  1.0515
17740TIP3    H274712   3.552   4.664  11.853  1.1925 -0.4833 -1.9352
17741TIP3   OH274713   0.177   4.574  15.817  0.0649  0.1771 -0.0046
17741TIP3    H174714   0.134   4.521  15.750 -2.5479  0.9665  0.9201
17741TIP3    H274715   0.186   4.660  15.776  0.2414  0.1620  0.0037
17742TIP3   OH274716   1.520   4.390  12.415 -0.4583  0.6963 -0.3755
17742TIP3    H174717   1.549   4.312  12.368  0.8511  1.1245 -0.3440
17742TIP3    H274718   1.562   4.463  12.369  1.0322  1.1141  1.4994
17743TIP3   OH274719   3.668   1.081  11.438  0.2955 -0.7370  0.1604
17743TIP3    H174720   3.722   1.055  11.364  1.0434 -0.7267  0.6985
17743TIP3    H274721   3.608   1.146  11.402  0.2753 -1.1462 -0.5588
17744TIP3   OH274722   3.266   1.494   0.273  0.1404  0.2616  0.6124
17744TIP3    H174723   3.172   1.496   0.253  0.4297  1.8429 -0.8453
17744TIP3    H274724   3.270   1.481   0.368 -1.5478  0.1830  0.7071
17745TIP3   OH274725   1.304   2.287  11.497 -0.0336  0.2504 -0.2258
17745TIP3    H174726   1.227   2.254  11.544 -0.5956  0.0791 -1.2282
17745TIP3    H274727   1.313   2.228  11.422 -1.1432  2.3647 -2.1594
17746TIP3   OH274728   0.804   5.071   5.905  0.1228 -0.0606  0.4401
17746TIP3    H174729   0.730   5.036   5.855 -0.4749  0.0528  1.2298
17746TIP3    H274730   0.840   4.996   5.952  1.0378 -0.2785 -0.5719
17747TIP3   OH274731   0.639   6.054   3.329  0.7239 -0.1950  0.0098
17747TIP3    H174732   0.620   6.047   3.235 -0.3177 -0.7901  0.2513
17747TIP3    H274733   0.711   6.116   3.334 -0.1255  0.9324 -1.0928
17748TIP3   OH274734   5.367   4.328   2.583 -0.1444 -0.0539  0.1772
17748TIP3    H174735   5.432   4.389   2.547 -0.8860  0.2617 -0.6647
17748TIP3    H274736   5.337   4.371   2.663 -0.3354  0.4862 -0.1760
17749TIP3   OH274737   0.318   0.120   5.091  0.5940  0.3876 -0.2425
17749TIP3    H174738   0.348   0.029   5.085 -2.1805 -0.5620 -2.3433
17749TIP3    H274739   0.282   0.127   5.179  0.3569 -0.7672 -0.2254
17750TIP3   OH274740   0.145   2.953   3.591  0.5924  0.4839 -0.0368
17750TIP3    H174741   0.053   2.973   3.607 -0.1030 -1.1831 -1.6422
17750TIP3    H274742   0.165   2.881   3.651  1.1090  1.3273  0.8426
17751TIP3   OH274743   4.920   3.552   4.085 -0.1933  0.7403 -0.5807
17751TIP3    H174744   4.999   3.604   4.069  2.3705 -1.9695  2.0114
17751TIP3    H274745   4.872   3.600   4.152  0.6365  1.1840 -0.2904
17752TIP3   OH274746   0.792   1.030  13.313  0.3154 -0.3014 -0.4028
17752TIP3    H174747   0.827   0.952  13.269  0.7379 -0.2052 -0.2328
17752TIP3    H274748   0.867   1.070  13.356  0.1517  0.3565 -0.7140
17753TIP3   OH274749   3.645   4.747   2.075  0.3606  0.2758 -0.0463
17753TIP3    H174750   3.618   4.672   2.128  0.5406  0.6236  0.5424
17753TIP3    H274751   3.591   4.741   1.996  0.5407 -0.6070 -0.1151
17754TIP3   OH274752   3.349   1.257   5.756 -0.2078  0.2317  0.4155
17754TIP3    H174753   3.294   1.306   5.695  1.0137  0.7369 -0.3131
17754TIP3    H274754   3.291   1.191   5.792 -1.3190  0.8094 -0.2575
17755TIP3   OH274755   4.619   4.605   1.430  0.2655  0.0872 -0.0131
17755TIP3    H174756   4.674   4.597   1.508 -0.1295 -1.0790  0.1663
17755TIP3    H274757   4.642   4.690   1.393  3.4864 -1.0636 -0.9482
17756TIP3   OH274758   4.477   0.374  12.793  0.0473  0.0558  0.4806
17756TIP3    H174759   4.541   0.319  12.839  1.2923 -0.0248 -1.2409
17756TIP3    H274760   4.392   0.345  12.827  0.7872 -1.5516  1.0873
17757TIP3   OH274761   6.221   2.777  15.584 -0.0177 -0.2033 -0.1147
17757TIP3    H174762   6.303   2.729  15.576 -0.6210 -1.0525 -1.5982
17757TIP3    H274763   6.195   2.766  15.675  1.9761  0.9270  0.6669
17758TIP3   OH274764   1.557   5.079  14.972 -0.4439 -0.0040 -0.3647
17758TIP3    H174765   1.620   5.008  14.956 -1.9009 -1.4701  0.1440
17758TIP3    H274766   1.592   5.153  14.923 -0.3321 -1.8588 -3.3524
17759TIP3   OH274767   1.474   6.555  16.204  0.1468  0.2198  0.1571
17759TIP3    H174768   1.514   6.624  16.151  0.6362  0.3978  0.7370
17759TIP3    H274769   1.549   6.505  16.238 -0.0996  0.6950  1.4438
17760TIP3   OH274770   0.019   0.422   0.409  0.0174  0.5648 -0.6086
17760TIP3    H174771  -0.057   0.373   0.438 -0.8016  1.2248 -1.5616
17760TIP3    H274772   0.094   0.365   0.426 -0.5322  0.4280  1.5648
17761TIP3   OH274773   3.754   4.026   5.199  0.4666 -0.1065  0.0539
17761TIP3    H174774   3.708   4.073   5.129  0.0319 -0.5764  0.0172
17761TIP3    H274775   3.714   4.059   5.280 -0.1293 -0.6974  0.0131
17762TIP3   OH274776   3.021   0.932  17.165  0.8681  0.4608  0.0240
17762TIP3    H174777   2.955   0.984  17.211  0.0431 -0.4633 -0.0594
17762TIP3    H274778   2.995   0.841  17.183 -0.5857 -0.0152 -3.7014
17763TIP3   OH274779   1.042   5.370   1.894 -0.2351  0.4395  0.1079
17763TIP3    H174780   1.041   5.306   1.822 -1.7862 -0.2402  0.6816
17763TIP3    H274781   1.047   5.455   1.851 -3.3112  0.1770 -1.0014
17764TIP3   OH274782   2.053   3.168   5.790 -0.1342  0.2252  0.3687
17764TIP3    H174783   2.041   3.253   5.831 -2.0899  0.3343 -0.3520
17764TIP3    H274784   2.055   3.186   5.696 -4.3685 -0.7499 -0.0977
17765TIP3   OH274785   4.178   5.830   1.794 -0.2129 -0.4835  0.1035
17765TIP3    H174786   4.268   5.806   1.819  0.5500  0.1477 -1.8471
17765TIP3    H274787   4.159   5.908   1.847  0.5797 -0.3476  0.2006
17766TIP3   OH274788   0.714   2.907  14.100  0.1139 -0.1112 -0.4215
17766TIP3    H174789   0.700   3.001  14.103  0.9517  0.0186 -0.5493
17766TIP3    H274790   0.806   2.896  14.077 -0.0329 -0.9617 -0.6554
17767TIP3   OH274791   5.290   4.431   6.262  0.1389  0.2151 -0.0405
17767TIP3    H174792   5.248   4.346   6.275 -0.1630  0.6305  2.0934
17767TIP3    H274793   5.217   4.494   6.264  0.4972  0.6345 -0.1321
17768TIP3   OH274794   0.817   5.097  14.790  0.6633  1.1730  0.1851
17768TIP3    H174795   0.817   5.008  14.756 -0.0762  1.3009 -0.1648
17768TIP3    H274796   0.902   5.133  14.764  1.2207  0.3945  0.8374
17769TIP3   OH274797   2.302   6.054   6.403 -0.2794  0.5903 -0.2114
17769TIP3    H174798   2.324   5.975   6.354  1.4986 -0.7826  2.5525
17769TIP3    H274799   2.211   6.041   6.429 -0.0064 -0.5979  0.2265
17770TIP3   OH274800   1.130   1.253  13.756  0.3827  0.2192  0.8475
17770TIP3    H174801   1.051   1.202  13.738  0.0302  1.3905 -1.2869
17770TIP3    H274802   1.096   1.336  13.792  0.5710  0.8784 -0.4418
17771TIP3   OH274803   0.529   3.592  11.218  0.1582  0.1305 -0.1015
17771TIP3    H174804   0.563   3.515  11.172  0.7330  0.1934  0.2128
17771TIP3    H274805   0.536   3.664  11.154 -0.1472 -0.0187 -0.3086
17772TIP3   OH274806   6.272   5.049  15.440  0.0243  0.1097 -0.3396
17772TIP3    H174807   6.278   4.972  15.384 -0.2829 -0.4448  0.3707
17772TIP3    H274808   6.202   5.029  15.501 -0.5096  1.2315 -0.5506
17773TIP3   OH274809   4.282   3.659  12.726 -0.6316 -0.5320  0.4213
17773TIP3    H174810   4.274   3.754  12.713  2.0169 -0.2169  0.5978
17773TIP3    H274811   4.212   3.622  12.672 -0.2826  1.4450 -1.5496
17774TIP3   OH274812   5.492   5.928   3.209 -0.4193 -0.2405  0.5413
17774TIP3    H174813   5.573   5.926   3.159 -1.2803  0.5002 -0.9431
17774TIP3    H274814   5.499   6.005   3.265 -0.2254  0.0029  0.1840
17775TIP3   OH274815   2.284   4.512  17.099 -0.2501 -0.1581 -0.1184
17775TIP3    H174816   2.256   4.594  17.057 -0.0217 -0.3289 -0.6106
17775TIP3    H274817   2.257   4.521  17.190 -3.4310 -0.9632 -0.8461
17776TIP3   OH274818   1.589   0.468  11.222 -0.1747  0.4966 -0.1134
17776TIP3    H174819   1.521   0.433  11.163  0.2833 -0.3049 -0.1865
17776TIP3    H274820   1.549   0.465  11.309 -0.3310  0.2729 -0.1909
17777TIP3   OH274821   6.005   5.951   4.743  0.6276 -0.3034 -0.1460
17777TIP3    H174822   5.991   5.866   4.702  1.0392 -0.2828 -0.3342
17777TIP3    H274823   6.034   5.930   4.832 -1.2803 -0.3504  0.5274
17778TIP3   OH274824   2.120   3.159   4.186 -0.6846  0.4470  0.4557
17778TIP3    H174825   2.130   3.157   4.091 -1.5621 -0.5937  0.3667
17778TIP3    H274826   2.181   3.227   4.215 -0.5604  0.9236 -0.8609
17779TIP3   OH274827   3.530   3.706   2.307 -0.5270  0.0691 -0.2857
17779TIP3    H174828   3.614   3.726   2.349 -1.2169  0.8822  0.7766
17779TIP3    H274829   3.547   3.717   2.214  1.0339 -1.6829 -0.2662
17780TIP3   OH274830   4.396   1.821   4.670  1.1983  0.1756  0.4389
17780TIP3    H174831   4.389   1.913   4.694 -2.4102  0.0853  0.2234
17780TIP3    H274832   4.306   1.791   4.660  2.2149 -3.3883  0.3835
17781TIP3   OH274833   2.208   1.774   5.899 -0.4782 -0.1360 -0.0839
17781TIP3    H174834   2.145   1.755   5.969  0.1344  0.8710  0.7863
17781TIP3    H274835   2.181   1.718   5.826 -1.7285 -0.5007  0.6219
17782TIP3   OH274836   3.630   2.370   2.857  0.4332 -0.0057 -0.0805
17782TIP3    H174837   3.718   2.399   2.883  0.6616 -0.5220 -0.2512
17782TIP3    H274838   3.574   2.446   2.873  1.2142  0.9676 -1.6552
17783TIP3   OH274839   5.866   5.976   5.529 -0.2353  0.0053 -0.3798
17783TIP3    H174840   5.777   5.984   5.563 -0.1201 -1.0522  0.2214
17783TIP3    H274841   5.889   6.064   5.500 -1.4548  0.3006 -0.5028
17784TIP3   OH274842   0.225   5.029  12.180 -0.2602 -0.5857 -0.1054
17784TIP3    H174843   0.244   5.117  12.147 -0.5568 -0.9821 -1.3656
17784TIP3    H274844   0.241   4.971  12.106 -4.2070 -1.1955 -0.7033
17785TIP3   OH274845   3.157   6.771  17.001  0.3343  0.0124  0.3531
17785TIP3    H174846   3.245   6.774  17.039 -0.4823  1.1757  2.3085
17785TIP3    H274847   3.099   6.753  17.075 -0.9677 -3.0538 -1.2316
17786TIP3   OH274848   4.861   3.960   0.026 -0.2272  0.3248  0.5444
17786TIP3    H174849   4.864   3.873  -0.012  2.9428 -0.2924  1.9074
17786TIP3    H274850   4.788   3.957   0.088 -1.3002 -0.6936 -0.7010
17787TIP3   OH274851   3.223   2.972   2.541  0.2998  0.6237  0.3575
17787TIP3    H174852   3.285   2.941   2.475 -0.1833  0.9943 -0.2726
17787TIP3    H274853   3.270   2.960   2.624  0.9639  0.2844 -0.0528
17788TIP3   OH274854   0.030   5.490  15.731 -0.0612  0.0503  0.3388
17788TIP3    H174855   0.063   5.575  15.759  0.2386  0.5530 -1.4462
17788TIP3    H274856   0.071   5.474  15.646  0.7334 -2.3922  1.0979
17789TIP3   OH274857   1.259   4.918  17.112 -0.2756 -0.4342 -0.1321
17789TIP3    H174858   1.295   4.842  17.158 -0.2204  1.0345  2.4101
17789TIP3    H274859   1.332   4.952  17.060  0.6768 -0.2530  1.2768
17790TIP3   OH274860   0.119   0.086  12.164  0.0613  0.7248 -0.1262
17790TIP3    H174861   0.189   0.150  12.149 -0.4002  1.6570  1.4382
17790TIP3    H274862   0.045   0.120  12.115  0.2367  0.6014 -0.4781
17791TIP3   OH274863   3.752   0.031   0.842  0.9342  0.0224  0.2442
17791TIP3    H174864   3.841   0.025   0.808  0.3084  0.2060 -1.5230
17791TIP3    H274865   3.719   0.116   0.811 -0.7611 -1.1976 -1.5147
17792TIP3   OH274866   1.260   4.789  12.536  0.1834 -0.0845  0.3792
17792TIP3    H174867   1.206   4.729  12.484 -0.0294  0.5653 -0.1664
17792TIP3    H274868   1.300   4.847  12.471 -0.7099  1.2516  0.9799
17793TIP3   OH274869   0.185   5.010   6.125  0.1306 -0.5607 -0.0027
17793TIP3    H174870   0.269   5.045   6.097  0.4688 -0.2185  1.3921
17793TIP3    H274871   0.204   4.919   6.149  0.2605 -0.2800  0.9833
17794TIP3   OH274872   3.016   5.120   0.176 -0.3062 -0.1248  0.3894
17794TIP3    H174873   3.078   5.068   0.125  0.6005  0.0840  1.2456
17794TIP3    H274874   2.945   5.058   0.196  0.6707 -1.0241  1.2368
17795TIP3   OH274875   6.758   1.652   2.832  0.4245  0.4647  0.0608
17795TIP3    H174876   6.725   1.590   2.897 -1.4329  1.3852  0.0751
17795TIP3    H274877   6.853   1.640   2.832  0.1258 -2.5199 -0.1365
17796TIP3   OH274878   2.192   5.136  11.536  0.3556 -0.0585  0.4168
17796TIP3    H174879   2.118   5.078  11.552  0.8914 -0.3513  1.9744
17796TIP3    H274880   2.256   5.114  11.604  0.5558  2.4004  1.1368
17797TIP3   OH274881   2.665   0.734   5.886  0.6283  0.5709  0.0652
17797TIP3    H174882   2.738   0.704   5.940  0.5024  1.6190  0.8384
17797TIP3    H274883   2.612   0.788   5.944  0.6266  1.9628 -1.1605
17798TIP3   OH274884   4.089   0.518   3.173  0.1697  0.1931 -0.0686
17798TIP3    H174885   4.181   0.524   3.149  0.2929 -1.8917 -0.2858
17798TIP3    H274886   4.055   0.444   3.122 -1.6443  0.9292 -0.0182
17799TIP3   OH274887   5.646   2.128   2.047 -0.0622 -0.0755 -0.2703
17799TIP3    H174888   5.646   2.199   2.112 -1.2581  0.5932 -0.9686
17799TIP3    H274889   5.708   2.156   1.980  0.1656 -0.1383 -0.0876
17800TIP3   OH274890   2.107   0.683   2.881 -0.6478 -0.6450 -0.2737
17800TIP3    H174891   2.061   0.707   2.801 -1.9936 -1.3620  0.2615
17800TIP3    H274892   2.123   0.767   2.926 -0.5998 -0.3160 -0.8951
17801TIP3   OH274893   0.895   6.651   5.993 -0.1535  0.6387 -0.6821
17801TIP3    H174894   0.867   6.652   6.084 -1.2119  0.4979 -0.9932
17801TIP3    H274895   0.814   6.653   5.942  0.3983  0.2032 -1.6231
17802TIP3   OH274896   3.805   4.601  13.195 -0.3426  0.4722  0.2007
17802TIP3    H174897   3.801   4.546  13.273 -0.0085  0.7854  0.4414
17802TIP3    H274898   3.741   4.563  13.135  0.2278 -0.4683  0.1775
17803TIP3   OH274899   6.488   3.711  15.806  0.0687  0.1565  0.9126
17803TIP3    H174900   6.466   3.792  15.851  1.2616  0.6254  0.6870
17803TIP3    H274901   6.575   3.726  15.770 -0.4425 -0.5526 -0.7328
17804TIP3   OH274902   1.564   4.617  14.507 -0.3708  0.3987 -0.2575
17804TIP3    H174903   1.558   4.710  14.528 -2.7974  0.8703 -2.5159
17804TIP3    H274904   1.587   4.614  14.414  0.4822 -1.3114 -0.0435
17805TIP3   OH274905   4.296   1.193   1.186 -0.4058  0.1941 -0.1321
17805TIP3    H174906   4.290   1.174   1.279 -1.1547  0.3991 -0.1260
17805TIP3    H274907   4.306   1.289   1.182  1.7639  0.0059 -0.2076
17806TIP3   OH274908   3.920   0.662  14.060  0.7699 -0.1812 -0.1288
17806TIP3    H174909   3.909   0.628  14.149 -0.7986  0.8038  0.0956
17806TIP3    H274910   3.900   0.588  14.003 -0.6909 -0.2019  0.3564
17807TIP3   OH274911   5.564   1.464  16.917 -0.4975 -0.1326 -0.4112
17807TIP3    H174912   5.490   1.444  16.860 -0.6777 -1.4481  0.2595
17807TIP3    H274913   5.619   1.386  16.914  1.2324  1.0754 -1.4195
17808TIP3   OH274914   0.046   5.581  11.811  0.4646  0.0995 -1.0674
17808TIP3    H174915   0.044   5.506  11.751  0.6535 -1.1212  0.3995
17808TIP3    H274916   0.117   5.561  11.872  0.6086  1.5486 -0.7166
17809TIP3   OH274917   4.603   3.337   2.153  0.0746 -0.0939 -0.2812
17809TIP3    H174918   4.677   3.303   2.104 -0.8758 -1.4161 -0.8639
17809TIP3    H274919   4.618   3.307   2.243  0.4262 -0.0239 -0.3155
17810TIP3   OH274920   0.310   1.269  14.169 -0.7267  0.3703 -0.2334
17810TIP3    H174921   0.324   1.210  14.243 -0.3507 -0.5077 -0.9810
17810TIP3    H274922   0.283   1.351  14.209  0.2164  0.1521  0.9335
17811TIP3   OH274923   4.928   3.648  15.152 -0.2790  0.4378 -0.2577
17811TIP3    H174924   4.980   3.708  15.205  0.3872 -1.1137  0.9404
17811TIP3    H274925   4.990   3.608  15.092 -0.8610  1.4817 -1.5866
17812TIP3   OH274926   4.870   5.655   4.822  0.8770 -0.1805 -0.1502
17812TIP3    H174927   4.866   5.580   4.882  0.2511  0.0374  0.0839
17812TIP3    H274928   4.815   5.629   4.748  0.3731  0.1933  0.0943
17813TIP3   OH274929   5.226   3.622  17.249 -0.2193  0.0673  0.1245
17813TIP3    H174930   5.211   3.543  17.302 -0.0199  1.3864  2.2653
17813TIP3    H274931   5.139   3.649  17.221 -0.3388 -0.6277 -0.1940
17814TIP3   OH274932   4.811   5.027   4.334 -0.7396 -0.0329  0.4028
17814TIP3    H174933   4.864   5.059   4.260  0.5507  0.7628  1.6113
17814TIP3    H274934   4.733   5.082   4.333  0.3898  1.6418  1.0613
17815TIP3   OH274935   6.499   2.465  13.903 -0.2183  0.2027  0.0182
17815TIP3    H174936   6.571   2.528  13.891  1.9415 -1.8830  1.2915
17815TIP3    H274937   6.466   2.451  13.814  0.8028  1.3590 -0.5891
17816TIP3   OH274938   3.811   0.258   4.600 -0.5508 -0.1467 -0.8664
17816TIP3    H174939   3.771   0.313   4.532 -2.4046 -1.1324 -0.6279
17816TIP3    H274940   3.763   0.280   4.680  0.1663 -0.5448 -0.3181
17817TIP3   OH274941   5.290   3.557  11.851 -0.6148 -0.9524  0.1988
17817TIP3    H174942   5.271   3.468  11.820 -0.6778 -1.4094  1.4511
17817TIP3    H274943   5.212   3.581  11.902 -0.2597 -0.5099  0.5452
17818TIP3   OH274944   1.593   2.861   1.135 -0.6427 -1.2842  0.3275
17818TIP3    H174945   1.641   2.938   1.165 -1.7899  0.1533 -1.3454
17818TIP3    H274946   1.637   2.788   1.178  2.0061  0.0612  0.1518
17819TIP3   OH274947   1.214   0.806   5.563  0.3097  0.7088  0.1144
17819TIP3    H174948   1.228   0.895   5.595  0.9139  0.2911  1.0562
17819TIP3    H274949   1.280   0.754   5.608 -0.8594 -0.4373  0.5797
17820TIP3   OH274950   2.005   0.495  15.294  0.2707  0.8769  0.0132
17820TIP3    H174951   1.951   0.424  15.258  0.2053  0.9137  0.0386
17820TIP3    H274952   2.054   0.453  15.365 -0.4130  1.0556  0.5964
17821TIP3   OH274953   1.554   1.473   4.876 -0.3811  0.3744 -0.0081
17821TIP3    H174954   1.556   1.421   4.795 -1.4013  0.5946 -0.1889
17821TIP3    H274955   1.604   1.421   4.939 -0.9419 -0.5814 -0.3313
17822TIP3   OH274956   5.532   0.941   3.016 -0.2257 -0.2959  0.1851
17822TIP3    H174957   5.475   0.880   2.971  0.9539 -0.2465 -1.4418
17822TIP3    H274958   5.530   1.020   2.963  3.6961 -1.2683 -1.8050
17823TIP3   OH274959   4.145   4.748   0.507 -0.0637 -0.1310 -0.2121
17823TIP3    H174960   4.125   4.833   0.468  0.4035 -0.1867 -0.5802
17823TIP3    H274961   4.223   4.718   0.461 -0.0066 -0.5913  0.1754
17824TIP3   OH274962   2.740   1.371   1.936  0.1635 -0.0515  0.3340
17824TIP3    H174963   2.709   1.453   1.976 -0.8587  0.5359 -1.5606
17824TIP3    H274964   2.693   1.365   1.853  1.1864 -1.9281 -0.1690
17825TIP3   OH274965   6.158   4.566  13.983  0.3357  0.6084 -0.1914
17825TIP3    H174966   6.172   4.637  13.920  0.2604  0.3615 -0.4884
17825TIP3    H274967   6.096   4.602  14.047 -0.5547  0.4445 -0.9509
17826TIP3   OH274968   5.957   3.100  14.251  0.4836  0.2403 -0.1962
17826TIP3    H174969   5.999   3.128  14.332 -0.5745 -0.1735  0.5172
17826TIP3    H274970   5.864   3.091  14.274  0.3628 -1.1289 -1.1254
17827TIP3   OH274971   3.299   5.778   2.382 -0.4164 -0.0456  0.0112
17827TIP3    H174972   3.315   5.692   2.421  1.2904 -0.1696 -0.8722
17827TIP3    H274973   3.381   5.825   2.394 -0.9054  1.0155 -0.6573
17828TIP3   OH274974   1.251   1.235   5.349  0.1756 -0.2774 -0.7763
17828TIP3    H174975   1.258   1.258   5.441  1.4553 -0.6123 -0.7650
17828TIP3    H274976   1.158   1.243   5.329 -0.4253 -1.9790  0.9998
17829TIP3   OH274977   0.462   1.530   2.749  0.1566 -1.1338 -0.4890
17829TIP3    H174978   0.381   1.574   2.773  1.2225  0.7733 -0.1525
17829TIP3    H274979   0.528   1.567   2.808  1.7965 -0.5438 -2.5501
17830TIP3   OH274980   5.960   5.707   3.507  0.0001  0.6638  0.0940
17830TIP3    H174981   6.051   5.679   3.517 -0.3167 -0.9099 -0.9578
17830TIP3    H274982   5.922   5.642   3.448 -2.5317 -0.3886  2.6143
17831TIP3   OH274983   2.623   3.964  15.902  0.9373  0.4542 -0.3938
17831TIP3    H174984   2.700   3.908  15.889  0.5964 -0.1643  0.2257
17831TIP3    H274985   2.548   3.907  15.886  0.5871  0.7983 -0.0174
17832TIP3   OH274986   1.995   2.675   3.841  0.0834 -0.6360  0.1207
17832TIP3    H174987   2.040   2.681   3.757  1.8258 -1.8056  0.9119
17832TIP3    H274988   1.928   2.608   3.828  0.5100 -0.9917 -0.2890
17833TIP3   OH274989   5.979   6.553  11.346  0.4987 -1.1064 -0.4353
17833TIP3    H174990   6.043   6.533  11.415  2.4075  1.3182 -1.3454
17833TIP3    H274991   6.032   6.562  11.267 -1.0870  0.1413 -1.4154
17834TIP3   OH274992   5.132   3.636  11.028  0.2560 -0.3374 -0.3478
17834TIP3    H174993   5.070   3.592  11.086  2.0845 -0.3256  1.7613
17834TIP3    H274994   5.163   3.566  10.970 -0.7290 -0.6168 -0.5665
17835TIP3   OH274995   6.386   3.818  16.655  0.4174 -0.2790 -0.2389
17835TIP3    H174996   6.448   3.746  16.642  1.5302  0.8539 -1.5800
17835TIP3    H274997   6.409   3.882  16.587  0.8079  2.2650  2.0788
17836TIP3   OH274998   6.525   2.603   5.834 -0.4123 -0.1800  0.0129
17836TIP3    H174999   6.533   2.509   5.851 -0.4294 -0.2402 -0.3192
17836TIP3    H275000   6.517   2.641   5.921  0.9152 -0.3622  0.2487
17837TIP3   OH275001   6.470   0.930  15.310 -0.0770 -0.8643  0.4495
17837TIP3    H175002   6.413   0.877  15.254  1.8642 -2.5563 -0.0520
17837TIP3    H275003   6.534   0.867  15.344  0.8303  0.7564  1.8633
17838TIP3   OH275004   3.935   5.842  12.914  0.6361 -0.3401  0.1119
17838TIP3    H175005   4.005   5.861  12.977 -0.6823  0.0162  1.5372
17838TIP3    H275006   3.924   5.924  12.865  1.1753 -0.3828 -0.0875
17839TIP3   OH275007   5.459   0.988   4.155  0.0695  0.5001 -0.0549
17839TIP3    H175008   5.400   1.063   4.148 -0.3188  0.2445  0.3992
17839TIP3    H275009   5.478   0.963   4.065  1.3333  2.0163 -0.2575
17840TIP3   OH275010   5.379   2.695  17.286  0.1006  0.2282 -0.5450
17840TIP3    H175011   5.371   2.718  17.194  0.6257  0.1760 -0.6035
17840TIP3    H275012   5.378   2.599  17.288 -0.7397  0.2271 -0.4160
17841TIP3   OH275013   0.032   6.093  16.195 -0.0545 -0.1441  0.1985
17841TIP3    H175014   0.083   6.158  16.147 -1.1390  0.4844 -0.1261
17841TIP3    H275015   0.052   6.112  16.287  0.3481  0.0471  0.0772
17842TIP3   OH275016   2.027   1.723   2.753  0.2906  0.4963 -0.7366
17842TIP3    H175017   1.973   1.800   2.737  0.0210  0.1394 -1.6670
17842TIP3    H275018   2.104   1.736   2.698 -0.3236 -0.4368 -1.8985
17843TIP3   OH275019   4.927   3.105  10.736 -0.2433 -0.2459  0.4276
17843TIP3    H175020   4.982   3.142  10.804 -0.1342  2.4650 -1.0227
17843TIP3    H275021   4.840   3.143  10.752  0.1044  1.6231 -1.7073
17844TIP3   OH275022   5.765   1.478  15.511  0.1783  0.0716  0.3306
17844TIP3    H175023   5.848   1.464  15.557 -1.2349  0.1029  3.1283
17844TIP3    H275024   5.742   1.392  15.475  0.8796 -0.2031  0.5266
17845TIP3   OH275025   5.918   4.122   5.977 -0.1330 -0.5181 -0.1138
17845TIP3    H175026   5.885   4.201   6.019 -0.1143 -0.2903 -0.5232
17845TIP3    H275027   5.881   4.124   5.889 -0.3465 -1.1015 -0.0478
17846TIP3   OH275028   4.994   6.616   1.706 -0.2975 -0.5711  0.6564
17846TIP3    H175029   4.973   6.552   1.638 -1.1253  0.0878  0.2775
17846TIP3    H275030   4.913   6.627   1.755  0.7498 -2.4067  2.9688
17847TIP3   OH275031   0.455   2.305   3.769 -0.7309 -0.0482  0.0387
17847TIP3    H175032   0.412   2.233   3.722 -1.7006 -0.4802  1.4981
17847TIP3    H275033   0.389   2.335   3.831 -0.3199  2.1032 -0.5076
17848TIP3   OH275034   0.637   2.137   1.270 -0.0953 -0.7911  0.0923
17848TIP3    H175035   0.632   2.090   1.187  0.4141 -0.2031 -0.2874
17848TIP3    H275036   0.685   2.078   1.329  0.9069 -0.5904 -0.5004
17849TIP3   OH275037   4.297   2.607   0.513 -0.6477  0.1311 -0.5203
17849TIP3    H175038   4.248   2.684   0.483  0.7110  0.2607 -2.5996
17849TIP3    H275039   4.289   2.544   0.442  2.2743  0.2201 -1.0478
17850TIP3   OH275040   3.052   2.280   5.858  0.0309 -0.7141 -0.0653
17850TIP3    H175041   3.128   2.329   5.825  0.6327 -2.8421 -2.1344
17850TIP3    H275042   3.083   2.239   5.939  1.9238 -3.1850 -1.8814
17851TIP3   OH275043   6.439   1.863  15.198 -0.0205  0.3290 -0.2388
17851TIP3    H175044   6.409   1.954  15.202  0.8965  0.6502 -0.3768
17851TIP3    H275045   6.480   1.848  15.283 -2.5878 -0.8776  0.9134
17852TIP3   OH275046   4.029   6.223   0.563 -0.0622 -0.4674 -0.1247
17852TIP3    H175047   4.041   6.128   0.569 -0.5482 -0.5773 -0.8260
17852TIP3    H275048   4.030   6.253   0.654 -1.9818 -1.4173  0.2494
17853TIP3   OH275049   4.982   1.594  13.597  0.4154 -0.0950 -0.6135
17853TIP3    H175050   4.962   1.629  13.684 -1.5067 -1.4700 -0.4262
17853TIP3    H275051   4.937   1.653  13.537  2.6389  1.4895 -0.8153
17854TIP3   OH275052   3.251   6.557  11.603  0.1022  0.5368  0.1850
17854TIP3    H175053   3.241   6.544  11.509 -0.0542 -1.3096  0.4338
17854TIP3    H275054   3.169   6.524  11.641  0.7628 -0.1256  1.0656
17855TIP3   OH275055   5.252   1.877   1.966  0.3774  0.1211  0.1032
17855TIP3    H175056   5.344   1.881   1.989  0.4410  1.6839 -0.2718
17855TIP3    H275057   5.232   1.965   1.933 -1.1030 -0.3505 -0.3450
17856TIP3   OH275058   2.619   5.308  16.828  0.0826  0.3598 -0.4517
17856TIP3    H175059   2.645   5.294  16.737  0.8836  2.2155 -0.5592
17856TIP3    H275060   2.540   5.362  16.822  0.3187  0.7621 -0.0538
17857TIP3   OH275061   0.214   1.504  13.628 -0.3806  0.4955 -0.2135
17857TIP3    H175062   0.207   1.597  13.606 -0.3552  1.3600  2.8867
17857TIP3    H275063   0.128   1.468  13.608 -0.5900  1.3178 -0.8509
17858TIP3   OH275064   5.716   0.064   1.869  0.0605 -0.2999  0.0951
17858TIP3    H175065   5.708  -0.012   1.927 -2.0400  1.0870  1.7932
17858TIP3    H275066   5.791   0.113   1.904  0.2140 -0.6034  0.1995
17859TIP3   OH275067   3.305   2.910  15.596 -0.3074 -0.1746 -0.5520
17859TIP3    H175068   3.387   2.865  15.575 -0.2176 -0.0495 -0.4734
17859TIP3    H275069   3.245   2.884  15.527 -0.3709 -0.7175 -0.3006
17860TIP3   OH275070   3.977   5.947   0.033  0.3281  0.1037  0.1548
17860TIP3    H175071   3.930   5.882   0.085 -2.6309  0.5588 -1.7032
17860TIP3    H275072   4.049   5.898  -0.008  1.5010 -0.6766  2.9180
17861TIP3   OH275073   2.931   6.499  11.901  0.2040  0.0705  0.5210
17861TIP3    H175074   2.956   6.496  11.808 -1.2205  0.4916  0.0985
17861TIP3    H275075   2.861   6.564  11.905  1.3789  1.2991  2.1981
17862TIP3   OH275076   3.517   5.038  12.052  0.1955  0.0466  0.0978
17862TIP3    H175077   3.458   5.113  12.040 -0.1805 -0.2214  0.2675
17862TIP3    H275078   3.596   5.062  12.003  0.1291  0.6106  0.2579
17863TIP3   OH275079   2.160   3.665   5.330 -0.1872  0.2919 -0.2863
17863TIP3    H175080   2.237   3.638   5.380 -0.6370 -0.3807  0.0524
17863TIP3    H275081   2.181   3.641   5.240  0.0897  0.3202 -0.2322
17864TIP3   OH275082   0.579   1.365  11.814  0.7409 -0.3473  0.0684
17864TIP3    H175083   0.635   1.434  11.779 -1.3223 -0.2513 -3.4333
17864TIP3    H275084   0.491   1.403  11.814 -0.5358 -2.9406 -2.3708
17865TIP3   OH275085   4.132   3.430   3.057 -0.2747  0.2087 -0.2531
17865TIP3    H175086   4.192   3.495   3.093  0.0609  0.0586 -0.5394
17865TIP3    H275087   4.187   3.373   3.003 -0.8215  0.7043 -1.3846
17866TIP3   OH275088   3.327   1.788  16.727 -0.1414 -0.1176 -0.5055
17866TIP3    H175089   3.321   1.848  16.652 -0.7373  0.5669  0.0704
17866TIP3    H275090   3.328   1.846  16.803  1.4870 -0.7575 -0.0074
17867TIP3   OH275091   3.125   5.261   2.642  0.0218  0.3614  0.4119
17867TIP3    H175092   3.114   5.169   2.617 -0.4233  0.6643 -0.5818
17867TIP3    H275093   3.077   5.309   2.574 -1.1556  1.2586  1.8221
17868TIP3   OH275094   2.455   2.798  16.060  0.0025 -0.1821  0.3399
17868TIP3    H175095   2.522   2.746  16.105 -0.1333 -1.5668 -0.9813
17868TIP3    H275096   2.401   2.834  16.130 -0.2861 -2.3644  1.3148
17869TIP3   OH275097   1.995   0.005  13.050  0.0471  0.7259 -0.3228
17869TIP3    H175098   1.909   0.039  13.074  0.2822  0.5320  0.8982
17869TIP3    H275099   2.056   0.073  13.080  0.2843  1.4251 -2.2738
17870TIP3   OH275100   5.964   5.948   0.842 -0.0492  0.4375 -0.3518
17870TIP3    H175101   5.914   6.020   0.803  0.5897  0.9763 -0.1893
17870TIP3    H275102   5.907   5.871   0.832 -0.0092  0.6023 -2.1126
17871TIP3   OH275103   3.455   2.970   4.752 -0.0718  0.6168  0.3406
17871TIP3    H175104   3.489   3.041   4.806 -0.0026  0.4398  0.5293
17871TIP3    H275105   3.401   2.918   4.812  0.9119 -0.2259  0.5190
17872TIP3   OH275106   5.989   4.987  16.641  0.1039 -0.2923 -0.1091
17872TIP3    H175107   5.927   4.973  16.713  1.0785 -3.0808  0.3016
17872TIP3    H275108   5.940   4.963  16.562 -0.1784  0.2356 -0.0958
17873TIP3   OH275109   0.452   6.113   3.515 -0.0067  0.6910  0.0798
17873TIP3    H175110   0.516   6.077   3.455  0.4219 -0.0803  0.9790
17873TIP3    H275111   0.462   6.208   3.507  1.3925  0.5791  0.3437
17874TIP3   OH275112   0.018   5.702   4.400 -0.4386  0.2540  0.3495
17874TIP3    H175113  -0.065   5.724   4.358 -1.0694 -1.0476  0.8530
17874TIP3    H275114   0.005   5.727   4.492 -0.7678 -1.1072  0.6977
17875TIP3   OH275115   0.941   4.427  12.391 -0.1515 -0.2138 -0.0367
17875TIP3    H175116   0.968   4.412  12.481 -0.7317  2.3668  0.6424
17875TIP3    H275117   0.986   4.507  12.365 -2.0524  0.5786 -1.1075
17876TIP3   OH275118   3.674   3.546  17.183  0.0182  0.0864  0.2058
17876TIP3    H175119   3.722   3.612  17.234 -0.5248 -0.3912  1.3882
17876TIP3    H275120   3.738   3.511  17.121  1.4263 -0.9749  2.1460
17877TIP3   OH275121   3.850   1.585  12.048 -0.1191  0.0683 -0.4125
17877TIP3    H175122   3.782   1.534  12.093 -2.0442 -0.2589 -3.4141
17877TIP3    H275123   3.844   1.672  12.087  1.1882 -1.0826  2.7233
17878TIP3   OH275124   1.097   4.128   5.240  0.6131 -0.4534 -0.7095
17878TIP3    H175125   1.115   4.057   5.302 -0.1627  0.2640  0.3715
17878TIP3    H275126   1.062   4.199   5.294 -1.5762 -0.3511 -2.1556
17879TIP3   OH275127   0.659   3.841   3.760  0.2651  0.0149  0.6739
17879TIP3    H175128   0.668   3.911   3.696  0.7191 -2.3711 -2.0705
17879TIP3    H275129   0.737   3.847   3.815  0.5621  1.2772  0.1237
17880TIP3   OH275130   2.051   4.490   4.223  0.2752  0.7358  0.4502
17880TIP3    H175131   2.036   4.494   4.317  0.2297  2.0006  0.4090
17880TIP3    H275132   2.122   4.427   4.212  0.9043  1.2661  1.4140
17881TIP3   OH275133   6.076   6.184   1.666  0.5236  0.2609 -0.5690
17881TIP3    H175134   6.090   6.102   1.714  0.0749 -0.9826 -2.4391
17881TIP3    H275135   6.037   6.243   1.730  1.3923 -0.7893  0.9798
17882TIP3   OH275136   1.200   3.364   2.182  0.4109 -0.3385 -0.3974
17882TIP3    H175137   1.191   3.378   2.276 -0.8392  0.0304 -0.5496
17882TIP3    H275138   1.138   3.425   2.142  1.5393  0.1191 -1.5083
17883TIP3   OH275139   3.824   3.912   4.881 -0.2532  0.1867  0.4329
17883TIP3    H175140   3.769   3.977   4.925 -0.6114  0.0803  0.1426
17883TIP3    H275141   3.762   3.847   4.847 -0.0027  0.4346 -0.5142
17884TIP3   OH275142   3.139   3.252   4.501  0.1601  0.2644 -0.4987
17884TIP3    H175143   3.098   3.225   4.583  0.7872 -0.6233 -0.4640
17884TIP3    H275144   3.225   3.210   4.502  0.3263  0.5576 -1.4382
17885TIP3   OH275145   2.940   4.813  12.178 -0.0634 -0.1800 -0.1282
17885TIP3    H175146   2.863   4.790  12.126 -0.2904 -0.2888  0.2533
17885TIP3    H275147   2.970   4.896  12.140 -1.6970  1.0563  1.1168
17886TIP3   OH275148   0.620   3.098  16.878  0.3613  0.2477  0.1924
17886TIP3    H175149   0.705   3.110  16.835 -0.0524 -0.7032 -0.9546
17886TIP3    H275150   0.567   3.172  16.849  0.1292 -0.3126 -0.8851
17887TIP3   OH275151   0.133   1.572   1.322  0.1103 -0.0773  0.0034
17887TIP3    H175152   0.088   1.654   1.344  2.3414  0.9650  0.9825
17887TIP3    H275153   0.172   1.589   1.236  0.2018 -0.2676  0.0076
17888TIP3   OH275154   1.429   1.680   5.592  0.5491 -0.0221 -0.1129
17888TIP3    H175155   1.519   1.707   5.612  0.6942  0.7146 -1.6544
17888TIP3    H275156   1.410   1.719   5.507 -2.1347  2.0601  1.2424
17889TIP3   OH275157   5.297   5.322   5.643  0.4038 -0.0978 -0.2060
17889TIP3    H175158   5.318   5.281   5.726 -3.1081 -0.9075  0.4567
17889TIP3    H275159   5.317   5.415   5.656 -1.0345 -0.0223  2.0058
17890TIP3   OH275160   1.514   5.267  11.378  0.8734  0.4999 -0.8903
17890TIP3    H175161   1.443   5.327  11.401  1.1585  0.6697 -0.4165
17890TIP3    H275162   1.523   5.274  11.283 -0.7796 -0.7074 -1.1732
17891TIP3   OH275163   0.883   1.321   1.056 -0.2301 -0.1902  0.5994
17891TIP3    H175164   0.802   1.368   1.033 -0.5391 -0.6546  0.7299
17891TIP3    H275165   0.941   1.390   1.089  0.2878  0.5330 -1.6708
17892TIP3   OH275166   5.765   0.014  13.806 -0.3346 -0.4051 -0.3239
17892TIP3    H175167   5.706  -0.057  13.831  1.2994 -1.4820  0.5789
17892TIP3    H275168   5.777   0.065  13.886  0.7730 -0.8125 -0.2143
17893TIP3   OH275169   2.284   1.740  11.568 -0.0912  0.3565  0.0923
17893TIP3    H175170   2.375   1.763  11.586  0.5757 -1.5675 -0.6093
17893TIP3    H275171   2.280   1.727  11.474 -1.3494  1.3421 -0.0155
17894TIP3   OH275172   4.327   4.601  11.503 -0.3349  0.5670 -0.1216
17894TIP3    H175173   4.279   4.527  11.539  1.9279 -1.4326 -0.9163
17894TIP3    H275174   4.315   4.595  11.409  0.9494  0.3440 -0.2956
17895TIP3   OH275175   0.955   5.314  13.310  0.0075 -0.4533 -0.1004
17895TIP3    H175176   0.928   5.283  13.224 -1.0707  0.1742 -0.0205
17895TIP3    H275177   0.964   5.235  13.363 -1.3701 -0.7541 -0.2567
17896TIP3   OH275178   3.788   1.809   6.320 -0.1645 -0.2773 -0.1253
17896TIP3    H175179   3.864   1.842   6.271 -0.1618 -0.2241 -0.0862
17896TIP3    H275180   3.799   1.714   6.321 -0.0725 -0.2658 -0.0771
17897TIP3   OH275181   2.003   2.760   2.793 -0.6578  0.2069  0.0412
17897TIP3    H175182   1.947   2.805   2.729  1.6874  3.6357  0.0952
17897TIP3    H275183   1.949   2.754   2.872 -2.0304  0.3223 -0.8569
17898TIP3   OH275184   6.677   6.162  14.820 -0.0233 -0.4573 -0.0564
17898TIP3    H175185   6.748   6.183  14.759  0.5246 -0.9167  0.4131
17898TIP3    H275186   6.721   6.133  14.900 -0.7187  0.3507  0.6546
17899TIP3   OH275187   6.715   4.211  11.157 -0.2343 -0.6418  0.2879
17899TIP3    H175188   6.721   4.129  11.108  2.1708  0.3890 -1.3388
17899TIP3    H275189   6.697   4.183  11.247  1.5946 -3.0909  0.0118
17900TIP3   OH275190   3.954   0.696   5.315  0.9372 -0.8863 -0.2567
17900TIP3    H175191   3.923   0.776   5.357 -0.6261 -0.4237 -2.1400
17900TIP3    H275192   4.041   0.680   5.353  1.2607  1.6516  0.2037
17901TIP3   OH275193   2.460   3.501  13.167  0.6191 -0.2699 -0.0533
17901TIP3    H175194   2.365   3.515  13.165  0.8477  1.5564 -2.0249
17901TIP3    H275195   2.471   3.408  13.148 -0.7674 -0.2416 -1.1589
17902TIP3   OH275196   3.309   0.924  12.422 -0.1348 -0.0106 -0.3979
17902TIP3    H175197   3.340   0.886  12.339 -1.5995  0.3039 -1.1241
17902TIP3    H275198   3.221   0.955  12.402 -0.4168  0.3035  1.2318
17903TIP3   OH275199   3.634   2.326   0.307 -0.2059 -0.0369 -0.0945
17903TIP3    H175200   3.619   2.343   0.401 -1.8834 -0.6130 -0.2219
17903TIP3    H275201   3.593   2.241   0.291 -0.6825  0.4317 -1.5194
17904TIP3   OH275202   2.022   1.210  16.573 -0.0240  0.4327 -0.5430
17904TIP3    H175203   2.022   1.288  16.628 -2.1035 -1.0336  1.7137
17904TIP3    H275204   2.014   1.137  16.634 -0.4734 -1.4314 -2.6902
17905TIP3   OH275205   2.668   5.646   4.823  0.5637 -0.1194 -0.1931
17905TIP3    H175206   2.647   5.580   4.757 -1.4531  0.1780  0.0724
17905TIP3    H275207   2.713   5.597   4.892  2.4001 -0.4984 -1.5705
17906TIP3   OH275208   1.050   2.714   3.633  0.3704  0.3855  0.0433
17906TIP3    H175209   1.012   2.682   3.551  0.3850  0.9205 -0.1820
17906TIP3    H275210   1.138   2.743   3.608  0.5801  0.0288  0.3649
17907TIP3   OH275211   3.886   4.391  14.209  0.3645 -0.3064  0.4750
17907TIP3    H175212   3.973   4.431  14.216  0.8369 -1.1604 -0.2335
17907TIP3    H275213   3.897   4.322  14.143 -1.3768  0.9928 -1.2825
17908TIP3   OH275214   6.678   0.834  13.418  0.1288 -0.3523 -0.2043
17908TIP3    H175215   6.661   0.751  13.462  1.3419 -0.3884  0.2461
17908TIP3    H275216   6.682   0.899  13.489 -0.0013 -0.0507 -0.4698
17909TIP3   OH275217   1.627   5.724  11.407 -0.3077  0.0026 -0.1081
17909TIP3    H175218   1.639   5.634  11.437  2.7150  0.8689  1.6708
17909TIP3    H275219   1.532   5.732  11.395 -0.9746 -2.6170  2.3116
17910TIP3   OH275220   5.284   2.055   3.468 -0.4037 -0.4028 -0.2500
17910TIP3    H175221   5.263   2.118   3.536 -1.3830 -1.3195  0.3447
17910TIP3    H275222   5.366   2.085   3.430 -0.4571  0.7734  0.5381
17911TIP3   OH275223   4.942   0.142  13.001  0.2896  0.0208  0.1181
17911TIP3    H175224   5.015   0.203  12.995 -1.0846  1.9325  1.4561
17911TIP3    H275225   4.935   0.122  13.095 -0.5881 -0.5181 -0.0466
17912TIP3   OH275226   0.581   2.288   0.554 -0.4572 -0.2636 -0.0564
17912TIP3    H175227   0.541   2.283   0.641  0.1063 -0.3766  0.2027
17912TIP3    H275228   0.639   2.364   0.558  0.4026 -0.8972  0.0344
17913TIP3   OH275229   6.392   3.293   3.149 -0.2787  0.2167 -0.0410
17913TIP3    H175230   6.471   3.256   3.111  0.0001  0.9627 -0.1818
17913TIP3    H275231   6.360   3.224   3.208  1.0120  0.2889  0.7705
17914TIP3   OH275232   3.345   0.591   4.129 -0.0018  0.1910  0.0273
17914TIP3    H175233   3.356   0.643   4.209  1.4418  1.0539 -0.6898
17914TIP3    H275234   3.362   0.501   4.156 -3.2103 -0.1397  1.4447
17915TIP3   OH275235   0.017   1.228   5.550  0.5991 -0.0962 -0.5616
17915TIP3    H175236   0.038   1.210   5.459  0.2000 -0.0046 -0.6722
17915TIP3    H275237  -0.068   1.272   5.548  1.0609  0.8561 -0.2243
17916TIP3   OH275238   4.888   6.313  15.293  0.0675  0.1029 -0.3493
17916TIP3    H175239   4.948   6.301  15.366 -0.0941 -2.4266 -0.5565
17916TIP3    H275240   4.943   6.313  15.216  0.0160  0.2338 -0.3860
17917TIP3   OH275241   0.491   4.180  13.878 -0.1447  0.5161  0.0309
17917TIP3    H175242   0.475   4.098  13.924  0.9178 -0.5647 -1.4033
17917TIP3    H275243   0.504   4.154  13.787 -0.1145  2.3312 -0.5296
17918TIP3   OH275244   2.906   2.075  11.064 -0.3147  0.2296 -0.1518
17918TIP3    H175245   2.980   2.133  11.048  0.9200 -1.0691  0.6005
17918TIP3    H275246   2.920   2.002  11.003 -0.2817 -0.6140  0.8398
17919TIP3   OH275247   6.363   0.160  12.091 -0.4596  0.0006  0.1962
17919TIP3    H175248   6.348   0.195  12.003  1.9764 -3.6164 -1.8928
17919TIP3    H275249   6.316   0.076  12.091 -2.1833  0.8463  3.2310
17920TIP3   OH275250   2.652   4.327   2.225  0.0092  0.2178  0.3058
17920TIP3    H175251   2.696   4.242   2.215  0.4781  0.5991 -1.1738
17920TIP3    H275252   2.722   4.387   2.252  0.2843  0.6725 -1.3256
17921TIP3   OH275253   2.358   6.641   5.397 -0.1460 -0.8090 -0.1244
17921TIP3    H175254   2.317   6.662   5.313 -1.4751  2.9645  1.2461
17921TIP3    H275255   2.302   6.573   5.435 -1.8280  0.1561 -0.7595
17922TIP3   OH275256   5.174   5.042   0.885 -0.2090 -0.4626  0.0770
17922TIP3    H175257   5.190   5.104   0.813 -0.2842  2.6178  2.4816
17922TIP3    H275258   5.260   5.004   0.903  0.1392  0.0063 -0.5418
17923TIP3   OH275259   6.065   0.474   0.643  0.3541 -0.2222  0.1499
17923TIP3    H175260   5.971   0.459   0.640 -0.5325  4.0588 -0.2492
17923TIP3    H275261   6.092   0.479   0.551  0.5640  0.4252  0.2428
17924TIP3   OH275262   0.616   5.742  15.405  0.0259 -0.0800 -0.1470
17924TIP3    H175263   0.609   5.752  15.310 -2.7242 -0.6134 -0.0738
17924TIP3    H275264   0.704   5.708  15.419  0.6032  0.3068 -2.4651
17925TIP3   OH275265   0.293   4.789   5.845  0.3636  0.4364  0.5454
17925TIP3    H175266   0.204   4.779   5.813  0.3224 -0.8982  1.0484
17925TIP3    H275267   0.310   4.883   5.838  0.7351  0.2866 -4.3681
17926TIP3   OH275268   5.041   4.993   5.015 -0.0286 -0.4758  0.1653
17926TIP3    H175269   5.071   5.015   5.103 -1.8820 -1.1130  1.0192
17926TIP3    H275270   5.107   4.934   4.981  1.2194  0.5585  0.7328
17927TIP3   OH275271   0.966   4.842   5.658 -0.0621 -0.9412  0.2807
17927TIP3    H175272   1.061   4.843   5.642  0.2104 -1.6549  1.7048
17927TIP3    H275273   0.931   4.903   5.594  1.4543 -0.0079  0.2728
17928TIP3   OH275274   6.643   2.749   5.622 -0.3678 -0.2816  0.2868
17928TIP3    H175275   6.726   2.752   5.670 -0.6693  2.0370  0.7774
17928TIP3    H275276   6.599   2.672   5.655  1.5649 -1.5841  0.0103
17929TIP3   OH275277   4.256   3.697   5.930  0.4824 -0.1813  0.2119
17929TIP3    H175278   4.292   3.775   5.973  0.7331 -0.5555  0.6833
17929TIP3    H275279   4.240   3.635   6.002 -1.5641  0.1421  0.1097
17930TIP3   OH275280   2.637   4.946  13.934 -0.6362  0.1505  0.0120
17930TIP3    H175281   2.576   4.876  13.908 -0.9935  0.6224 -0.4574
17930TIP3    H275282   2.583   5.025  13.933 -0.2866  0.4006  0.7561
17931TIP3   OH275283   1.310   3.434   0.583 -0.0857 -0.5934  0.0526
17931TIP3    H175284   1.326   3.383   0.662 -0.7337  1.5397  1.6901
17931TIP3    H275285   1.217   3.418   0.562 -0.1647 -0.4492  0.2902
17932TIP3   OH275286   0.250   2.701   5.238  0.4366 -0.6479  0.3818
17932TIP3    H175287   0.247   2.648   5.159  1.2487  1.4290 -1.1357
17932TIP3    H275288   0.338   2.688   5.273  1.6459  1.5715 -1.4962
17933TIP3   OH275289   4.166   1.867   2.590  0.1182  0.4731  0.3344
17933TIP3    H175290   4.110   1.857   2.514  1.0759 -1.8850 -0.1337
17933TIP3    H275291   4.143   1.793   2.647  0.4933  1.3206  1.6349
17934TIP3   OH275292   4.743   5.325   1.610 -0.2542  0.3131  0.0871
17934TIP3    H175293   4.672   5.317   1.674 -1.2844 -0.2916 -1.0707
17934TIP3    H275294   4.744   5.240   1.566  0.8052  0.5279 -0.3145
17935TIP3   OH275295   5.827   5.622   0.156 -0.0084 -0.3793 -0.2779
17935TIP3    H175296   5.872   5.551   0.202  0.4563  0.0433 -0.0594
17935TIP3    H275297   5.855   5.613   0.065 -0.0170 -0.5255 -0.2665
17936TIP3   OH275298   6.734   1.313  11.356  0.0391  0.5279  0.1930
17936TIP3    H175299   6.688   1.240  11.315 -1.0345  1.1525  0.2273
17936TIP3    H275300   6.819   1.316  11.313 -0.2522 -0.1691 -0.4465
17937TIP3   OH275301   2.384   3.761   3.944 -0.6225  0.6909 -0.2215
17937TIP3    H175302   2.327   3.805   3.881 -1.1881 -1.7051 -1.4971
17937TIP3    H275303   2.472   3.791   3.922 -0.6737 -0.9336 -3.0108
17938TIP3   OH275304   2.674   3.187  16.402  0.2981  0.5099 -0.2006
17938TIP3    H175305   2.722   3.108  16.376  0.1110  0.7020 -1.1593
17938TIP3    H275306   2.594   3.185  16.350 -1.5949 -0.6482  2.4733
17939TIP3   OH275307   6.661   2.362   5.584 -0.3828  0.0460 -0.1227
17939TIP3    H175308   6.682   2.419   5.659  0.4721  1.4298 -1.3574
17939TIP3    H275309   6.737   2.304   5.576 -0.3507  0.0827 -0.0871
17940TIP3   OH275310   2.036   4.793   1.315 -0.4400  0.3147 -0.1888
17940TIP3    H175311   2.111   4.761   1.266 -0.0827  0.7616  0.0662
17940TIP3    H275312   2.029   4.735   1.391 -1.0577 -0.4444 -0.8097
17941TIP3   OH275313   1.211   0.164   4.186 -0.5807  0.4122  0.6121
17941TIP3    H175314   1.177   0.102   4.121 -0.9199  1.9919 -0.8010
17941TIP3    H275315   1.154   0.152   4.262 -1.1404 -0.4364  0.0852
17942TIP3   OH275316   2.076   5.800  15.258  0.6358  0.1661 -0.0928
17942TIP3    H175317   2.049   5.887  15.229  0.1443 -0.1180 -0.5190
17942TIP3    H275318   1.998   5.745  15.246  0.9056 -0.3093  0.2705
17943TIP3   OH275319   1.397   2.240   6.537  0.0220 -0.8904  0.5935
17943TIP3    H175320   1.356   2.156   6.519 -0.0032 -0.2352 -3.1973
17943TIP3    H275321   1.487   2.219   6.561 -0.4251 -2.0133  1.3613
17944TIP3   OH275322   4.420   0.881   1.327  0.6856 -0.1948 -0.5344
17944TIP3    H175323   4.389   0.832   1.403  2.6978  1.3531  1.4155
17944TIP3    H275324   4.398   0.972   1.347 -0.8108  0.0757 -2.9631
17945TIP3   OH275325   4.802   4.717   2.189  0.0703 -0.0850  0.3053
17945TIP3    H175326   4.778   4.691   2.278  1.8199 -0.3782  0.7286
17945TIP3    H275327   4.816   4.811   2.195  0.3371 -0.1289  0.3814
17946TIP3   OH275328   2.134   2.938   4.340  0.1539  0.0300  0.0116
17946TIP3    H175329   2.055   2.885   4.350 -0.2731  0.4865 -0.7919
17946TIP3    H275330   2.104   3.016   4.293  0.9018  0.6558  0.5458
17947TIP3   OH275331   3.864   2.182  12.808  0.1680 -0.0882  0.3180
17947TIP3    H175332   3.825   2.095  12.803 -0.7866  0.3944 -0.9350
17947TIP3    H275333   3.846   2.211  12.898 -1.6790 -0.2133  0.0312
17948TIP3   OH275334   0.996   2.951  13.864  0.2157 -0.7442  0.6115
17948TIP3    H175335   1.091   2.962  13.871  0.1971 -0.7561  0.8866
17948TIP3    H275336   0.985   2.881  13.800  0.3703 -0.0816 -0.1653
17949TIP3   OH275337   1.691   5.394   5.739  0.3867 -0.1778  0.2001
17949TIP3    H175338   1.687   5.490   5.730  0.9908 -0.1550  0.0775
17949TIP3    H275339   1.628   5.361   5.676  1.1023  0.1145 -0.6982
17950TIP3   OH275340   5.473   3.343  12.541 -0.0717 -0.4537  0.1767
17950TIP3    H175341   5.475   3.248  12.533  0.9338 -0.5191  1.0164
17950TIP3    H275342   5.452   3.359  12.634 -0.9855  0.1580 -0.1186
17951TIP3   OH275343   3.150   5.548  15.979 -0.1553 -0.0210 -0.8255
17951TIP3    H175344   3.215   5.517  16.041  0.3766 -0.2550 -1.4860
17951TIP3    H275345   3.101   5.470  15.953 -0.5767  0.1230 -0.4801
17952TIP3   OH275346   5.550   6.475   2.815  0.4797 -0.4459 -0.4121
17952TIP3    H175347   5.628   6.529   2.828  0.3892 -0.4494  0.1576
17952TIP3    H275348   5.582   6.385   2.822  0.5631 -0.4686 -0.9915
17953TIP3   OH275349   1.200   0.172  13.642  0.4069 -0.2290  0.2801
17953TIP3    H175350   1.248   0.192  13.562  0.4170  0.8924  0.5574
17953TIP3    H275351   1.114   0.143  13.611  0.0752  1.1136 -0.1430
17954TIP3   OH275352   6.675   1.093  13.832 -1.1063 -0.2768  0.0537
17954TIP3    H175353   6.722   1.148  13.768 -0.2246 -1.0469  0.0128
17954TIP3    H275354   6.656   1.152  13.905 -0.8870  0.2794 -0.3300
17955TIP3   OH275355   1.576   2.014  14.871 -0.4485  0.3074 -0.4526
17955TIP3    H175356   1.519   2.043  14.800 -1.3411 -0.0952  0.0797
17955TIP3    H275357   1.662   2.051  14.850 -1.4972  3.3955  0.2178
17956TIP3   OH275358   5.055   5.644   5.582 -0.2890  0.6181  0.2154
17956TIP3    H175359   5.103   5.712   5.630  0.7275 -0.4311  0.7330
17956TIP3    H275360   5.081   5.656   5.491  0.5763  0.3939  0.4208
17957TIP3   OH275361   1.565   5.354  13.040 -0.5595 -0.1667  0.0143
17957TIP3    H175362   1.517   5.424  13.084  0.0343 -0.0085  0.4322
17957TIP3    H275363   1.654   5.387  13.032 -0.2985 -0.8218  0.0955
17958TIP3   OH275364   2.528   5.351   2.796 -0.0426  0.7086 -0.2494
17958TIP3    H175365   2.609   5.396   2.821  0.2023 -0.4022  1.0493
17958TIP3    H275366   2.536   5.338   2.701  0.9179  1.3264 -0.2683
17959TIP3   OH275367   1.234   3.415  15.206 -0.5467 -0.4447 -0.1462
17959TIP3    H175368   1.243   3.510  15.211 -1.1580 -0.2801 -1.7382
17959TIP3    H275369   1.155   3.401  15.154 -1.9648 -1.8368  2.2127
17960TIP3   OH275370   5.486   1.739   1.033  0.1672 -0.3929 -0.0202
17960TIP3    H175371   5.412   1.799   1.036 -0.3337 -1.0101  0.6104
17960TIP3    H275372   5.470   1.685   0.955 -0.0030 -0.4647  0.0632
17961TIP3   OH275373   2.302   0.168  12.928  0.2749  0.1866 -0.3500
17961TIP3    H175374   2.395   0.155  12.950 -0.5761 -1.1257  3.1382
17961TIP3    H275375   2.275   0.087  12.885  0.3356 -0.2343  0.3863
17962TIP3   OH275376   0.236   2.146  14.878  0.3657 -0.0382  0.5022
17962TIP3    H175377   0.203   2.227  14.839 -2.8006 -1.2766  0.2630
17962TIP3    H275378   0.291   2.107  14.811 -2.0705 -0.3740 -1.4728
17963TIP3   OH275379   2.031   1.533  15.691 -0.3571 -0.0189  0.5415
17963TIP3    H175380   1.943   1.504  15.665 -0.5475  0.1014  1.0449
17963TIP3    H275381   2.083   1.453  15.690 -0.2892  0.0175 -0.4613
17964TIP3   OH275382   2.245   5.159   4.888 -0.2440 -0.1710  0.2959
17964TIP3    H175383   2.311   5.221   4.920  0.3481 -0.4911 -0.2814
17964TIP3    H275384   2.230   5.186   4.797  0.9403 -1.6199 -0.3614
17965TIP3   OH275385   3.829   2.102  16.991 -0.5569 -0.4193 -0.0436
17965TIP3    H175386   3.857   2.144  16.909 -2.0369  0.0705 -0.3278
17965TIP3    H275387   3.903   2.113  17.050  0.2855 -0.1823 -1.1068
17966TIP3   OH275388   3.050   0.371   6.646  0.3332 -0.4520  0.2303
17966TIP3    H175389   3.060   0.279   6.668 -2.2409 -1.0871 -0.9567
17966TIP3    H275390   3.088   0.418   6.720  0.6669 -2.4461  1.3784
17967TIP3   OH275391   5.412   5.983  13.211 -0.7175 -0.2775  0.3682
17967TIP3    H175392   5.428   5.907  13.157  1.9406 -0.3233  1.0518
17967TIP3    H275393   5.423   5.951  13.301  1.8125  1.0576  0.6342
17968TIP3   OH275394   6.606   0.215   1.963  0.0711 -0.2804 -0.1253
17968TIP3    H175395   6.641   0.148   2.023  1.7420  0.1081 -0.6120
17968TIP3    H275396   6.627   0.182   1.876  0.0468  0.4242 -0.3990
17969TIP3   OH275397   0.752   3.346  17.157  0.4870  0.3108  0.1039
17969TIP3    H175398   0.754   3.438  17.183 -0.3429  0.6249 -0.8677
17969TIP3    H275399   0.764   3.348  17.062 -2.1484 -0.3730 -0.3007
17970TIP3   OH275400   3.190   5.153  10.926 -0.8464 -0.5663 -0.5403
17970TIP3    H175401   3.164   5.200  10.847 -0.4171 -1.5935 -1.3232
17970TIP3    H275402   3.265   5.100  10.899 -0.0021 -0.1332  0.8366
17971TIP3   OH275403   6.768   2.940   1.307  0.1969  0.1970  0.1489
17971TIP3    H175404   6.700   2.939   1.374 -0.0915  0.8778 -0.1221
17971TIP3    H275405   6.726   2.982   1.231  0.5337 -0.4971 -0.4346
17972TIP3   OH275406   4.269   3.942  14.715  0.4677 -0.0315 -0.7655
17972TIP3    H175407   4.297   3.999  14.787  1.7814 -2.1879  0.5708
17972TIP3    H275408   4.269   3.998  14.638 -1.4296  2.5012  0.9190
17973TIP3   OH275409   1.187   0.789  15.117  0.3567  0.5035  0.0302
17973TIP3    H175410   1.255   0.807  15.182  0.1982  1.2552 -0.0005
17973TIP3    H275411   1.179   0.870  15.067 -3.9293  2.3796  3.1190
17974TIP3   OH275412   1.628   6.426  15.629  0.0478  0.0343 -0.2234
17974TIP3    H175413   1.629   6.415  15.534 -0.0067 -1.0077 -0.1166
17974TIP3    H275414   1.651   6.340  15.664 -2.0116 -0.1935  0.7464
17975TIP3   OH275415   5.673   0.158  12.840  0.0895  0.0847 -0.4443
17975TIP3    H175416   5.648   0.247  12.864 -0.7737  0.3396 -2.1948
17975TIP3    H275417   5.735   0.132  12.908 -3.5913  0.0080  3.2962
17976TIP3   OH275418   2.177   4.685  16.306  0.4346 -0.0346 -0.5330
17976TIP3    H175419   2.104   4.745  16.321  1.1246  0.7758 -0.3676
17976TIP3    H275420   2.190   4.686  16.211 -1.1516 -1.8677 -0.8423
17977TIP3   OH275421   6.409   0.860  17.195 -0.0794  0.4552 -0.3949
17977TIP3    H175422   6.359   0.834  17.272 -0.0524  0.5173 -0.3557
17977TIP3    H275423   6.371   0.945  17.169 -0.8124 -0.0623 -1.0833
17978TIP3   OH275424   1.619   4.217  16.417 -0.2312  0.6074 -0.1511
17978TIP3    H175425   1.568   4.274  16.475  0.5265  1.6803 -0.5159
17978TIP3    H275426   1.710   4.242  16.432  0.3911 -2.1870  1.4661
17979TIP3   OH275427   2.001   2.093  12.842 -0.0983 -0.2828 -0.2633
17979TIP3    H175428   1.986   2.003  12.870 -0.3111 -0.6078 -1.3473
17979TIP3    H275429   1.932   2.110  12.777 -0.8022  1.0834  0.7891
17980TIP3   OH275430   4.306   3.793   1.292  0.3107  1.1113  0.2129
17980TIP3    H175431   4.342   3.870   1.249 -2.0994  2.8239  1.0042
17980TIP3    H275432   4.211   3.798   1.276  0.0655 -1.9238  0.0006
17981TIP3   OH275433   6.706   3.343   1.126  0.5365 -0.0535 -0.7036
17981TIP3    H175434   6.681   3.433   1.105 -0.4079 -0.3481 -0.8740
17981TIP3    H275435   6.625   3.293   1.120  0.5430 -0.5104  1.7780
17982TIP3   OH275436   1.320   3.630  15.671 -0.4419  0.1256  0.1835
17982TIP3    H175437   1.406   3.605  15.638 -1.2138 -0.3533 -1.5660
17982TIP3    H275438   1.303   3.570  15.743 -0.1957 -1.1946 -0.8257
17983TIP3   OH275439   2.201   4.902   0.810  0.2817  0.2093 -0.1268
17983TIP3    H175440   2.135   4.849   0.855  1.9817 -0.3400  1.9462
17983TIP3    H275441   2.261   4.837   0.773  0.1993  0.6996 -1.1402
17984TIP3   OH275442   2.947   5.200  16.804  0.7879 -0.2470 -0.4367
17984TIP3    H175443   2.899   5.278  16.832 -0.6404 -0.4006 -2.2518
17984TIP3    H275444   2.902   5.127  16.847  0.1519 -0.2812 -1.1273
17985TIP3   OH275445   2.856   4.898   4.855 -0.1337 -0.0111 -0.0205
17985TIP3    H175446   2.785   4.833   4.858 -0.3401  0.2258  0.2592
17985TIP3    H275447   2.894   4.888   4.768  1.0528 -1.8143  0.6547
17986TIP3   OH275448   0.594   3.111  17.214  0.1228 -0.7545  0.1131
17986TIP3    H175449   0.525   3.176  17.226  1.6726  0.5075  3.0662
17986TIP3    H275450   0.636   3.136  17.131 -2.1749 -0.9190 -1.1933
17987TIP3   OH275451   6.118   5.322  14.614  0.4422  0.4819 -0.2682
17987TIP3    H175452   6.114   5.230  14.643  1.9097  1.1080  2.2495
17987TIP3    H275453   6.029   5.355  14.625  0.3979 -0.0442  1.1185
17988TIP3   OH275454   1.018   2.558  16.069 -0.2098  0.5021  0.2447
17988TIP3    H175455   1.057   2.481  16.110 -1.4005 -1.2881 -1.7508
17988TIP3    H275456   1.021   2.538  15.975 -1.2741  2.5440 -0.2679
17989TIP3   OH275457   0.259   3.341  14.016 -0.4468 -0.3121 -0.3176
17989TIP3    H175458   0.167   3.318  14.004 -0.5565  0.0184 -0.1389
17989TIP3    H275459   0.292   3.358  13.928 -1.4979  3.0907 -0.1958
17990TIP3   OH275460   1.721   3.959   5.818  0.6925 -0.4459  0.0650
17990TIP3    H175461   1.652   3.893   5.813  1.0006 -0.8010  0.4471
17990TIP3    H275462   1.757   3.962   5.729 -0.7305  0.7514 -0.4926
17991TIP3   OH275463   2.664   4.582   5.156 -0.3542  0.0948 -0.1676
17991TIP3    H175464   2.756   4.604   5.171  0.3589 -1.6189 -1.6134
17991TIP3    H275465   2.641   4.632   5.077  0.4117 -1.9327 -1.7716
17992TIP3   OH275466   0.480   4.152  15.614 -0.1316 -0.4041  0.7930
17992TIP3    H175467   0.416   4.199  15.560  0.9757 -0.5237 -0.7032
17992TIP3    H275468   0.513   4.083  15.556  0.7042 -0.8926  1.8200
17993TIP3   OH275469   2.526   0.301   1.449 -0.1202 -0.0507  0.2065
17993TIP3    H175470   2.544   0.372   1.387  3.0426  1.3088  2.3888
17993TIP3    H275471   2.433   0.309   1.468 -0.8805  0.4219 -3.1096
17994TIP3   OH275472   1.734   4.637  16.762 -0.2688  0.0152  0.1931
17994TIP3    H175473   1.751   4.671  16.849  1.6343 -0.4944  0.0432
17994TIP3    H275474   1.734   4.542  16.772  0.3804 -0.0559 -0.4293
17995TIP3   OH275475   3.058   0.596  12.889  0.1683 -0.4599  0.7539
17995TIP3    H175476   2.975   0.640  12.905 -0.2795 -1.5720  1.6821
17995TIP3    H275477   3.109   0.610  12.969  0.0229 -1.5479  1.0646
17996TIP3   OH275478   1.714   6.312  14.299 -0.1483 -0.0601 -0.7630
17996TIP3    H175479   1.759   6.236  14.336 -0.1399 -0.7537 -2.1422
17996TIP3    H275480   1.747   6.320  14.210  1.2008  2.6814 -0.1391
17997TIP3   OH275481   6.095   5.313  12.010 -0.5827 -0.2094  0.5175
17997TIP3    H175482   6.052   5.241  12.055 -1.5291  0.5795  0.9138
17997TIP3    H275483   6.025   5.357  11.963 -0.1399  0.8489  0.8176
17998TIP3   OH275484   1.487   1.904   5.202 -0.0150 -0.4263  0.1336
17998TIP3    H175485   1.549   1.964   5.161 -0.2875 -0.8406 -0.9226
17998TIP3    H275486   1.407   1.954   5.212 -0.5970 -0.9030 -1.7913
17999TIP3   OH275487   0.307   2.413   1.574 -0.4906  0.7017  0.4653
17999TIP3    H175488   0.314   2.448   1.485 -0.0171  1.3329  0.7462
17999TIP3    H275489   0.273   2.486   1.626  0.5453  0.7748  1.0662
18000TIP3   OH275490   2.409   2.612  14.921 -0.2625 -0.1205 -0.2097
18000TIP3    H175491   2.393   2.614  14.827  0.4690 -1.4126 -0.3884
18000TIP3    H275492   2.432   2.521  14.940  1.4324  0.4887  0.9134
18001TIP3   OH275493   2.467   0.623  11.714  0.6694 -0.7073  0.6859
18001TIP3    H175494   2.378   0.597  11.740 -0.0776 -0.6427 -1.5679
18001TIP3    H275495   2.518   0.542  11.723 -0.3626 -1.6077 -0.8813
18002TIP3   OH275496   0.550   2.013  13.146 -0.5789 -0.4192 -0.1323
18002TIP3    H175497   0.507   1.946  13.092  1.1801 -1.2603 -0.5846
18002TIP3    H275498   0.636   2.025  13.104 -0.4241  1.2990  0.6216
18003TIP3   OH275499   2.090   5.053  15.147 -0.1192 -0.5432 -0.1714
18003TIP3    H175500   2.146   5.051  15.225  1.4092 -1.5156 -1.2415
18003TIP3    H275501   2.088   4.962  15.117  0.8923  0.0891 -2.3276
18004TIP3   OH275502   1.467   4.119  16.973  0.2732 -0.5168 -0.4858
18004TIP3    H175503   1.509   4.061  17.038  2.0377 -0.8596 -1.8366
18004TIP3    H275504   1.479   4.207  17.008  0.4876 -0.7520  0.0457
18005TIP3   OH275505   2.755   0.648   3.502 -0.2253  0.0115 -0.1227
18005TIP3    H175506   2.833   0.603   3.469 -0.5340 -0.3754 -0.3520
18005TIP3    H275507   2.786   0.733   3.532  0.3936 -0.3961  0.4094
18006TIP3   OH275508   0.664   6.263  12.883 -0.1236 -0.4672  0.3807
18006TIP3    H175509   0.679   6.288  12.792  1.6297  0.1262  0.7869
18006TIP3    H275510   0.741   6.212  12.907 -0.1352  0.1112  1.7813
18007TIP3   OH275511   3.818   5.299   1.635  0.0490  0.1291  0.0725
18007TIP3    H175512   3.841   5.227   1.578  0.2251 -1.0086  1.5173
18007TIP3    H275513   3.728   5.322   1.610  0.4834  0.3689 -1.3338
18008TIP3   OH275514   2.379   0.989   2.561  0.2533  0.2968  0.3525
18008TIP3    H175515   2.442   0.930   2.603 -1.4187 -1.1263  0.9912
18008TIP3    H275516   2.330   0.933   2.501 -0.1318  1.4674 -0.4597
18009TIP3   OH275517   5.738   6.038   2.609 -0.3864  0.1596  0.3121
18009TIP3    H175518   5.774   6.069   2.526  1.7035  1.4016  1.5673
18009TIP3    H275519   5.815   6.009   2.658 -1.6659 -1.4147  1.4866
18010TIP3   OH275520   2.033   0.541   1.633  0.3970  0.1734  0.0766
18010TIP3    H175521   2.074   0.627   1.642  0.6228  0.0480  0.2569
18010TIP3    H275522   1.967   0.539   1.702 -0.5327  0.7236 -0.7793
18011TIP3   OH275523   4.518   2.408   1.574 -0.4751  0.2655 -0.2663
18011TIP3    H175524   4.475   2.408   1.488 -1.9587  0.6601  0.4255
18011TIP3    H275525   4.445   2.401   1.636  0.4860  0.9588  0.9823
18012TIP3   OH275526   1.025   3.114   2.881 -0.0145  0.2309 -0.2605
18012TIP3    H175527   1.041   3.142   2.791 -0.3554 -0.2001 -0.4589
18012TIP3    H275528   1.109   3.080   2.912  0.0390  0.1470 -0.5011
18013TIP3   OH275529   2.074   4.641  15.606 -0.5828 -0.3174  0.1544
18013TIP3    H175530   2.090   4.608  15.694 -0.8187  0.9490  0.6975
18013TIP3    H275531   2.005   4.585  15.571  0.8168 -2.0512  0.0199
18014TIP3   OH275532   1.565   1.216  10.656  0.1862  0.3161  0.3373
18014TIP3    H175533   1.617   1.238  10.733 -1.0504 -2.2856  2.0585
18014TIP3    H275534   1.475   1.238  10.681 -0.1328  0.2948 -0.7503
18015TIP3   OH275535   3.227   5.848  12.797 -0.8381  0.9549 -0.8395
18015TIP3    H175536   3.166   5.857  12.724 -0.4757  0.3462 -1.2159
18015TIP3    H275537   3.309   5.821  12.757 -0.2294  2.0320 -0.3637
18016TIP3   OH275538   4.412   0.183   5.309 -0.0149 -0.3711  0.2024
18016TIP3    H175539   4.494   0.229   5.289 -0.7058  0.4218 -0.9400
18016TIP3    H275540   4.344   0.238   5.270 -0.8179 -2.8054 -2.1846
18017TIP3   OH275541   0.767   3.528  12.685  0.4453 -0.6546  0.4719
18017TIP3    H175542   0.798   3.614  12.659 -2.1243  0.5732  1.0755
18017TIP3    H275543   0.780   3.525  12.780 -1.7984  0.2066  0.8610
18018TIP3   OH275544   1.923   5.268   2.963 -0.2221  0.0478 -0.1376
18018TIP3    H175545   1.915   5.189   2.909  1.5201 -0.1255 -0.1979
18018TIP3    H275546   1.833   5.291   2.985 -0.8420 -1.1692 -1.2528
18019TIP3   OH275547   6.665   2.026  14.731 -0.0526 -0.0284  0.2545
18019TIP3    H175548   6.726   2.023  14.658 -0.7505  0.3874 -0.3588
18019TIP3    H275549   6.659   1.936  14.762  0.0801 -0.2452 -0.3479
18020TIP3   OH275550   1.573   3.438  11.035  0.2200  0.3333 -0.5930
18020TIP3    H175551   1.486   3.407  11.012 -0.1850  0.5140  0.6098
18020TIP3    H275552   1.611   3.366  11.085 -0.8805  1.7732  2.5871
18021TIP3   OH275553   0.115   2.820  11.387 -0.0209 -0.4477 -0.1515
18021TIP3    H175554   0.144   2.832  11.296  1.5031 -0.6760  0.2832
18021TIP3    H275555   0.158   2.740  11.415 -0.4681 -0.3663  0.7938
18022TIP3   OH275556   5.976   2.141   6.120 -0.2989  0.8598  0.1301
18022TIP3    H175557   6.009   2.139   6.210 -0.0516  0.8278  0.0394
18022TIP3    H275558   5.958   2.049   6.099  1.6345  0.6029 -0.5775
18023TIP3   OH275559   5.964   6.694   0.927 -0.1726 -0.6629  0.4946
18023TIP3    H175560   5.984   6.728   0.839  1.0791  0.8439  1.3044
18023TIP3    H275561   5.876   6.727   0.945  1.3061  3.3365  1.6203
18024TIP3   OH275562   3.720   2.895  12.765 -0.0534  0.0800  0.2192
18024TIP3    H175563   3.751   2.922  12.851 -1.2370  0.1174  0.6621
18024TIP3    H275564   3.654   2.828  12.784  1.6649 -2.0060 -0.7766
18025TIP3   OH275565   6.473   0.870   3.402 -0.1011  0.1673 -0.1100
18025TIP3    H175566   6.395   0.864   3.347  0.1296  1.8331 -0.6797
18025TIP3    H275567   6.511   0.954   3.379  2.3367 -0.9514 -0.4350
18026TIP3   OH275568   5.657   1.064  16.059  0.6191  0.1947 -0.1572
18026TIP3    H175569   5.605   1.120  16.003  0.9610 -0.5280 -1.2183
18026TIP3    H275570   5.729   1.120  16.090  1.9087 -0.0494 -2.5332
18027TIP3   OH275571   5.770   4.401  11.430 -0.3909 -0.1497  0.1850
18027TIP3    H175572   5.845   4.458  11.415 -0.2107 -0.3294  0.3940
18027TIP3    H275573   5.806   4.313  11.433 -0.5319 -0.1972  0.7953
18028TIP3   OH275574   4.583   1.911  17.179 -0.0395 -0.0188 -0.0095
18028TIP3    H175575   4.555   1.935  17.090 -1.1371 -1.1654 -0.0136
18028TIP3    H275576   4.504   1.922  17.232  0.4717  0.1521  0.7245
18029TIP3   OH275577   4.492   0.376  15.917  0.3506 -0.1608  0.5883
18029TIP3    H175578   4.531   0.443  15.972 -0.0846 -0.6430  1.5055
18029TIP3    H275579   4.473   0.304  15.976  0.6052 -1.0129 -0.3410
18030TIP3   OH275580   5.998   6.169  14.924  0.6466  0.2725 -0.2207
18030TIP3    H175581   5.949   6.090  14.901  0.1092  0.0225  1.6099
18030TIP3    H275582   5.932   6.239  14.924  0.5477  0.1916  0.8880
18031TIP3   OH275583   2.348   5.584  14.949  0.5072  0.4351 -0.4309
18031TIP3    H175584   2.295   5.580  15.028  1.0407 -0.6787 -0.1107
18031TIP3    H275585   2.407   5.658  14.963  1.9890 -0.9794  1.1272
18032TIP3   OH275586   4.717   3.268  16.551  0.2992 -0.3140 -0.3702
18032TIP3    H175587   4.774   3.251  16.626  2.5834 -0.9061 -2.1211
18032TIP3    H275588   4.752   3.348  16.512 -1.9064  0.9386  0.0600
18033TIP3   OH275589   3.370   3.793   3.612 -0.0210 -0.3298  0.0932
18033TIP3    H175590   3.363   3.887   3.594  0.1640 -0.1428  0.9548
18033TIP3    H275591   3.390   3.788   3.705  1.2802 -1.1806 -0.2016
18034TIP3   OH275592   2.301   5.515   4.922  0.6406  0.3200  0.3533
18034TIP3    H175593   2.238   5.467   4.870 -0.1198  0.4852  1.1026
18034TIP3    H275594   2.315   5.597   4.874 -0.5657  0.7637  0.7195
18035TIP3   OH275595   2.636   1.722  16.190  0.1976  0.1108 -0.3434
18035TIP3    H175596   2.698   1.651  16.206  1.5071  1.2253 -0.2799
18035TIP3    H275597   2.684   1.801  16.214 -0.7860  1.1214 -1.5930
18036TIP3   OH275598   2.375   3.787  13.226 -0.2542 -0.7879  0.6241
18036TIP3    H175599   2.466   3.760  13.236  0.6340  0.3830 -3.0190
18036TIP3    H275600   2.340   3.732  13.156 -1.6509  0.3132  0.4061
18037TIP3   OH275601   2.267   2.739  12.188 -0.1489 -0.8307 -0.0238
18037TIP3    H175602   2.247   2.647  12.173 -2.5961 -0.5114  0.7818
18037TIP3    H275603   2.300   2.771  12.104 -0.6763 -2.1135 -0.7375
18038TIP3   OH275604   1.634   5.435   3.833  0.0824  0.2770  0.2304
18038TIP3    H175605   1.539   5.439   3.843 -0.1041 -0.0045 -1.1238
18038TIP3    H275606   1.664   5.524   3.850 -0.5951  0.6991 -0.7068
18039TIP3   OH275607   5.104   5.602   4.209  0.5711  0.2470 -0.3147
18039TIP3    H175608   5.089   5.560   4.294 -0.8591  2.2913  0.5462
18039TIP3    H275609   5.075   5.538   4.145 -0.6247 -0.4668  0.8753
18040TIP3   OH275610   1.863   2.196  15.322  0.8603  0.4086  0.2429
18040TIP3    H175611   1.865   2.108  15.285 -0.1965  1.4583 -2.5201
18040TIP3    H275612   1.950   2.206  15.363  0.5152 -2.3303  1.9166
18041TIP3   OH275613   2.071   3.904  17.377  0.8753  0.9985 -0.1199
18041TIP3    H175614   2.115   3.929  17.458  2.7603 -3.4569  0.5511
18041TIP3    H275615   2.143   3.888  17.315 -0.3887  1.7283 -1.8561
18042TIP3   OH275616   1.309   0.849   1.600  0.2807  0.5596  0.4130
18042TIP3    H175617   1.322   0.782   1.532 -2.2537  1.5450 -1.1920
18042TIP3    H275618   1.218   0.875   1.590  0.1659  1.6383  3.4670
18043TIP3   OH275619   0.417   5.912   2.001 -0.2483  0.3594  0.0770
18043TIP3    H175620   0.429   5.828   1.959  0.0242  1.3185 -1.8630
18043TIP3    H275621   0.367   5.892   2.080 -0.0734 -1.6154 -0.2590
18044TIP3   OH275622   6.487   5.826   6.130  0.1238 -0.0920  0.3186
18044TIP3    H175623   6.540   5.905   6.145  0.0321 -0.1566  0.9789
18044TIP3    H275624   6.439   5.813   6.211  0.4729 -1.0912  0.3803
18045TIP3   OH275625   0.075   6.472   1.370  0.0445  0.4937 -0.5684
18045TIP3    H175626   0.035   6.496   1.287  0.5813 -0.0615 -1.0006
18045TIP3    H275627   0.016   6.506   1.437  0.4137  2.3479 -1.1492
18046TIP3   OH275628   1.634   3.239  15.356 -0.3352 -0.2288  0.8898
18046TIP3    H175629   1.596   3.276  15.276  0.5500 -1.8728 -0.3645
18046TIP3    H275630   1.565   3.181  15.390  0.4548 -2.1731 -0.6410
18047TIP3   OH275631   2.138   5.867  16.527  0.2240  0.4962  0.1739
18047TIP3    H175632   2.095   5.913  16.599 -0.5994 -0.0257  0.0179
18047TIP3    H275633   2.072   5.862  16.458  0.4830 -0.4102 -0.0222
18048TIP3   OH275634   5.404   4.780  13.022 -0.4791 -0.1302  0.0776
18048TIP3    H175635   5.350   4.701  13.012  0.0917 -0.6530  0.9604
18048TIP3    H275636   5.419   4.787  13.116  1.1966 -0.1605 -0.1531
18049TIP3   OH275637   1.358   4.536  17.080  0.1277 -0.3715  0.4043
18049TIP3    H175638   1.265   4.515  17.070 -0.1766  0.9165  0.3240
18049TIP3    H275639   1.358   4.622  17.122  1.2821 -0.0442 -0.2420
18050TIP3   OH275640   1.676   3.674   4.103 -0.0690  0.0017  0.4119
18050TIP3    H175641   1.746   3.613   4.080  0.1301  0.3809 -0.0124
18050TIP3    H275642   1.722   3.751   4.138 -0.3657 -0.6161  2.2952
18051TIP3   OH275643   5.192   4.793  13.652 -0.0124 -0.7245  0.8327
18051TIP3    H175644   5.220   4.828  13.567 -1.4011 -2.3866 -0.3954
18051TIP3    H275645   5.099   4.772  13.640 -0.7828  0.7583  3.4127
18052TIP3   OH275646   4.770   0.914   0.290 -0.1472  0.1917 -0.4270
18052TIP3    H175647   4.716   0.842   0.323 -0.3231 -0.0766 -1.2708
18052TIP3    H275648   4.774   0.976   0.362 -1.5987  0.2282 -0.3390
18053TIP3   OH275649   5.622   4.157  13.303 -0.1862 -0.1725  0.4368
18053TIP3    H175650   5.638   4.140  13.395 -0.3342 -0.2100  0.4559
18053TIP3    H275651   5.605   4.071  13.265 -1.9537  0.0231  0.7245
18054TIP3   OH275652   2.656   4.852  14.563 -0.2056 -0.3232  0.4040
18054TIP3    H175653   2.720   4.893  14.622 -2.4845 -1.0363  3.6799
18054TIP3    H275654   2.675   4.758  14.570  0.3954 -0.3419 -1.2194
18055TIP3   OH275655   0.044   0.658   4.238  0.1441  0.2497 -0.2603
18055TIP3    H175656   0.128   0.626   4.269  0.1481  0.2638 -0.2565
18055TIP3    H275657  -0.021   0.615   4.294  0.0824 -0.6219 -0.9818
18056TIP3   OH275658   3.657   5.080   3.927 -0.0413  0.0546 -0.0699
18056TIP3    H175659   3.621   5.094   3.839  1.1996  0.9957 -0.4566
18056TIP3    H275660   3.604   5.009   3.963 -1.9523  1.0632 -0.7688
18057TIP3   OH275661   2.424   4.711   0.803  0.3606  0.6386  0.2739
18057TIP3    H175662   2.519   4.709   0.808  0.5557 -0.1835 -2.3928
18057TIP3    H275663   2.396   4.628   0.840  0.6652  0.8580  1.0078
18058TIP3   OH275664   6.191   3.478  11.630 -0.4205  0.0017 -0.7773
18058TIP3    H175665   6.223   3.392  11.659 -1.1666 -0.1954 -0.5038
18058TIP3    H275666   6.156   3.463  11.543 -0.2398  0.1065 -0.8696
18059TIP3   OH275667   2.945   3.562  16.201 -0.2564  0.6837  0.3183
18059TIP3    H175668   2.889   3.639  16.212  1.0755  1.6885  0.3993
18059TIP3    H275669   2.924   3.506  16.275 -1.2014  1.0081  0.3027
18060TIP3   OH275670   5.522   4.924  12.384  0.2317  0.0967  0.7962
18060TIP3    H175671   5.457   4.989  12.356  0.4513  0.5478  1.3244
18060TIP3    H275672   5.476   4.840  12.377 -0.3100  0.3828  0.8692
18061TIP3   OH275673   5.332   2.517  15.229  0.0939 -0.3782  0.0901
18061TIP3    H175674   5.345   2.437  15.280  2.9937 -0.6976 -0.9727
18061TIP3    H275675   5.365   2.496  15.142  0.5263  1.8173 -0.3389
18062TIP3   OH275676   4.041   3.255   1.707 -0.6763  0.0859  0.2172
18062TIP3    H175677   4.129   3.280   1.736 -0.4903  0.2625 -0.4826
18062TIP3    H275678   3.994   3.338   1.698  0.0400  0.2968 -2.4302
18063TIP3   OH275679   1.531   4.809  16.696  0.0996  0.0034  0.7576
18063TIP3    H175680   1.609   4.755  16.710  0.1750 -0.1339 -0.1240
18063TIP3    H275681   1.457   4.752  16.720  0.2282 -0.1338  0.8291
18064TIP3   OH275682   1.899   5.564  15.197  0.0140  0.4114  0.4087
18064TIP3    H175683   1.884   5.566  15.103  1.5016  0.5647  0.1465
18064TIP3    H275684   1.922   5.473  15.216 -1.4899  0.0949  0.8614
18065TIP3   OH275685   3.224   5.361   5.021 -0.1960 -1.0690  0.5465
18065TIP3    H175686   3.309   5.379   4.981 -0.4741 -2.3072 -0.6904
18065TIP3    H275687   3.222   5.266   5.031 -2.2957 -1.3600 -1.6468
18066TIP3   OH275688   4.488   1.020   4.608 -0.2877 -0.2295 -0.6809
18066TIP3    H175689   4.523   1.067   4.683  0.2657  1.4786 -1.9478
18066TIP3    H275690   4.565   0.987   4.562 -0.6392 -1.7071 -0.2874
18067TIP3   OH275691   3.755   5.068   4.270 -0.4862 -0.3730  0.4817
18067TIP3    H175692   3.664   5.040   4.283 -0.4672 -0.3520  0.6657
18067TIP3    H275693   3.790   5.008   4.205  0.1953 -2.1364  2.3913
18068TIP3   OH275694   6.311   0.308   2.717 -0.6428  0.0404  0.3621
18068TIP3    H175695   6.299   0.403   2.710  0.4866  0.2717  1.3650
18068TIP3    H275696   6.405   0.294   2.711 -0.5592 -0.7699  2.5544
18069TIP3   OH275697   5.319   5.316  15.298  1.0653  0.9020  0.6792
18069TIP3    H175698   5.325   5.226  15.332 -0.9058  0.6102  0.4049
18069TIP3    H275699   5.379   5.318  15.224  0.6987 -0.4014  0.3190
18070TIP3   OH275700   3.483   2.756  16.475  0.1475  0.0259 -0.5353
18070TIP3    H175701   3.413   2.701  16.510  0.1950  0.9664  1.1170
18070TIP3    H275702   3.441   2.807  16.406  0.2974 -2.6089 -2.7361
18071TIP3   OH275703   4.016   6.186   0.188 -0.2789 -0.0383  0.7835
18071TIP3    H175704   3.986   6.148   0.271 -0.2296 -0.6526  0.5280
18071TIP3    H275705   4.009   6.114   0.125  0.5737  0.1534  0.4542
18072TIP3   OH275706   2.643   3.994  14.720 -0.8283 -0.1076 -0.4438
18072TIP3    H175707   2.570   4.012  14.660 -1.0008  1.0556  0.0960
18072TIP3    H275708   2.709   4.059  14.697 -1.8134  1.9958  2.1377
18073TIP3   OH275709   0.331   2.074  13.461 -0.0921 -0.4073  0.1033
18073TIP3    H175710   0.419   2.045  13.486  0.6506  2.7474  1.6195
18073TIP3    H275711   0.345   2.135  13.389 -0.9744  0.3006  0.5046
18074TIP3   OH275712   3.643   4.910   0.279  0.4913 -0.6541 -0.3296
18074TIP3    H175713   3.730   4.874   0.263  0.4862  0.1316 -2.4425
18074TIP3    H275714   3.612   4.937   0.193 -1.6659 -0.4685  0.4475
18075TIP3   OH275715   6.003   0.698  15.567  0.5139  0.6485 -0.0443
18075TIP3    H175716   5.924   0.650  15.593 -0.2847  1.0880 -1.5416
18075TIP3    H275717   5.979   0.790  15.577  0.9021  0.7823 -0.3339
18076TIP3   OH275718   5.217   2.430  15.557  0.2990  0.2534 -0.2383
18076TIP3    H175719   5.269   2.359  15.521 -0.2145 -0.1536 -0.1890
18076TIP3    H275720   5.238   2.431  15.651  2.0563  1.6680 -0.5838
18077TIP3   OH275721   1.630   2.015  10.499  0.2146  0.6093 -0.2700
18077TIP3    H175722   1.664   1.933  10.535  1.2425  0.3458 -1.7366
18077TIP3    H275723   1.676   2.083  10.547 -0.4728  0.3476  0.7967
18078TIP3   OH275724   0.852   2.348  12.292 -0.0552 -0.4072 -0.7356
18078TIP3    H175725   0.840   2.253  12.292 -1.3736 -0.3947  2.7734
18078TIP3    H275726   0.772   2.383  12.254 -0.7481 -0.7160  0.3872
18079TIP3   OH275727   4.692   0.355   1.383  0.6052  0.1002 -0.2003
18079TIP3    H175728   4.720   0.278   1.432  0.4510 -0.7718 -1.4509
18079TIP3    H275729   4.617   0.388   1.432  1.0080 -0.2214  0.6477
18080TIP3   OH275730   6.534   5.214  13.625 -1.0554 -0.1036 -0.2055
18080TIP3    H175731   6.477   5.182  13.696  0.2803 -0.9110  0.5601
18080TIP3    H275732   6.518   5.308  13.621  0.7147  0.4985  3.0531
18081TIP3   OH275733   5.197   2.342  15.838 -0.3926 -0.5999  0.3282
18081TIP3    H175734   5.204   2.420  15.894  0.3727 -0.8448  0.5842
18081TIP3    H275735   5.113   2.302  15.864 -0.4559 -0.2414  0.6911
18082TIP3   OH275736   2.058   6.105  15.548 -0.3497 -0.2919  0.0339
18082TIP3    H175737   1.980   6.075  15.500 -1.1597  1.3901  0.2132
18082TIP3    H275738   2.105   6.025  15.569 -1.5882 -1.3023 -0.8482
18083TIP3   OH275739   1.400   1.433   4.279  0.4815  0.2011  0.0791
18083TIP3    H175740   1.445   1.517   4.279 -1.2661  1.2114  1.4653
18083TIP3    H275741   1.464   1.370   4.311  1.9662  0.8701 -1.4467
18084TIP3   OH275742   4.065   0.011   5.334 -0.0306  0.4722  0.1553
18084TIP3    H175743   4.153   0.049   5.337  0.1293  0.0535  0.8390
18084TIP3    H275744   4.078  -0.077   5.301 -0.5000  1.2366 -2.2897
18085TIP3   OH275745   5.048   3.956   5.593 -0.4398  0.2076  0.4435
18085TIP3    H175746   5.143   3.965   5.598 -0.3438  0.2481 -1.0862
18085TIP3    H275747   5.018   4.033   5.544 -1.0302 -0.7624 -0.7906
18086TIP3   OH275748   4.964   2.298   4.879 -0.1577 -0.3293  0.2377
18086TIP3    H175749   5.018   2.293   4.958 -1.4793  0.8165  1.2706
18086TIP3    H275750   4.974   2.213   4.837  1.4664 -0.5641  1.0312
18087TIP3   OH275751   1.370   6.485  14.450 -0.2971 -0.0792 -0.0726
18087TIP3    H175752   1.356   6.406  14.397 -0.4608  0.4232 -0.7931
18087TIP3    H275753   1.448   6.466  14.501  2.6535  1.0442 -3.7046
18088TIP3   OH275754   5.146   5.921   5.747  0.3092  0.2537  0.5228
18088TIP3    H175755   5.170   6.001   5.794  1.8402  0.5238 -0.6145
18088TIP3    H275756   5.157   5.943   5.655 -0.5914 -0.8704  0.1210
18089TIP3   OH275757   0.037   6.080   0.292 -0.5185 -0.3228  0.1858
18089TIP3    H175758   0.022   6.047   0.204 -1.2958  0.3218  0.0699
18089TIP3    H275759   0.082   6.008   0.337  0.5737 -0.3655 -0.9368
18090TIP3   OH275760   3.277   1.741   0.567 -0.0437  0.3788  0.0215
18090TIP3    H175761   3.252   1.817   0.620 -1.0516  1.4918 -1.9416
18090TIP3    H275762   3.266   1.770   0.477  1.9438 -1.3422 -0.8445
18091TIP3   OH275763   4.935   2.207   0.709  0.0173  0.5204  0.0513
18091TIP3    H175764   4.858   2.255   0.738 -0.3105  0.0123  0.0389
18091TIP3    H275765   4.910   2.171   0.624 -0.3102 -0.9585  0.7384
18092TIP3   OH275766   3.037   2.668   1.716 -0.0805  0.3275  0.2832
18092TIP3    H175767   3.128   2.695   1.701  0.4895 -1.5146  0.1553
18092TIP3    H275768   3.044   2.588   1.768 -1.4438 -1.4950 -2.1210
18093TIP3   OH275769   4.412   4.806   6.542 -0.2809 -0.1690 -0.3347
18093TIP3    H175770   4.456   4.888   6.562 -0.8002 -0.4211  2.1946
18093TIP3    H275771   4.460   4.740   6.594 -1.0158 -1.1431 -0.8618
18094TIP3   OH275772   3.306   0.773   1.391 -0.2745  0.2930 -0.0292
18094TIP3    H175773   3.393   0.810   1.377  0.2895 -1.5365 -1.8409
18094TIP3    H275774   3.252   0.848   1.417  1.7392  1.5177  0.8655
18095TIP3   OH275775   2.511   3.785  16.513  0.2185  0.3559  1.0149
18095TIP3    H175776   2.511   3.873  16.475 -2.2752 -0.2656 -0.7186
18095TIP3    H275777   2.427   3.747  16.486 -0.4667 -1.2839  4.7723
18096TIP3   OH275778   0.132   2.337   2.855 -0.1358  0.2255 -0.4358
18096TIP3    H175779   0.140   2.395   2.930  1.0982 -1.4091  0.7789
18096TIP3    H275780   0.058   2.371   2.805 -0.1104  2.1676  0.7695
18097TIP3   OH275781   6.214   0.713   0.798 -0.5621 -0.4248  0.0805
18097TIP3    H175782   6.275   0.649   0.835  0.7166  1.7444  1.9421
18097TIP3    H275783   6.248   0.731   0.711  1.1368  0.2517  0.8420
18098TIP3   OH275784   2.455   4.126   3.388 -0.3570 -0.2991  0.0614
18098TIP3    H175785   2.435   4.049   3.442  1.7481 -0.8438  0.1619
18098TIP3    H275786   2.505   4.091   3.314 -0.3583  0.8439 -0.5058
18099TIP3   OH275787   5.873   2.592   1.776  0.3084 -0.1073  0.1690
18099TIP3    H175788   5.821   2.530   1.725  0.9282 -1.2712  0.8952
18099TIP3    H275789   5.963   2.577   1.748  0.3753  1.1598 -0.3316
18100TIP3   OH275790   5.824   4.130  14.736 -0.1737 -0.0281  0.4451
18100TIP3    H175791   5.912   4.112  14.770  0.9319  2.6848 -0.7712
18100TIP3    H275792   5.793   4.205  14.787 -1.5457 -0.4791  0.3447
18101TIP3   OH275793   2.261   1.771  10.735 -0.4730 -0.3646 -0.2340
18101TIP3    H175794   2.259   1.695  10.794 -1.4289 -0.7242 -0.7024
18101TIP3    H275795   2.343   1.815  10.756 -0.4235 -0.9081  0.8264
18102TIP3   OH275796   1.259   2.950   0.856 -0.1549  0.0877 -0.5301
18102TIP3    H175797   1.179   3.003   0.863 -0.5463 -0.5937  0.3767
18102TIP3    H275798   1.308   2.970   0.935  0.7168  0.6928 -1.2018
18103TIP3   OH275799   0.135   4.265   0.854  0.0059  0.1442  0.4243
18103TIP3    H175800   0.053   4.315   0.854  0.1594  0.4349 -1.3032
18103TIP3    H275801   0.204   4.332   0.859  0.1684 -0.0142  0.3116
18104TIP3   OH275802   4.609   4.757  11.488 -0.4504  0.5331 -0.9837
18104TIP3    H175803   4.681   4.698  11.506  0.5846  1.5493 -1.6679
18104TIP3    H275804   4.613   4.772  11.393 -2.2468 -0.2365 -1.2318
18105TIP3   OH275805   4.989   6.457   0.212 -0.3528  0.8464 -0.3467
18105TIP3    H175806   4.921   6.461   0.146 -0.4242 -2.3967 -0.6345
18105TIP3    H275807   5.071   6.457   0.163 -0.3125  0.5643 -0.2796
18106TIP3   OH275808   1.403   3.080  13.683 -0.0168  0.1230  0.0588
18106TIP3    H175809   1.447   3.165  13.675  0.5618 -0.0920  0.8210
18106TIP3    H275810   1.326   3.087  13.626 -0.8629  1.7222  1.3141
18107TIP3   OH275811   0.802   5.709  14.244  0.5128  0.5098 -0.2572
18107TIP3    H175812   0.766   5.636  14.194 -0.5255 -0.8123  2.2652
18107TIP3    H275813   0.859   5.754  14.182 -0.2227 -1.3541 -2.4277
18108TIP3   OH275814   1.737   2.912  15.331 -0.0872 -0.0111  0.2203
18108TIP3    H175815   1.770   2.966  15.403 -0.2685  0.1416  0.1900
18108TIP3    H275816   1.758   2.822  15.357  0.5309  0.0961  0.1084
18109TIP3   OH275817   5.638   5.816   2.130  0.3526 -0.1074 -0.4753
18109TIP3    H175818   5.689   5.789   2.206 -0.5944  2.0713  1.0191
18109TIP3    H275819   5.702   5.855   2.071  1.1122 -1.9243 -0.9239
18110TIP3   OH275820   6.514   5.984   1.014 -0.3714  0.4709  0.1506
18110TIP3    H175821   6.609   5.971   1.021 -0.5781 -1.5778 -0.1830
18110TIP3    H275822   6.503   6.038   0.936  0.5299  0.8214  0.2616
18111TIP3   OH275823   6.212   2.374  11.818 -0.0407 -0.6624  0.2756
18111TIP3    H175824   6.197   2.302  11.756 -0.2359 -0.4580  0.0844
18111TIP3    H275825   6.304   2.398  11.806  0.1834 -1.2580  0.7447
18112TIP3   OH275826   2.792   4.216  15.629  0.1775  0.2727  0.0522
18112TIP3    H175827   2.748   4.169  15.559 -0.9751 -0.9219  1.5000
18112TIP3    H275828   2.791   4.307  15.601 -1.3158 -0.0115 -0.9614
18113TIP3   OH275829   6.377   2.838  14.209  0.1606  0.1090  0.1994
18113TIP3    H175830   6.377   2.744  14.189 -0.0460 -0.3086  2.0106
18113TIP3    H275831   6.289   2.855  14.243  0.5287  0.7466  0.8469
18114TIP3   OH275832   3.020   4.519   5.565  0.1268 -0.4369  0.0864
18114TIP3    H175833   2.983   4.603   5.592 -1.4976 -0.4676 -1.8329
18114TIP3    H275834   3.106   4.541   5.528 -0.4309  0.4487 -0.7140
18115TIP3   OH275835   2.682   6.495  12.258 -0.5859 -0.4079  0.1432
18115TIP3    H175836   2.645   6.463  12.340 -2.6232  1.0961 -0.1085
18115TIP3    H275837   2.670   6.423  12.196  3.8976 -2.9008  1.6872
18116TIP3   OH275838   3.261   1.560  15.707 -0.2755 -0.2447 -0.0260
18116TIP3    H175839   3.251   1.473  15.668 -1.6718  0.4351 -1.3040
18116TIP3    H275840   3.282   1.617  15.633 -0.8414  0.7363  0.5500
18117TIP3   OH275841   1.157   1.407  12.110 -0.8244  0.6554  0.1811
18117TIP3    H175842   1.211   1.469  12.160  1.4041 -1.1270  0.1379
18117TIP3    H275843   1.140   1.336  12.172 -0.9415 -0.0071 -0.6020
18118TIP3   OH275844   1.369   0.186   0.008 -0.4888  0.1000  0.1773
18118TIP3    H175845   1.363   0.176  -0.087  1.6806  0.4897 -0.0388
18118TIP3    H275846   1.284   0.222   0.033 -2.2141 -2.6121 -1.1958
18119TIP3   OH275847   5.553   0.822  15.981  0.4349  0.0057 -0.1401
18119TIP3    H175848   5.506   0.798  16.060  1.5758  1.4424  1.0370
18119TIP3    H275849   5.557   0.918  15.983  1.1799  0.0382 -1.5235
18120TIP3   OH275850   4.541   5.813   1.139  0.2579  0.9185  0.4986
18120TIP3    H175851   4.538   5.894   1.088  0.1334  0.8789  0.4425
18120TIP3    H275852   4.460   5.767   1.116  0.8828  0.2131 -0.3952
18121TIP3   OH275853   5.845   2.056   2.515  0.1340 -0.2680 -0.2892
18121TIP3    H175854   5.815   1.975   2.556  2.4717 -0.1095  2.0735
18121TIP3    H275855   5.831   2.123   2.582 -0.4333  1.0274 -1.6555
18122TIP3   OH275856   2.060   1.423  13.418 -0.4739  0.1519 -0.6864
18122TIP3    H175857   2.059   1.328  13.425 -2.7132  0.2229  1.5261
18122TIP3    H275858   2.138   1.450  13.465  0.7773 -0.5768 -2.2664
18123TIP3   OH275859   1.498   6.322   2.963  0.3410  0.1250  0.1257
18123TIP3    H175860   1.585   6.343   2.998  1.3192  1.0729 -2.6005
18123TIP3    H275861   1.456   6.406   2.950 -1.2389 -0.3441  1.8180
18124TIP3   OH275862   3.671   5.435  13.758 -0.0388 -0.0406 -0.7793
18124TIP3    H175863   3.736   5.420  13.826  1.0697  1.0628 -1.5540
18124TIP3    H275864   3.613   5.359  13.762  1.8136 -1.4892 -0.6668
18125TIP3   OH275865   5.856   4.938   5.025  0.3487 -0.0497  0.1415
18125TIP3    H175866   5.814   4.862   4.984 -0.5960  0.2159  0.5923
18125TIP3    H275867   5.912   4.901   5.093 -0.1989 -0.3374  0.4371
18126TIP3   OH275868   3.590   1.119   5.618 -0.0126  0.2549 -0.2315
18126TIP3    H175869   3.631   1.102   5.703 -1.4207  1.1118  0.6619
18126TIP3    H275870   3.522   1.184   5.637 -0.0369  0.8354 -2.1082
18127TIP3   OH275871   2.849   5.013   5.836  0.1126 -0.0603 -0.4849
18127TIP3    H175872   2.780   5.044   5.777 -1.2296  0.2334  1.1765
18127TIP3    H275873   2.925   5.001   5.779 -1.6189 -1.7019 -2.6428
18128TIP3   OH275874   0.266   1.917  15.310  0.0529 -0.0957  0.4856
18128TIP3    H175875   0.202   1.850  15.336  1.5333 -0.9924  2.0389
18128TIP3    H275876   0.335   1.868  15.264 -0.2054  0.8211 -0.9600
18129TIP3   OH275877   2.741   5.423  11.909  0.1728 -0.4543 -0.0255
18129TIP3    H175878   2.769   5.487  11.975 -2.0909 -0.6520  1.2212
18129TIP3    H275879   2.739   5.473  11.827  1.4602  0.2273  0.3352
18130TIP3   OH275880   1.782   0.259  15.599  0.2870  0.1130  0.9196
18130TIP3    H175881   1.865   0.218  15.578  0.3659  0.2317  0.9981
18130TIP3    H275882   1.723   0.186  15.619  0.2665  0.0108  0.4843
18131TIP3   OH275883   6.097   5.096  11.497  0.3517  0.0663 -0.0133
18131TIP3    H175884   6.036   5.150  11.547 -0.4954  0.6542 -1.6291
18131TIP3    H275885   6.043   5.026  11.461  0.2612  1.4288 -2.7069
18132TIP3   OH275886   3.955   3.586   2.132  0.3309  0.4461  0.4268
18132TIP3    H175887   3.975   3.670   2.173 -0.2381 -0.2586  2.2476
18132TIP3    H275888   3.882   3.551   2.183  0.0324 -0.8148 -0.7931
18133TIP3   OH275889   1.282   1.701   6.116 -0.3008  0.5574 -0.1722
18133TIP3    H175890   1.316   1.663   6.035 -1.9966 -1.1206 -0.1861
18133TIP3    H275891   1.219   1.767   6.086  0.6634  1.4987 -0.1719
18134TIP3   OH275892   5.272   0.020   4.229  0.0091 -0.5142 -0.6625
18134TIP3    H175893   5.255  -0.046   4.162  1.7618  0.0391 -1.6967
18134TIP3    H275894   5.233   0.100   4.194 -0.5395 -0.5876 -0.2332
18135TIP3   OH275895   6.217   6.528   0.689 -0.0386  0.5181  0.1951
18135TIP3    H175896   6.253   6.515   0.776  1.4500 -0.2367 -0.4914
18135TIP3    H275897   6.226   6.622   0.673  3.7690  0.1710 -0.7368
18136TIP3   OH275898   6.413   4.644   0.300 -0.0025  0.5650 -0.3898
18136TIP3    H175899   6.385   4.556   0.277 -0.4480  0.6300 -0.1019
18136TIP3    H275900   6.507   4.644   0.284  0.3104 -0.4954  1.2717
18137TIP3   OH275901   6.560   1.202   2.265 -0.2459  0.0106  0.0596
18137TIP3    H175902   6.611   1.281   2.248 -0.6995  0.0471 -1.2760
18137TIP3    H275903   6.560   1.193   2.360 -0.2331  1.6514  0.2350
18138TIP3   OH275904   5.154   3.875  14.519  0.2152  0.6594  0.3322
18138TIP3    H175905   5.230   3.931  14.537 -0.5825  2.2745 -0.9981
18138TIP3    H275906   5.191   3.799  14.473  1.2092  0.5880  1.2179
18139TIP3   OH275907   0.767   2.096   4.183 -0.2312  0.5099  0.8211
18139TIP3    H175908   0.730   2.182   4.202  1.7899  1.4322  0.8415
18139TIP3    H275909   0.747   2.043   4.261 -1.8494  0.7920  0.6323
18140TIP3   OH275910   0.926   6.375  15.596 -0.0590  0.4576 -0.3116
18140TIP3    H175911   0.868   6.359  15.671  3.2512  1.0104  2.6463
18140TIP3    H275912   0.941   6.288  15.559 -0.1751 -0.1486  1.0048
18141TIP3   OH275913   1.867   1.616   3.250 -0.5707  0.3414 -0.1169
18141TIP3    H175914   1.923   1.678   3.203  0.8188 -0.8175 -0.0620
18141TIP3    H275915   1.904   1.530   3.229 -3.1258 -0.6136 -1.1471
18142TIP3   OH275916   4.454   0.357  17.315 -0.3175  0.0370 -0.2457
18142TIP3    H175917   4.360   0.342  17.322 -0.4275 -0.2205 -1.8182
18142TIP3    H275918   4.488   0.278  17.273  0.2457  0.9951 -1.6781
18143TIP3   OH275919   2.205   6.704  15.627 -0.0965  0.7290  0.1959
18143TIP3    H175920   2.238   6.729  15.714 -0.2931  1.1058  0.1662
18143TIP3    H275921   2.114   6.678  15.643 -0.1310  0.7924  0.1034
18144TIP3   OH275922   1.934   4.273  16.978  0.1280  0.1901 -0.4310
18144TIP3    H175923   1.941   4.256  17.071 -0.1624  3.8319  0.4250
18144TIP3    H275924   2.021   4.305  16.953  0.6858 -2.2213 -1.8752
18145TIP3   OH275925   4.996   0.320   3.833 -0.6260 -0.1494 -0.1680
18145TIP3    H175926   4.937   0.280   3.897  0.2665 -2.6005 -0.7966
18145TIP3    H275927   5.020   0.404   3.873 -0.9229 -1.1272  2.2203
18146TIP3   OH275928   4.337   2.010  16.676  0.3319 -0.1232 -0.4196
18146TIP3    H175929   4.416   2.052  16.642  1.9766 -1.2487  1.7802
18146TIP3    H275930   4.321   1.938  16.615  0.3195  0.7661 -1.5021
18147TIP3   OH275931   2.627   0.534  12.397 -0.1089  0.7852  0.7054
18147TIP3    H175932   2.700   0.556  12.339  0.6217  2.4443  2.1454
18147TIP3    H275933   2.640   0.442  12.419  0.0318  0.3349 -1.1060
18148TIP3   OH275934   5.680   3.524   0.113 -0.3288  0.2477  0.1818
18148TIP3    H175935   5.770   3.555   0.106 -0.0216 -0.9456 -2.5090
18148TIP3    H275936   5.646   3.566   0.191  2.0627  1.9850  0.3936
18149TIP3   OH275937   0.970   3.669   4.272  0.1889  1.0125 -0.3223
18149TIP3    H175938   1.028   3.625   4.334 -3.4457 -0.8652  2.1270
18149TIP3    H275939   0.966   3.759   4.302 -1.9321  0.0330  2.8717
18150TIP3   OH275940   1.739   0.070  15.924 -0.1281 -0.5734  0.4163
18150TIP3    H175941   1.696   0.136  15.977  0.3167  0.3763 -0.3746
18150TIP3    H275942   1.764   0.001  15.986  0.8265  0.7309  1.5353
18151TIP3   OH275943   2.304   5.256   2.936 -0.0667  0.2947  0.0028
18151TIP3    H175944   2.386   5.289   2.899  0.3637 -0.2768  0.4211
18151TIP3    H275945   2.293   5.305   3.018 -1.1763  1.7780 -0.9815
18152TIP3   OH275946   5.661   3.007  10.426  0.6777  0.0002  0.2087
18152TIP3    H175947   5.727   2.973  10.366  0.6708  0.4164 -0.0372
18152TIP3    H275948   5.582   3.016  10.372  0.3359 -0.7762  0.5707
18153TIP3   OH275949   6.598   0.796   4.429  0.5146  0.1125 -0.3685
18153TIP3    H175950   6.528   0.820   4.489  0.8316  0.3378 -0.0814
18153TIP3    H275951   6.588   0.701   4.418  1.5854 -0.2911  1.5603
18154TIP3   OH275952   4.705   1.922   2.037 -0.5934 -0.1388  0.1048
18154TIP3    H175953   4.742   1.875   2.111 -0.0798 -0.6691 -0.4857
18154TIP3    H275954   4.726   2.014   2.055 -1.8889 -0.0604  1.4230
18155TIP3   OH275955   5.947   6.445   6.603  0.3431  0.3537 -0.3638
18155TIP3    H175956   5.869   6.400   6.634 -0.5921  1.7279 -0.6587
18155TIP3    H275957   5.931   6.537   6.621  1.3806  0.7900 -1.5157
18156TIP3   OH275958   1.418   2.246  17.014  0.0513  0.0696  0.1887
18156TIP3    H175959   1.474   2.275  16.942 -0.8609  0.0188 -0.5642
18156TIP3    H275960   1.357   2.185  16.973 -2.2786  2.1045  0.4036
18157TIP3   OH275961   4.767   6.000  11.251 -0.7525  0.0882  0.5119
18157TIP3    H175962   4.813   5.929  11.205 -0.5755 -1.1919  2.5615
18157TIP3    H275963   4.677   5.993  11.221 -0.1883  1.0693 -1.6842
18158TIP3   OH275964   5.688   3.479   2.307  0.0201  0.4532  0.0627
18158TIP3    H175965   5.764   3.486   2.364  0.5555 -1.9721 -0.2395
18158TIP3    H275966   5.617   3.521   2.356  1.3703  2.2549  0.5894
18159TIP3   OH275967   3.238   0.578  13.129 -0.1102  0.5035 -0.4309
18159TIP3    H175968   3.206   0.668  13.135  1.1148  1.0040 -0.9475
18159TIP3    H275969   3.333   0.587  13.126  0.1173 -0.9101  1.1141
18160TIP3   OH275970   2.142   2.453   6.985 -0.9487  0.0486 -0.4649
18160TIP3    H175971   2.098   2.519   6.933  0.4651  1.1731 -0.2721
18160TIP3    H275972   2.086   2.375   6.977 -1.9850  0.8859 -1.6933
18161TIP3   OH275973   4.829   5.466   3.521 -0.2514 -0.6241 -0.1438
18161TIP3    H175974   4.758   5.511   3.475  0.6373  2.8453  1.5873
18161TIP3    H275975   4.854   5.395   3.462 -1.0703  1.7731 -3.6736
18162TIP3   OH275976   1.839   0.895   5.306  0.0195 -0.7094  0.4254
18162TIP3    H175977   1.832   0.856   5.393  0.2456  0.3673  0.9534
18162TIP3    H275978   1.927   0.872   5.277  0.0170 -0.9028  0.5664
18163TIP3   OH275979   4.639   3.664   2.648  0.2660 -1.0067 -0.1326
18163TIP3    H175980   4.661   3.617   2.568  0.4045  1.3237 -1.5662
18163TIP3    H275981   4.723   3.695   2.682  0.0420 -0.1590 -0.3212
18164TIP3   OH275982   0.139   2.834   0.512 -0.2712  0.7115 -0.3331
18164TIP3    H175983   0.168   2.919   0.545 -0.1744  0.1179  1.1585
18164TIP3    H275984   0.190   2.822   0.432  0.9063  1.3466  0.2928
18165TIP3   OH275985   2.126   2.418  14.749 -0.1550  0.3477  0.1709
18165TIP3    H175986   2.054   2.440  14.690  1.2229 -0.5007 -1.8993
18165TIP3    H275987   2.095   2.340  14.796 -1.4420  1.3021  1.0038
18166TIP3   OH275988   6.638   2.831  11.120 -0.0125  0.3232 -0.3215
18166TIP3    H175989   6.585   2.799  11.047  0.1043  0.2563 -0.3775
18166TIP3    H275990   6.701   2.761  11.136 -1.3361 -0.5974  1.2052
18167TIP3   OH275991   3.440   4.464   0.722  0.9190  0.4725 -0.3954
18167TIP3    H175992   3.528   4.431   0.707  0.1077 -1.7580 -0.7206
18167TIP3    H275993   3.398   4.461   0.636 -0.3131 -1.3633  0.2046
18168TIP3   OH275994   2.640   4.111   3.717  0.5880 -0.0287 -0.5115
18168TIP3    H175995   2.643   4.016   3.709  1.1791  0.0190 -0.9298
18168TIP3    H275996   2.717   4.133   3.770 -1.6256 -0.0778  3.0935
18169TIP3   OH275997   1.725   1.704  13.140  0.0031 -0.4315 -0.3793
18169TIP3    H175998   1.655   1.648  13.173 -0.0544  0.2022  0.5874
18169TIP3    H275999   1.680   1.773  13.091 -0.2431  1.1405  1.9171
18170TIP3   OH276000   6.325   5.101   3.892 -0.8723  0.3393  0.4753
18170TIP3    H176001   6.377   5.025   3.865  0.7710  1.6423 -0.2080
18170TIP3    H276002   6.360   5.124   3.979 -1.7550 -0.0109  0.9328
18171TIP3   OH276003   6.081   0.742   3.478  0.0750 -0.4803 -0.2173
18171TIP3    H176004   6.009   0.713   3.534  0.8276 -0.2379  0.9362
18171TIP3    H276005   6.159   0.734   3.534  0.5789  1.8336 -0.4958
18172TIP3   OH276006   3.505   3.481  13.818  0.0706 -0.3116 -0.3695
18172TIP3    H176007   3.510   3.386  13.829  2.4683  0.0239  2.5874
18172TIP3    H276008   3.417   3.504  13.849  0.3826 -1.3867  1.4788
18173TIP3   OH276009   5.527   3.175  11.334 -0.4112 -0.1984 -0.2378
18173TIP3    H176010   5.485   3.222  11.262  1.9041  0.1567 -1.4621
18173TIP3    H276011   5.556   3.243  11.394 -1.3028 -0.4179  0.4541
18174TIP3   OH276012   4.513   4.549   0.092  0.3359 -0.2923  0.3138
18174TIP3    H176013   4.558   4.488   0.150 -2.0174 -0.1577  2.4187
18174TIP3    H276014   4.420   4.533   0.107 -0.3859  0.4386 -2.7780
18175TIP3   OH276015   5.122   4.619  15.743 -0.2608 -0.5064 -0.1560
18175TIP3    H176016   5.145   4.655  15.828  0.1535 -1.5660  0.2045
18175TIP3    H276017   5.126   4.524  15.756 -0.4673 -0.6808 -1.2819
18176TIP3   OH276018   4.990   6.485   4.554 -0.1272  0.7060  0.3093
18176TIP3    H176019   4.962   6.570   4.588  2.1420  2.3693 -1.5572
18176TIP3    H276020   4.949   6.480   4.467  1.8483  1.2895 -0.7357
18177TIP3   OH276021   6.219   5.707  11.480 -0.6234  0.6773 -0.2822
18177TIP3    H176022   6.158   5.713  11.406 -0.6825 -1.6014 -0.4873
18177TIP3    H276023   6.173   5.655  11.545  1.0202 -1.0524 -0.4062
18178TIP3   OH276024   1.812   3.545  12.049 -0.5437  0.0814  0.2030
18178TIP3    H176025   1.834   3.453  12.034 -2.1433 -0.1789 -0.7976
18178TIP3    H276026   1.887   3.593  12.015  0.7785 -0.8345  1.6707
18179TIP3   OH276027   0.042   5.127  13.786  0.5834 -0.9051 -0.3460
18179TIP3    H176028  -0.048   5.107  13.762 -0.3173 -0.0040  1.9511
18179TIP3    H276029   0.096   5.077  13.725 -1.4698 -2.7300 -0.7619
18180TIP3   OH276030   4.263   4.558   6.122 -0.0496 -0.1353 -0.3756
18180TIP3    H176031   4.248   4.651   6.139  0.1172 -0.0290 -0.7992
18180TIP3    H276032   4.345   4.539   6.167 -0.2841 -0.1782  0.0462
18181TIP3   OH276033   3.072   4.198   6.255 -0.3247  0.1093  0.3907
18181TIP3    H176034   3.161   4.187   6.290 -0.2562 -4.4723 -0.6288
18181TIP3    H276035   3.015   4.158   6.321 -1.4776  1.2761  0.1511
18182TIP3   OH276036   2.011   0.118  12.292 -0.6001 -0.1682 -0.2375
18182TIP3    H176037   2.064   0.196  12.279 -0.5630 -0.1167  0.1853
18182TIP3    H276038   2.064   0.046  12.258 -0.3900 -0.0796 -0.0989
18183TIP3   OH276039   5.364   4.786  16.973  0.1121  0.0494 -0.2280
18183TIP3    H176040   5.271   4.811  16.972  0.2242  0.4544 -1.0594
18183TIP3    H276041   5.363   4.691  16.968 -0.2479  0.1095 -1.6303
18184TIP3   OH276042   4.308   0.590  12.299 -0.3776  0.0343  0.2015
18184TIP3    H176043   4.367   0.539  12.355 -1.2898 -2.2478 -0.8145
18184TIP3    H276044   4.223   0.548  12.309 -1.1859  1.3814 -0.6970
18185TIP3   OH276045   5.410   1.127  15.044 -0.0161 -0.2946  0.5387
18185TIP3    H176046   5.349   1.121  14.970 -1.8245  3.0717  1.5173
18185TIP3    H276047   5.368   1.077  15.114 -1.0747  0.9237  0.8118
18186TIP3   OH276048   5.221   0.338  13.865 -0.2450  0.2608  0.3053
18186TIP3    H176049   5.186   0.285  13.937 -1.5275  2.0986  1.1119
18186TIP3    H276050   5.290   0.391  13.904 -2.2969  2.7700  0.8056
18187TIP3   OH276051   1.162   6.746   4.604 -0.0920  0.0961 -0.0239
18187TIP3    H176052   1.248   6.787   4.607 -0.2081  0.3149  0.2717
18187TIP3    H276053   1.159   6.689   4.680 -0.2719  0.2142  0.0590
18188TIP3   OH276054   2.359   4.758  13.247  0.0613 -0.1321  0.1555
18188TIP3    H176055   2.343   4.794  13.334  0.0731 -0.5124  0.3204
18188TIP3    H276056   2.406   4.827  13.200 -0.4488  0.2940  0.2602
18189TIP3   OH276057   5.219   4.235   2.374 -0.3040  0.0320  0.0898
18189TIP3    H176058   5.257   4.260   2.458 -1.7691 -0.8695  1.0734
18189TIP3    H276059   5.287   4.182   2.332  0.9118  1.4817  0.1203
18190TIP3   OH276060   1.803   2.180   0.400 -0.0250 -0.2846 -0.5748
18190TIP3    H176061   1.853   2.247   0.353 -0.4296 -0.0712 -0.7089
18190TIP3    H276062   1.737   2.230   0.448 -2.8492 -0.7475 -3.6349
18191TIP3   OH276063   4.115   4.920   1.181  0.0388 -0.6300 -0.2816
18191TIP3    H176064   4.147   4.930   1.091 -0.1121 -1.5639 -0.4530
18191TIP3    H276065   4.020   4.919   1.173 -0.0524  1.3013  0.1337
18192TIP3   OH276066   0.140   3.695   0.236 -0.3427  0.4608 -0.1469
18192TIP3    H176067   0.108   3.605   0.235  0.7358  0.0626 -0.1764
18192TIP3    H276068   0.179   3.706   0.322 -0.7993  1.0260 -0.0098
18193TIP3   OH276069   0.692   2.364   3.059 -0.3051 -0.0683  0.4875
18193TIP3    H176070   0.599   2.358   3.038 -0.6105  1.6359  1.1831
18193TIP3    H276071   0.696   2.357   3.154  0.3423 -0.6975  0.4207
18194TIP3   OH276072   3.672   2.799   0.188 -0.0936 -0.5817 -0.3711
18194TIP3    H176073   3.731   2.771   0.257 -0.0228  1.9734  0.7208
18194TIP3    H276074   3.649   2.719   0.141  0.9007 -2.2116  1.7865
18195TIP3   OH276075   2.399   6.697  13.345 -0.5860 -1.3118 -0.0221
18195TIP3    H176076   2.419   6.623  13.401  0.6161 -1.5977 -0.8083
18195TIP3    H276077   2.470   6.700  13.281 -0.1815  0.9963  0.4610
18196TIP3   OH276078   1.628   2.492   0.214 -0.0041  0.5170  0.4757
18196TIP3    H176079   1.586   2.552   0.276 -1.3905  0.4192 -0.3228
18196TIP3    H276080   1.640   2.544   0.135 -2.0501 -0.4196 -0.5376
18197TIP3   OH276081   0.745   3.372   1.406 -0.3779 -0.2449  0.0852
18197TIP3    H176082   0.658   3.408   1.390 -0.3535 -0.7633 -1.4287
18197TIP3    H276083   0.753   3.301   1.342  0.9542 -0.5419  0.5546
18198TIP3   OH276084   1.206   2.245  12.617 -0.2967  0.1851 -0.2566
18198TIP3    H176085   1.181   2.270  12.706 -0.2446 -1.3118  0.2038
18198TIP3    H276086   1.298   2.271  12.610  0.3817 -1.6723  0.9474
18199TIP3   OH276087   4.978   6.090  16.598  0.1244  0.0043 -0.1530
18199TIP3    H176088   4.889   6.054  16.598 -0.1427  0.6456  0.1567
18199TIP3    H276089   4.968   6.180  16.566  0.9100 -0.4705 -1.8561
18200TIP3   OH276090   0.319   3.482   0.511  0.0493 -0.3931  0.8086
18200TIP3    H176091   0.262   3.558   0.504  0.9731  0.5253  2.5738
18200TIP3    H276092   0.270   3.411   0.470 -1.2920  0.8933  0.0936
18201TIP3   OH276093   6.114   0.090  13.933  0.0868 -0.1095 -0.0040
18201TIP3    H176094   6.131   0.010  13.883  0.8135  0.5203 -0.7988
18201TIP3    H276095   6.060   0.061  14.006 -1.0075 -1.0682 -1.1372
18202TIP3   OH276096   3.000   2.436   1.262 -0.6132  0.1936 -0.1646
18202TIP3    H176097   3.012   2.531   1.264 -1.6283  0.3401 -0.1116
18202TIP3    H276098   2.908   2.424   1.236 -0.0058 -0.8139 -2.0420
18203TIP3   OH276099   3.252   1.040   2.550 -0.1798 -0.1346 -0.7338
18203TIP3    H176100   3.195   0.993   2.611 -0.6593  0.8167 -0.4262
18203TIP3    H276101   3.198   1.057   2.473 -1.5822  3.8028  0.8600
18204TIP3   OH276102   6.719   0.379  12.157  0.0483  0.2653 -0.1317
18204TIP3    H176103   6.750   0.348  12.242  1.2438 -0.6914 -0.8928
18204TIP3    H276104   6.627   0.401  12.172  0.1928 -0.0361  1.3670
18205TIP3   OH276105   2.750   0.697   5.316  0.9154  0.2279  0.5502
18205TIP3    H176106   2.803   0.763   5.270  1.6382  0.4496  1.6730
18205TIP3    H276107   2.659   0.722   5.296  1.1880 -0.0342 -1.2177
18206TIP3   OH276108   2.612   2.030  10.969 -0.0503 -0.1922 -0.5215
18206TIP3    H176109   2.633   2.105  10.913  0.3952  0.6461  0.7135
18206TIP3    H276110   2.696   1.987  10.984 -0.4898 -1.8821 -2.4218
18207TIP3   OH276111   0.773   2.316   3.985  0.0166  0.1060 -0.0562
18207TIP3    H176112   0.809   2.392   4.030 -1.0739  1.4656 -1.3507
18207TIP3    H276113   0.679   2.320   4.003 -0.3553  0.3071 -1.8062
18208TIP3   OH276114   3.195   5.441  15.619  0.6911  0.8963 -0.1143
18208TIP3    H176115   3.145   5.373  15.664  1.2935 -1.0655 -2.1925
18208TIP3    H276116   3.140   5.466  15.545 -0.1838  3.8844  1.4157
18209TIP3   OH276117   1.790   3.292   3.190  0.1165 -0.1029 -0.3492
18209TIP3    H176118   1.826   3.227   3.130 -0.4788 -1.4156  0.6890
18209TIP3    H276119   1.748   3.242   3.259 -1.2668  1.3781 -0.0395
18210TIP3   OH276120   2.110   2.397   5.785  0.0317 -0.2607  0.0847
18210TIP3    H176121   2.084   2.325   5.842  0.4690 -1.3591 -1.0434
18210TIP3    H276122   2.157   2.354   5.712 -0.5338  1.0637 -1.1089
18211TIP3   OH276123   2.643   0.723  11.085  0.2995  0.3065 -0.3638
18211TIP3    H176124   2.605   0.809  11.067 -0.5414  0.4147  1.6442
18211TIP3    H276125   2.614   0.668  11.012  0.7006  1.6664 -1.5843
18212TIP3   OH276126   0.603   5.365   0.627 -0.2123 -0.2772  0.2827
18212TIP3    H176127   0.660   5.324   0.562 -0.4571  0.3887 -0.3694
18212TIP3    H276128   0.603   5.458   0.604  1.0915  0.2882  2.3124
18213TIP3   OH276129   3.076   0.113   6.717 -0.0334 -0.0632  0.8902
18213TIP3    H176130   3.076   0.028   6.673  2.4206  0.4685 -0.3509
18213TIP3    H276131   3.146   0.106   6.782 -1.0703  0.4286  2.1005
18214TIP3   OH276132   6.762   4.323  13.096  0.3136 -0.3241 -0.2217
18214TIP3    H176133   6.678   4.284  13.123 -0.1491  1.2405  0.7613
18214TIP3    H276134   6.810   4.335  13.178  0.4716  1.0476 -0.4979
18215TIP3   OH276135   0.306   0.490   3.682 -0.5398  0.5064 -0.4347
18215TIP3    H176136   0.221   0.496   3.639 -1.3887  1.2074  1.2626
18215TIP3    H276137   0.329   0.397   3.676 -0.5015  0.6080 -2.5477
18216TIP3   OH276138   0.901   6.467  16.907  0.0972  0.0016 -0.1881
18216TIP3    H176139   0.877   6.539  16.849  1.2344  0.6404  0.1165
18216TIP3    H276140   0.975   6.425  16.864  0.5967  0.1403  0.5113
18217TIP3   OH276141   5.881   3.860  14.956  0.2712 -0.7286  0.0716
18217TIP3    H176142   5.876   3.765  14.943  1.1269 -1.0510  1.7475
18217TIP3    H276143   5.799   3.882  15.002  1.3732 -1.2382  2.4453
18218TIP3   OH276144   6.756   1.732   0.246  0.2154  0.0452 -0.3218
18218TIP3    H176145   6.820   1.661   0.238  0.6186  0.4585 -0.9103
18218TIP3    H276146   6.720   1.743   0.158 -0.6952 -0.1957  0.0111
18219TIP3   OH276147   3.959   3.286  14.445  0.2227 -0.3179  0.4729
18219TIP3    H176148   4.044   3.308  14.407  0.8095 -1.4543  1.0676
18219TIP3    H276149   3.910   3.368  14.443  0.7992  0.0242 -1.2207
18220TIP3   OH276150   3.707   0.825  16.568  0.0599  0.4591 -0.2760
18220TIP3    H176151   3.710   0.735  16.601  0.2158  0.1693 -1.0527
18220TIP3    H276152   3.629   0.863  16.608 -0.6187 -0.3614 -0.7810
18221TIP3   OH276153   1.217   2.387  13.507  0.1003  0.0663  0.1296
18221TIP3    H176154   1.263   2.445  13.568 -2.9126  2.3150  0.5176
18221TIP3    H276155   1.233   2.425  13.421 -2.0434  1.8161  0.4019
18222TIP3   OH276156   1.260   2.314   5.342  0.0681 -0.3889  0.0089
18222TIP3    H176157   1.327   2.322   5.275 -0.5173  1.0043 -0.4452
18222TIP3    H276158   1.200   2.247   5.308  0.9933 -1.3755  0.2521
18223TIP3   OH276159   0.954   5.599   4.393  0.1660 -0.0239 -0.3037
18223TIP3    H176160   0.880   5.652   4.361  0.2883  0.2641 -0.1183
18223TIP3    H276161   0.993   5.653   4.462  0.5836 -0.1510 -0.4396
18224TIP3   OH276162   2.183   4.126   0.880  0.1808 -0.2831  0.2055
18224TIP3    H176163   2.122   4.196   0.902 -0.3369 -1.1330  1.5700
18224TIP3    H276164   2.195   4.078   0.961  0.9682 -1.4507 -0.5723
18225TIP3   OH276165   1.567   2.826   3.441 -0.5035 -0.1345 -0.0622
18225TIP3    H176166   1.638   2.762   3.452 -1.1779 -0.9185 -0.1372
18225TIP3    H276167   1.611   2.907   3.418  0.2975 -0.9859 -1.7208
18226TIP3   OH276168   0.571   5.881   5.887  0.3612 -0.4766 -0.0045
18226TIP3    H176169   0.493   5.879   5.942  1.1590  1.9057  1.3917
18226TIP3    H276170   0.564   5.964   5.840  1.4515 -0.8106 -0.7793
18227TIP3   OH276171   2.964   3.320   4.794  0.4770  0.1234 -0.7049
18227TIP3    H176172   2.963   3.230   4.762 -0.0624  0.7932 -2.7484
18227TIP3    H276173   2.959   3.312   4.889  1.0074 -1.9993 -0.8066
18228TIP3   OH276174   0.425   3.573  12.085 -0.4089  0.5728  0.1845
18228TIP3    H176175   0.349   3.624  12.059  0.0985  1.7827  0.9830
18228TIP3    H276176   0.422   3.495  12.030 -1.3188  1.3727 -0.9424
18229TIP3   OH276177   1.420   2.581  16.888  0.3425  0.8021 -0.5273
18229TIP3    H176178   1.475   2.647  16.847  1.1445 -0.0819 -0.9001
18229TIP3    H276179   1.337   2.586  16.841  0.3773  1.5755 -0.5143
18230TIP3   OH276180   5.618   0.371  13.831  0.0060  0.0342 -0.1903
18230TIP3    H176181   5.648   0.309  13.897  0.9589 -0.2323 -0.8478
18230TIP3    H276182   5.663   0.345  13.751  0.1093  1.3211 -0.5786
18231TIP3   OH276183   2.553   3.850   6.029  0.1904 -0.1767  0.3086
18231TIP3    H176184   2.555   3.778   6.092  1.2690  0.5427  1.1450
18231TIP3    H276185   2.494   3.914   6.069 -1.0040 -0.6865 -0.5740
18232TIP3   OH276186   4.257   0.947  12.497  0.6581  0.4195 -0.6364
18232TIP3    H176187   4.248   0.949  12.402 -0.0937  2.7970 -0.5780
18232TIP3    H276188   4.206   1.023  12.528 -0.3294 -1.0931  1.7692
18233TIP3   OH276189   1.937   4.553  14.517  0.5217 -0.0741 -0.1976
18233TIP3    H176190   1.879   4.545  14.441  0.4050  0.9530 -0.2276
18233TIP3    H276191   1.958   4.463  14.540 -2.8737 -0.6807  1.2003
18234TIP3   OH276192   2.685   4.567   3.401 -0.3699 -0.0335 -0.1404
18234TIP3    H176193   2.661   4.632   3.467  1.2772 -1.1723  1.6859
18234TIP3    H276194   2.624   4.495   3.416  1.0062 -0.9454  1.2578
18235TIP3   OH276195   5.313   1.233  13.152  1.1037  0.2528 -0.5254
18235TIP3    H176196   5.332   1.211  13.061  3.0910 -0.7761  0.0800
18235TIP3    H276197   5.268   1.317  13.148  1.4582  0.3926 -2.4173
18236TIP3   OH276198   3.290   1.395   1.728  0.4859  0.3245 -0.2122
18236TIP3    H176199   3.366   1.389   1.671 -0.2600 -0.0758 -1.2013
18236TIP3    H276200   3.218   1.422   1.670 -0.0595  1.0568  0.7606
18237TIP3   OH276201   0.541   5.540  13.525 -0.2764  0.1516 -0.5233
18237TIP3    H176202   0.452   5.512  13.544 -0.5377  1.0083 -0.4297
18237TIP3    H276203   0.567   5.490  13.448 -1.3520  0.8880 -1.4001
18238TIP3   OH276204   5.360   5.704  16.595 -0.0984  0.0767 -0.0568
18238TIP3    H176205   5.305   5.779  16.573  0.1416  0.2580 -0.0470
18238TIP3    H276206   5.357   5.699  16.690 -0.9971 -0.6016 -0.1025
18239TIP3   OH276207   4.068   3.016  12.790  0.1154 -0.6071 -0.3610
18239TIP3    H176208   4.136   2.950  12.775  0.6870  0.0342 -0.6327
18239TIP3    H276209   4.103   3.096  12.750  0.2314  0.3382  1.5332
18240TIP3   OH276210   1.106   5.031  11.622 -0.6073  0.3900  0.1653
18240TIP3    H176211   1.083   5.077  11.703 -0.3633  0.1502  0.3768
18240TIP3    H276212   1.067   4.944  11.633  0.0464  0.1132  0.3506
18241TIP3   OH276213   3.952   6.534  12.656 -0.7633 -0.5558  0.7786
18241TIP3    H176214   4.017   6.490  12.712  0.1198 -1.2324 -0.7165
18241TIP3    H276215   3.965   6.627  12.673  1.3998 -0.5964 -0.2701
18242TIP3   OH276216   2.196   6.547   3.560  0.4650  0.4207 -0.4232
18242TIP3    H176217   2.101   6.547   3.564  0.4509  0.3364 -0.7331
18242TIP3    H276218   2.224   6.528   3.650  0.2265  3.0552  0.2652
18243TIP3   OH276219   3.851   4.469   5.985  0.7200  0.4272  0.2498
18243TIP3    H176220   3.759   4.447   5.997  1.1005 -1.7819 -0.4255
18243TIP3    H276221   3.874   4.431   5.901  2.2078  1.1390  0.3023
18244TIP3   OH276222   6.408   3.741   0.751  0.4117  0.4213  0.2230
18244TIP3    H176223   6.474   3.797   0.710 -0.3884 -0.4000 -2.3690
18244TIP3    H276224   6.410   3.766   0.843  2.0792  2.6775 -0.3279
18245TIP3   OH276225   2.296   5.142   1.196  0.2806 -0.0385 -0.3027
18245TIP3    H176226   2.222   5.200   1.214  0.6816  0.7216 -1.0546
18245TIP3    H276227   2.256   5.059   1.173 -0.3451  0.3164 -0.5372
18246TIP3   OH276228   6.727   6.446  15.584 -0.5958  0.1281  0.7321
18246TIP3    H176229   6.709   6.428  15.676 -0.2835 -1.3846  0.5270
18246TIP3    H276230   6.655   6.405  15.537  0.0835 -0.5329  0.2377
18247TIP3   OH276231   6.196   6.172   1.388 -0.4501  0.1095  0.1867
18247TIP3    H176232   6.249   6.127   1.322  1.1082  0.1639  1.3408
18247TIP3    H276233   6.188   6.110   1.460 -0.5219  0.7133  0.7145
18248TIP3   OH276234   3.451   6.775  12.016 -0.5189 -0.2258 -0.1223
18248TIP3    H176235   3.454   6.720  11.938  0.3201  0.5399 -0.6507
18248TIP3    H276236   3.471   6.716  12.088 -0.1449 -0.7201 -0.6207
18249TIP3   OH276237   6.528   3.231  10.896  0.0599  0.8788  0.2041
18249TIP3    H176238   6.495   3.275  10.974  1.4632  0.4069  1.1076
18249TIP3    H276239   6.468   3.158  10.882  1.4856 -0.9803  2.8087
18250TIP3   OH276240   1.816   0.749  15.634  0.2039  0.0074  0.0968
18250TIP3    H176241   1.733   0.734  15.590 -0.1585  2.8151 -0.3548
18250TIP3    H276242   1.839   0.664  15.672 -3.2137 -0.7195  0.9010
18251TIP3   OH276243   4.410   2.394   4.490  0.5309 -0.0462 -0.1000
18251TIP3    H176244   4.501   2.418   4.507  0.0769  0.5467  1.6405
18251TIP3    H276245   4.414   2.301   4.468  1.5636  0.0150 -0.2418
18252TIP3   OH276246   2.072   5.152  13.444 -0.4108  0.1716 -1.0311
18252TIP3    H176247   2.040   5.067  13.415 -0.4502  0.5862 -2.2899
18252TIP3    H276248   1.996   5.210  13.438 -0.6566  0.0825  0.8590
18253TIP3   OH276249   5.778   6.652  15.495  0.5904 -0.3650 -0.1826
18253TIP3    H176250   5.869   6.667  15.520  1.0422 -1.6501 -0.9244
18253TIP3    H276251   5.740   6.605  15.570 -0.0698  1.8887  0.9817
18254TIP3   OH276252   1.388   4.663   5.955 -0.0496  0.2108  0.3673
18254TIP3    H176253   1.402   4.696   5.867 -0.1333 -1.1214 -0.1710
18254TIP3    H276254   1.309   4.707   5.986 -0.3403  0.2682 -0.4467
18255TIP3   OH276255   1.890   1.606  15.170  0.3941 -0.6364 -0.3790
18255TIP3    H176256   1.959   1.601  15.103 -0.3826 -0.8793 -1.1734
18255TIP3    H276257   1.918   1.545  15.237  0.6909 -1.1357 -0.9499
18256TIP3   OH276258   5.450   4.353  15.757 -0.1371  0.3175 -0.3618
18256TIP3    H176259   5.476   4.412  15.828 -0.6597  0.3806 -0.2203
18256TIP3    H276260   5.430   4.270  15.800  1.0376 -0.1136 -0.6111
18257TIP3   OH276261   2.542   1.805  11.634  0.1311 -0.0430  0.0238
18257TIP3    H176262   2.574   1.781  11.547 -0.5695 -2.2149  0.3120
18257TIP3    H276263   2.561   1.899  11.641  0.3089  0.1721 -2.4093
18258TIP3   OH276264   3.492   5.782  10.729  0.3092  0.1897 -0.1977
18258TIP3    H176265   3.494   5.830  10.646  0.3687 -0.3618 -0.5184
18258TIP3    H276266   3.498   5.850  10.796  1.3335  0.5793 -0.6652
18259TIP3   OH276267   6.621   4.431   5.573  0.3725  0.3942 -0.8953
18259TIP3    H176268   6.532   4.399   5.588  0.8312 -1.7501 -2.2294
18259TIP3    H276269   6.676   4.354   5.584  2.0347  1.5932 -0.5074
18260TIP3   OH276270   0.634   5.986   3.865  0.4751 -0.6682 -0.4616
18260TIP3    H176271   0.707   6.047   3.864  0.1008 -0.1685  0.7390
18260TIP3    H276272   0.666   5.909   3.816  1.1454  0.2361 -1.4952
18261TIP3   OH276273   2.056   2.329  16.731 -0.0833  0.4239 -0.4544
18261TIP3    H176274   2.125   2.319  16.796  0.3569 -0.4555 -1.0283
18261TIP3    H276275   1.982   2.280  16.767 -0.7589  2.1340  0.5952
18262TIP3   OH276276   3.041   3.794   6.114  0.2102 -0.4839 -0.2356
18262TIP3    H176277   3.105   3.855   6.152  0.3645 -0.8996  0.1826
18262TIP3    H276278   3.045   3.717   6.171 -0.1265 -0.8069 -0.6452
18263TIP3   OH276279   5.250   5.198   0.615  0.4193  0.8477 -0.1588
18263TIP3    H176280   5.326   5.167   0.565  1.2864  0.8115  1.1303
18263TIP3    H276281   5.288   5.256   0.681 -0.5503 -0.0335  1.2133
18264TIP3   OH276282   1.157   4.987  13.099 -0.1964  0.2461  0.5177
18264TIP3    H176283   1.099   4.923  13.059 -0.0830  0.8043 -0.5875
18264TIP3    H276284   1.100   5.061  13.120 -0.2013  0.0725  1.1402
18265TIP3   OH276285   0.914   0.771   2.914 -0.0709 -0.0717  0.6703
18265TIP3    H176286   0.896   0.813   2.829 -0.1886  0.1919  0.8236
18265TIP3    H276287   0.886   0.836   2.978  1.6841  0.4967  0.9283
18266TIP3   OH276288   6.360   0.976  12.443 -0.3674  0.1563  0.4315
18266TIP3    H176289   6.324   1.028  12.371  1.5244  0.5073 -0.3507
18266TIP3    H276290   6.408   1.040  12.496 -0.4268 -0.3561  1.1079
18267TIP3   OH276291   2.904   2.958  16.424  0.4487 -0.1373  0.0553
18267TIP3    H176292   2.922   2.865  16.406 -1.4893 -0.5565  0.0183
18267TIP3    H276293   2.925   2.968  16.517  1.5952 -0.3450 -0.1646
18268TIP3   OH276294   4.970   1.137  10.871 -0.3025  0.3091  0.1839
18268TIP3    H176295   5.065   1.143  10.867 -0.4073  2.0603 -0.5995
18268TIP3    H276296   4.946   1.083  10.796  0.1548 -1.7892  1.4963
18269TIP3   OH276297   5.309   1.189   4.412 -0.0579 -0.2315  0.1810
18269TIP3    H176298   5.341   1.138   4.486  0.0366  0.0880  0.3614
18269TIP3    H276299   5.339   1.278   4.429  0.3567 -0.2441 -0.4804
18270TIP3   OH276300   6.353   5.332  16.040 -0.0359 -0.2275  0.7322
18270TIP3    H176301   6.440   5.335  16.002 -0.0649 -0.3274  0.6570
18270TIP3    H276302   6.364   5.364  16.129  0.2271 -1.0224  0.9965
18271TIP3   OH276303   0.628   1.796  13.864  0.3638 -0.1527  0.1029
18271TIP3    H176304   0.560   1.859  13.838 -0.6081 -0.8271  0.9298
18271TIP3    H276305   0.653   1.823  13.952  2.3524  1.0428 -0.7568
18272TIP3   OH276306   0.236   3.303  16.517  0.1363 -0.1638  0.1989
18272TIP3    H176307   0.201   3.275  16.433 -0.5411 -0.2214  0.5000
18272TIP3    H276308   0.331   3.307  16.503  0.0537 -0.4727 -0.4723
18273TIP3   OH276309   5.245   3.410   2.751  0.1452 -0.4063  0.0541
18273TIP3    H176310   5.288   3.432   2.668 -0.7024 -0.7969 -0.5072
18273TIP3    H276311   5.306   3.350   2.794  1.2127  0.8430  0.3469
18274TIP3   OH276312   3.144   3.812   4.908 -0.0904  0.3417 -0.1790
18274TIP3    H176313   3.080   3.833   4.976  0.3527 -0.9614  0.6763
18274TIP3    H276314   3.132   3.880   4.843 -2.9286 -0.2657 -0.4508
18275TIP3   OH276315   2.622   3.701   2.723  0.0526 -0.3445 -0.3414
18275TIP3    H176316   2.529   3.725   2.718 -0.4139 -2.1023 -0.8752
18275TIP3    H276317   2.633   3.634   2.656  1.3607 -1.2174  0.6952
18276TIP3   OH276318   4.881   3.079   3.441  0.4041  0.0236  0.7050
18276TIP3    H176319   4.965   3.110   3.407  0.0002  2.3381  1.6545
18276TIP3    H276320   4.815   3.129   3.392 -0.4774 -1.8833 -0.1510
18277TIP3   OH276321   2.050   5.549  14.354  0.7938 -0.5236  0.2329
18277TIP3    H176322   2.073   5.572  14.264 -0.3119 -0.5988 -0.0883
18277TIP3    H276323   2.116   5.592  14.408  0.3590  1.1688 -0.5177
18278TIP3   OH276324   1.063   1.693  16.333 -0.3385  0.0930 -0.2304
18278TIP3    H176325   1.131   1.655  16.388  0.0953 -1.1641 -1.5790
18278TIP3    H276326   0.981   1.674  16.378  0.0307 -0.6730  0.1211
18279TIP3   OH276327   1.923   5.232  17.083 -0.2339 -0.0208 -0.1080
18279TIP3    H176328   1.884   5.307  17.038  0.2152  0.9115  1.0001
18279TIP3    H276329   2.016   5.254  17.090 -0.0005 -0.9313 -0.2327
18280TIP3   OH276330   4.795   4.455  11.299  0.2956  0.0838 -0.2492
18280TIP3    H176331   4.700   4.453  11.288  0.0255  0.0653  1.6782
18280TIP3    H276332   4.815   4.377  11.350  0.9926  1.3497  1.5161
18281TIP3   OH276333   3.521   0.139   0.319  0.0661 -0.0145 -0.1701
18281TIP3    H176334   3.592   0.109   0.263  0.8213  2.7287 -0.8191
18281TIP3    H276335   3.550   0.119   0.408  1.2420  0.2745 -0.4750
18282TIP3   OH276336   6.387   0.921   0.326  0.0540  0.5093  0.3153
18282TIP3    H176337   6.309   0.975   0.315 -0.6324 -0.1943  1.4849
18282TIP3    H276338   6.358   0.848   0.381  1.4948  0.1385  0.6274
18283TIP3   OH276339   4.247   1.284  16.623  0.2245  0.1431  0.5661
18283TIP3    H176340   4.252   1.374  16.592  0.9017 -0.3207 -0.7509
18283TIP3    H276341   4.165   1.250  16.587 -0.7047  0.5962  2.1617
18284TIP3   OH276342   4.077   5.223  11.889  0.4536 -0.0888 -0.0133
18284TIP3    H176343   4.011   5.280  11.928 -0.1766 -0.9354  0.1961
18284TIP3    H276344   4.140   5.282  11.849  0.0777  0.7600  0.6215
18285TIP3   OH276345   6.613   0.771   1.886  0.1230  0.2479  0.4706
18285TIP3    H176346   6.666   0.849   1.906  0.1180  0.3891 -0.0711
18285TIP3    H276347   6.616   0.763   1.791  0.8612 -0.9265  0.5673
18286TIP3   OH276348   3.291   4.086  16.707 -0.3396  0.4531  0.2891
18286TIP3    H176349   3.353   4.130  16.648 -0.7266  0.2322 -0.2981
18286TIP3    H276350   3.309   3.993  16.696  0.2514  0.4369  1.2793
18287TIP3   OH276351   5.502   0.985  17.229 -0.5068  0.1930 -0.3244
18287TIP3    H176352   5.456   0.902  17.247 -0.5665 -0.1717 -1.9898
18287TIP3    H276353   5.473   1.044  17.299 -1.1788 -0.9155  0.3679
18288TIP3   OH276354   5.144   5.905   4.262  0.1145  0.1301 -0.5860
18288TIP3    H176355   5.059   5.913   4.306  0.1651 -0.5272 -0.3472
18288TIP3    H276356   5.188   5.988   4.280  0.0332 -0.0287  0.4120
18289TIP3   OH276357   3.639   5.195  12.506  0.0242  0.5727  0.0466
18289TIP3    H176358   3.558   5.231  12.470  0.2433  1.2206  0.1969
18289TIP3    H276359   3.685   5.271  12.541  0.5624  0.1634  0.2244
18290TIP3   OH276360   0.958   1.482  11.033  0.3999  0.1061  0.0631
18290TIP3    H176361   0.935   1.408  11.090  1.5625 -2.7951 -2.9654
18290TIP3    H276362   0.874   1.512  10.998  0.0694 -1.1720 -0.2701
18291TIP3   OH276363   4.597   4.373   1.284  0.2217  0.0749  0.6926
18291TIP3    H176364   4.606   4.447   1.344  1.8388 -0.0175  0.6085
18291TIP3    H276365   4.606   4.296   1.340  0.8177 -0.0238  0.4637
18292TIP3   OH276366   2.512   3.691  15.908 -0.2118 -0.6403 -0.0990
18292TIP3    H176367   2.460   3.696  15.988 -0.5582 -0.4365 -0.3322
18292TIP3    H276368   2.454   3.648  15.844  0.3336 -1.4904 -0.0282
18293TIP3   OH276369   5.642   2.842  15.302 -0.1082 -0.3744 -0.0942
18293TIP3    H176370   5.615   2.794  15.224  0.0384 -0.9859  0.2255
18293TIP3    H276371   5.723   2.886  15.277  0.5254 -1.4428  0.0319
18294TIP3   OH276372   0.912   3.117  12.912  0.3409 -0.4161  0.4011
18294TIP3    H176373   0.952   3.173  12.979 -2.8217  0.7589  1.5195
18294TIP3    H276374   0.900   3.175  12.837  0.7326 -0.7490  0.0814
18295TIP3   OH276375   2.923   4.028  11.418 -0.2784  0.0917 -0.6613
18295TIP3    H176376   2.911   4.040  11.323 -0.7460  1.8463 -0.4038
18295TIP3    H276377   2.835   4.036  11.455 -0.0897 -0.5336 -0.0498
18296TIP3   OH276378   4.962   1.165  15.315 -0.2083  0.9524  0.0955
18296TIP3    H176379   4.877   1.146  15.275 -0.0309  3.0770 -1.4901
18296TIP3    H276380   5.017   1.090  15.292 -1.4532 -0.1190  0.5562
18297TIP3   OH276381   0.992   5.816  14.071  0.4687 -0.0460 -0.3222
18297TIP3    H176382   1.006   5.751  14.002  2.9379  0.6873 -0.6136
18297TIP3    H276383   1.007   5.900  14.027 -0.1987  0.5818  0.6155
18298TIP3   OH276384   6.050   1.876  17.254  0.0343  0.2454 -0.2673
18298TIP3    H176385   6.043   1.963  17.215  0.7095  0.1777 -0.5363
18298TIP3    H276386   5.962   1.859  17.289  0.1603  1.4713  0.7445
18299TIP3   OH276387   2.095   6.580  12.436  0.2872 -0.2971  0.2976
18299TIP3    H176388   2.048   6.640  12.494 -1.1060 -0.2809 -0.8072
18299TIP3    H276389   2.029   6.519  12.405  1.0749 -0.5600 -0.9590
18300TIP3   OH276390   6.064   1.711  13.604  0.2058 -0.3341  0.4059
18300TIP3    H176391   6.039   1.629  13.647  1.6532 -0.5471  0.9275
18300TIP3    H276392   6.155   1.696  13.577  0.5055  1.1089  0.5444
18301TIP3   OH276393   0.549   5.852  16.247  0.0015  0.3378 -0.2322
18301TIP3    H176394   0.494   5.927  16.271 -0.4572  0.3570 -1.3053
18301TIP3    H276395   0.556   5.856  16.152  1.5397  0.0986 -0.1644
18302TIP3   OH276396   1.856   1.881  17.108  0.9739  0.2308 -0.1335
18302TIP3    H176397   1.860   1.806  17.167 -1.4982  0.1486  0.0485
18302TIP3    H276398   1.883   1.847  17.023 -0.8997 -1.1406 -0.2385
18303TIP3   OH276399   0.981   1.095   6.006  0.1348  0.2332 -0.1844
18303TIP3    H176400   0.957   1.036   5.935  0.3940  0.0792 -0.1464
18303TIP3    H276401   0.933   1.175   5.989 -0.6910 -0.1950  0.0935
18304TIP3   OH276402   1.841   1.988   2.716 -0.1723 -0.4831 -0.0321
18304TIP3    H176403   1.777   1.984   2.645 -0.9896 -2.0110  0.7287
18304TIP3    H276404   1.823   2.070   2.761 -0.5406 -0.1518 -0.7761
18305TIP3   OH276405   3.944   2.771  11.289  0.3194  0.1653 -0.0366
18305TIP3    H176406   3.968   2.777  11.197 -0.4534  0.2121 -0.2414
18305TIP3    H276407   3.971   2.683  11.315  1.6747  0.5830  0.0356
18306TIP3   OH276408   2.965   1.066  16.762 -0.2497  0.3612  0.3256
18306TIP3    H176409   3.025   1.027  16.698  0.7381 -0.5952  1.7781
18306TIP3    H276410   3.007   1.148  16.787  0.2226 -0.0844  0.9995
18307TIP3   OH276411   0.084   1.774  15.760 -0.1915  0.1258  0.1258
18307TIP3    H176412   0.093   1.840  15.828  1.1770  1.2646 -1.0696
18307TIP3    H276413  -0.010   1.772  15.740 -0.2809  1.6627  0.2660
18308TIP3   OH276414   1.363   4.006  17.264 -0.3271 -0.6493 -0.6715
18308TIP3    H176415   1.429   3.964  17.209 -0.6686 -0.9411 -0.8595
18308TIP3    H276416   1.404   4.010  17.351  0.8607  1.2423 -1.2395
18309TIP3   OH276417   2.368   6.513   0.266 -0.1240 -0.7570 -0.1719
18309TIP3    H176418   2.313   6.590   0.252 -0.8110 -0.9846  1.1176
18309TIP3    H276419   2.311   6.451   0.312  1.1687 -1.0268  1.1314
18310TIP3   OH276420   3.181   2.860  15.347 -0.5721 -0.2875 -0.1740
18310TIP3    H176421   3.199   2.953  15.362 -2.8944  0.1883 -0.0909
18310TIP3    H276422   3.235   2.838  15.271  0.8368  0.8066  0.4427
18311TIP3   OH276423   6.531   5.593  15.787  0.4097  0.3715  0.6257
18311TIP3    H176424   6.470   5.580  15.715  0.0618 -0.4172  1.0545
18311TIP3    H276425   6.602   5.530  15.770  0.1888 -0.0166  1.1133
18312TIP3   OH276426   0.244   4.352  16.792 -0.3655 -0.6824 -0.2204
18312TIP3    H176427   0.292   4.340  16.710  0.9751 -0.5834  0.5221
18312TIP3    H276428   0.306   4.324  16.860 -0.9419  0.5681  0.8515
18313TIP3   OH276429   5.767   0.199  11.454 -0.0308 -0.1746 -0.6729
18313TIP3    H176430   5.857   0.198  11.423  0.6064 -1.4744  1.0490
18313TIP3    H276431   5.763   0.130  11.520 -1.9178  0.7909  0.3287
18314TIP3   OH276432   0.565   5.828  15.964 -0.3951  0.3026  0.1540
18314TIP3    H176433   0.515   5.910  15.970  0.2489  0.8751 -1.6700
18314TIP3    H276434   0.512   5.772  15.906 -0.8825 -0.6417  1.4672
18315TIP3   OH276435   6.409   0.982   1.336 -0.5611 -0.3627  0.1128
18315TIP3    H176436   6.473   1.040   1.377  0.2792 -2.6408  2.2164
18315TIP3    H276437   6.373   0.930   1.408 -1.0517 -2.6652 -1.6853
18316TIP3   OH276438   2.350   4.176   2.905  0.2630  0.1477 -0.2017
18316TIP3    H176439   2.321   4.196   2.994  0.7349 -0.6476  0.1484
18316TIP3    H276440   2.376   4.084   2.909  0.9058  0.2813 -1.0018
18317TIP3   OH276441   3.147   2.161  16.255  0.2458 -0.3234  0.3483
18317TIP3    H176442   3.081   2.183  16.321  0.0074  1.0596 -0.3113
18317TIP3    H276443   3.163   2.067  16.267 -0.1342 -0.2044  2.0479
18318TIP3   OH276444   3.434   3.064   3.322 -0.2776 -0.4869 -0.0839
18318TIP3    H176445   3.408   3.148   3.284  0.4430  0.8728  2.2321
18318TIP3    H276446   3.468   3.014   3.248  0.4357  1.7164 -1.3545
18319TIP3   OH276447   2.722   5.148   0.319 -0.0343 -0.1494 -0.2227
18319TIP3    H176448   2.689   5.155   0.230  2.5308 -1.0067 -1.3430
18319TIP3    H276449   2.786   5.077   0.315 -0.5112 -0.8411  2.5469
18320TIP3   OH276450   3.440   6.262   0.039 -0.2107 -0.4944 -0.2838
18320TIP3    H176451   3.465   6.245   0.129  0.2171 -1.4415 -0.5674
18320TIP3    H276452   3.344   6.269   0.041 -0.1703 -0.0519  0.3018
18321TIP3   OH276453   5.850   3.218   4.059 -0.2363 -0.1225 -0.4754
18321TIP3    H176454   5.794   3.276   4.008 -0.6236  0.5884  0.7085
18321TIP3    H276455   5.929   3.270   4.076  0.4371 -0.8189 -1.4329
18322TIP3   OH276456   5.310   5.901  15.065 -0.1037  0.2528  0.0935
18322TIP3    H176457   5.302   5.807  15.052  0.6576 -1.1381  6.4537
18322TIP3    H276458   5.404   5.917  15.068 -0.1909  0.6839  1.1529
18323TIP3   OH276459   1.913   2.083   4.655  0.1172  0.6679 -0.2199
18323TIP3    H176460   1.942   2.153   4.713  0.6741  1.9619 -1.9484
18323TIP3    H276461   1.835   2.047   4.698  0.4976  1.5606  1.2888
18324TIP3   OH276462   4.203   1.061   3.598 -0.2979 -0.5708 -0.0563
18324TIP3    H176463   4.286   1.024   3.628 -0.0819 -1.3050 -1.4400
18324TIP3    H276464   4.203   1.150   3.631  0.2788 -1.0657  1.3468
18325TIP3   OH276465   4.507   2.956  16.016 -0.0250 -0.4449 -0.4889
18325TIP3    H176466   4.581   2.963  16.076 -0.2656  0.4495 -0.2878
18325TIP3    H276467   4.532   3.010  15.941  0.2239 -1.4611 -1.1559
18326TIP3   OH276468   0.909   3.051   2.294 -0.3256  0.5773 -0.2431
18326TIP3    H176469   0.880   3.116   2.357 -2.5301  0.4065 -0.9728
18326TIP3    H276470   0.912   2.969   2.344 -3.8367  0.0712 -0.5601
18327TIP3   OH276471   0.305   2.749   1.482  0.0946 -0.5145  0.4933
18327TIP3    H176472   0.344   2.724   1.398 -0.3930 -0.1213  0.1496
18327TIP3    H276473   0.218   2.709   1.482  0.4123 -1.2326  1.1812
18328TIP3   OH276474   0.684   4.332   4.264  0.5280 -0.4781 -0.5187
18328TIP3    H176475   0.608   4.391   4.260  0.8127 -0.0322  0.4353
18328TIP3    H276476   0.755   4.386   4.298  1.2328 -0.9504 -1.1892
18329TIP3   OH276477   5.624   1.665   0.652  0.4143  0.1675 -0.2324
18329TIP3    H176478   5.582   1.742   0.689 -0.4416  0.1213 -1.0698
18329TIP3    H276479   5.582   1.653   0.567  0.9474 -0.8778 -0.3693
18330TIP3   OH276480   1.960   3.654   2.571  0.1529  0.8338 -0.2121
18330TIP3    H176481   1.973   3.592   2.643 -0.9053 -0.1509 -0.8463
18330TIP3    H276482   1.867   3.676   2.574  0.3551  1.7608 -0.5020
18331TIP3   OH276483   1.570   1.045  15.694 -0.7131 -0.4186 -0.1494
18331TIP3    H176484   1.602   1.077  15.779  0.0236 -2.1588  0.2657
18331TIP3    H276485   1.533   0.959  15.713  1.3024 -1.7617 -1.8903
18332TIP3   OH276486   3.267   6.380  13.866  0.1703 -0.4258 -0.1113
18332TIP3    H176487   3.203   6.449  13.855  0.4784 -0.3163 -1.3080
18332TIP3    H276488   3.302   6.364  13.778  1.4732 -0.7754  0.4357
18333TIP3   OH276489   1.476   3.085  14.222  0.3924 -0.0185  0.4388
18333TIP3    H176490   1.473   3.180  14.231  1.1297  0.0277  0.2524
18333TIP3    H276491   1.494   3.070  14.129  2.4192 -0.2841  0.8374
18334TIP3   OH276492   1.105   5.206  17.246 -0.1524 -0.5367 -0.4615
18334TIP3    H176493   1.068   5.125  17.279 -1.9630  1.0905  1.8016
18334TIP3    H276494   1.071   5.214  17.157 -1.0536 -1.5928 -0.2256
18335TIP3   OH276495   0.924   6.153  14.040 -0.2918  0.0268  0.4453
18335TIP3    H176496   0.913   6.231  14.095 -0.7351 -0.5288  1.1608
18335TIP3    H276497   0.845   6.102  14.056 -1.2501  0.6268 -2.0011
18336TIP3   OH276498   0.632   1.048   5.676  0.4644  0.2966  0.3908
18336TIP3    H176499   0.563   1.086   5.729  0.8636  0.8292  0.5365
18336TIP3    H276500   0.681   1.123   5.643 -0.8861  0.1137 -2.2838
18337TIP3   OH276501   6.249   4.509   3.338  0.6218  0.5375 -0.1635
18337TIP3    H176502   6.174   4.510   3.398  1.2946 -0.2993  0.7464
18337TIP3    H276503   6.323   4.480   3.393  1.3754  0.2604 -1.2827
18338TIP3   OH276504   1.976   2.511  12.876  0.3724  0.4230  0.7728
18338TIP3    H176505   2.039   2.498  12.806 -0.3628 -1.3054  0.3705
18338TIP3    H276506   2.016   2.469  12.953 -0.3490 -0.9480  0.4432
18339TIP3   OH276507   5.129   3.134  11.134  0.8581 -0.0745 -0.8358
18339TIP3    H176508   5.109   3.120  11.227 -0.3112  0.0223 -1.0547
18339TIP3    H276509   5.208   3.187  11.134 -0.7686  2.5722  0.2108
18340TIP3   OH276510   1.025   2.015   1.243 -0.0107  0.2715  0.2544
18340TIP3    H176511   0.947   1.974   1.281 -0.8124  2.2927  0.9425
18340TIP3    H276512   0.991   2.083   1.185  1.1929  1.5911  1.0147
18341TIP3   OH276513   3.212   3.514   5.052  0.2863 -0.1167 -0.2504
18341TIP3    H176514   3.216   3.453   5.126  0.3971  0.4949  0.2563
18341TIP3    H276515   3.128   3.494   5.010 -0.4813  0.5001  0.9109
18342TIP3   OH276516   0.121   0.134   3.508 -0.4119  0.5002  0.5681
18342TIP3    H176517   0.196   0.165   3.559 -0.6148  0.9947  0.5723
18342TIP3    H276518   0.159   0.098   3.428 -0.0774 -0.4447  1.1391
18343TIP3   OH276519   2.218   2.635   5.720  0.2205 -0.2264  0.5778
18343TIP3    H176520   2.230   2.648   5.814 -0.6198 -2.4404  1.0672
18343TIP3    H276521   2.181   2.547   5.713 -0.7606  0.2953 -1.7625
18344TIP3   OH276522   1.343   5.203  17.369  0.2021 -0.2510 -0.2373
18344TIP3    H176523   1.323   5.262  17.442 -0.1059  1.4261 -1.6003
18344TIP3    H276524   1.261   5.195  17.321  0.3585 -1.4658 -0.3318
18345TIP3   OH276525   2.000   0.520  12.452  0.3376  0.3014  0.3452
18345TIP3    H176526   2.057   0.593  12.474  0.1378 -0.0655  2.2919
18345TIP3    H276527   2.020   0.453  12.517  1.1481 -1.7887 -1.9007
18346TIP3   OH276528   4.891   1.950   3.387  0.0796  0.1789 -0.1048
18346TIP3    H176529   4.830   1.881   3.357 -0.8165  0.0162  1.9159
18346TIP3    H276530   4.900   1.934   3.481  0.0406  2.6809  0.3795
18347TIP3   OH276531   3.257   3.473   2.223 -0.0385  0.4933 -0.4429
18347TIP3    H176532   3.294   3.496   2.308  2.1587  1.1683 -1.4976
18347TIP3    H276533   3.162   3.472   2.237  0.2610 -2.7527  2.8194
18348TIP3   OH276534   4.782   5.714  11.714 -0.2041  0.2578 -0.9092
18348TIP3    H176535   4.733   5.632  11.704 -1.9124  0.7739  2.1423
18348TIP3    H276536   4.729   5.780  11.669 -0.9749  0.3590  0.1254
18349TIP3   OH276537   4.253   6.736  12.641 -0.4405 -0.4701 -0.4645
18349TIP3    H176538   4.243   6.645  12.613 -0.4824 -0.1120 -1.6638
18349TIP3    H276539   4.293   6.730  12.728 -0.7098 -1.6363 -0.4078
18350TIP3   OH276540   3.325   6.457  12.127 -0.1737  0.4143  0.6261
18350TIP3    H176541   3.251   6.421  12.078  1.5215  0.0514 -1.9053
18350TIP3    H276542   3.339   6.395  12.199  0.1111 -1.8217 -1.2174
18351TIP3   OH276543   3.564   1.514   5.573 -0.1991  0.4372 -0.3945
18351TIP3    H176544   3.659   1.504   5.573 -0.1617  0.7080 -1.3640
18351TIP3    H276545   3.541   1.521   5.666  0.6261 -0.5381 -0.0941
18352TIP3   OH276546   1.444   6.226  14.124 -0.0263  0.2294  0.1902
18352TIP3    H176547   1.385   6.264  14.189 -0.2352  2.2947 -1.1035
18352TIP3    H276548   1.529   6.267  14.143  0.1461  0.0440 -0.1725
18353TIP3   OH276549   1.459   2.328   5.145 -1.0496 -0.0144  0.6618
18353TIP3    H176550   1.503   2.246   5.169  0.1972  0.1275 -0.9593
18353TIP3    H276551   1.408   2.306   5.067  1.4892  1.2748 -1.5175
18354TIP3   OH276552   5.000   2.690  16.348  0.6939  0.2275  0.1654
18354TIP3    H176553   4.993   2.686  16.443  0.7824  2.4936  0.3233
18354TIP3    H276554   4.910   2.676  16.316  0.9003 -2.1165  0.4304
18355TIP3   OH276555   1.198   0.217  17.065 -0.1074  0.5004  0.2706
18355TIP3    H176556   1.176   0.172  16.984 -1.5926  1.2071  0.2460
18355TIP3    H276557   1.254   0.155  17.112 -1.2070 -0.9415 -0.2319
18356TIP3   OH276558   1.106   3.791   2.294 -0.8448  0.3333 -0.0297
18356TIP3    H176559   1.112   3.879   2.258  1.9639  0.2081 -0.1280
18356TIP3    H276560   1.028   3.792   2.350 -1.4360  2.5531 -0.8179
18357TIP3   OH276561   5.563   3.647  15.131 -0.3529 -0.4635 -1.0310
18357TIP3    H176562   5.611   3.584  15.077 -0.7951 -1.5788 -0.1831
18357TIP3    H276563   5.492   3.595  15.170 -0.3816  0.4303  0.1587
18358TIP3   OH276564   1.700   5.814   3.037  0.9376  0.2841  0.1073
18358TIP3    H176565   1.645   5.763   2.977  0.3680  1.0943 -0.0750
18358TIP3    H276566   1.738   5.749   3.095 -0.4006 -0.2849  0.3812
18359TIP3   OH276567   6.576   1.987   4.447  0.2581 -0.7169  0.1688
18359TIP3    H176568   6.586   1.947   4.360  2.4054  0.4115 -0.1703
18359TIP3    H276569   6.573   2.081   4.430 -1.5760 -0.5280  1.1984
18360TIP3   OH276570   0.534   2.536   1.047  0.6672  0.6562  0.1424
18360TIP3    H176571   0.491   2.453   1.070 -1.0599  1.3772 -0.3505
18360TIP3    H276572   0.463   2.592   1.015  1.8759  2.1783  0.0158
18361TIP3   OH276573   6.002   1.101   6.437 -0.3765 -0.0034 -0.1943
18361TIP3    H176574   6.073   1.143   6.485  0.3862 -0.1795 -1.1307
18361TIP3    H276575   6.031   1.102   6.346 -2.4055  1.6358 -0.9175
18362TIP3   OH276576   4.640   4.782  15.839  0.6247  0.2662  0.1954
18362TIP3    H176577   4.632   4.799  15.745  0.7816 -0.5188  0.0352
18362TIP3    H276578   4.571   4.718  15.858  1.7431 -0.9520  0.2542
18363TIP3   OH276579   5.682   6.328  12.379 -0.2186 -0.3777  0.3133
18363TIP3    H176580   5.707   6.244  12.418  1.9479  0.2525  0.4244
18363TIP3    H276581   5.728   6.330  12.295 -2.9171 -0.6789 -1.2963
18364TIP3   OH276582   1.962   6.471   1.162  0.0703  0.1444  0.4844
18364TIP3    H176583   1.918   6.395   1.125  0.2837 -0.0202  0.5638
18364TIP3    H276584   2.041   6.481   1.109 -0.3842  0.8345 -0.0724
18365TIP3   OH276585   3.886   6.480   2.857  1.0112 -0.2157 -0.0346
18365TIP3    H176586   3.909   6.421   2.929  0.6922  0.9698  1.0593
18365TIP3    H276587   3.969   6.518   2.829  0.7906  2.2302  2.3098
18366TIP3   OH276588   3.554   2.325  13.397  0.1708  0.4523 -0.1073
18366TIP3    H176589   3.634   2.286  13.433  1.0343  0.2682 -2.1112
18366TIP3    H276590   3.518   2.258  13.339 -1.5170  0.5089  0.8185
18367TIP3   OH276591   2.057   3.372   5.133 -0.0431  0.3801 -0.3301
18367TIP3    H176592   2.086   3.369   5.224  1.2341 -1.8345 -0.7361
18367TIP3    H276593   2.131   3.410   5.085 -0.6913  1.4952 -0.4754
18368TIP3   OH276594   0.673   3.479   3.898  0.1530  0.3142  0.4042
18368TIP3    H176595   0.717   3.549   3.947  0.1070  0.3881  0.3410
18368TIP3    H276596   0.737   3.408   3.896  0.1970  0.3503  0.4773
18369TIP3   OH276597   1.038   3.505  12.506  0.1679  0.0522  0.2399
18369TIP3    H176598   1.102   3.448  12.464  1.2165  1.5940 -0.3034
18369TIP3    H276599   0.965   3.509  12.443  0.1596 -0.5140  0.2035
18370TIP3   OH276600   2.731   3.425  14.799  0.4881 -0.7182 -0.0674
18370TIP3    H176601   2.778   3.483  14.739 -1.7959  1.8064  0.3897
18370TIP3    H276602   2.686   3.362  14.742  0.8546 -0.3310 -0.7905
18371TIP3   OH276603   6.012   3.108   3.147 -0.0288  0.8659 -0.7088
18371TIP3    H176604   6.015   3.185   3.204  0.9436  1.1618 -1.1437
18371TIP3    H276605   5.986   3.036   3.205  0.8758  1.1782  0.1085
18372TIP3   OH276606   5.656   6.564  11.640 -0.6843  0.2633 -0.1082
18372TIP3    H176607   5.663   6.648  11.594  0.6828 -0.9224 -2.2193
18372TIP3    H276608   5.747   6.534  11.649 -1.1378 -0.8816  0.8496
18373TIP3   OH276609   1.406   3.422   3.942  0.4617  0.5921  0.6300
18373TIP3    H176610   1.428   3.359   4.010  3.2980  1.6729  0.8464
18373TIP3    H276611   1.413   3.507   3.984 -0.3285  1.1984 -0.4013
18374TIP3   OH276612   3.789   5.359  15.094  0.1300  0.0536 -0.0829
18374TIP3    H176613   3.708   5.338  15.140  0.3572  2.0015  1.3470
18374TIP3    H276614   3.765   5.432  15.036  1.0984  1.7532  1.5253
18375TIP3   OH276615   1.697   1.587  12.366 -0.3869 -0.2024 -0.2068
18375TIP3    H176616   1.635   1.593  12.293 -0.8298  1.7340  0.2521
18375TIP3    H276617   1.740   1.673  12.368  0.7189 -0.7482  0.8662
18376TIP3   OH276618   0.880   0.919  11.210  0.2741  0.0279  0.0157
18376TIP3    H176619   0.943   0.848  11.197 -0.6131 -0.6751 -0.6103
18376TIP3    H276620   0.901   0.982  11.141 -0.6034 -0.8905 -1.1384
18377TIP3   OH276621   3.942   6.746   1.534  0.6542 -0.4448 -0.3294
18377TIP3    H176622   4.009   6.701   1.585  0.8937 -0.9025 -1.0381
18377TIP3    H276623   3.985   6.825   1.501  0.3402  0.1344  0.6104
18378TIP3   OH276624   5.579   5.062   2.046  0.5743  0.6026 -0.0211
18378TIP3    H176625   5.575   5.000   1.974 -0.4649 -0.0263  0.5513
18378TIP3    H276626   5.531   5.139   2.015 -2.0355 -0.5816  0.8118
18379TIP3   OH276627   3.524   1.072  13.064 -0.8168  0.0983  0.2062
18379TIP3    H176628   3.481   1.055  12.980 -0.0914 -0.1969 -0.1132
18379TIP3    H276629   3.479   1.015  13.126  0.0889 -1.3419 -0.4198
18380TIP3   OH276630   0.574   4.706  14.563  0.1248 -0.0904  0.7001
18380TIP3    H176631   0.528   4.744  14.488  1.8088  0.9767  0.1301
18380TIP3    H276632   0.622   4.632  14.526  0.7078  0.2458  0.7623
18381TIP3   OH276633   6.493   0.556  14.762 -0.6197  0.2994  0.2214
18381TIP3    H176634   6.552   0.530  14.693 -2.0146 -0.0833 -0.8726
18381TIP3    H276635   6.530   0.638  14.796  0.0207  0.5615 -1.0595
18382TIP3   OH276636   5.112   3.500  13.028  0.2413 -0.2656  0.2684
18382TIP3    H176637   5.152   3.457  12.953 -1.6116  1.0276 -1.5535
18382TIP3    H276638   5.055   3.433  13.066 -1.5849  0.0407 -1.7387
18383TIP3   OH276639   2.791   0.265   1.514 -0.1737 -0.4042 -0.4054
18383TIP3    H176640   2.832   0.211   1.445 -0.5154 -1.3671  0.1292
18383TIP3    H276641   2.699   0.271   1.488 -0.3394 -0.9190  0.0592
18384TIP3   OH276642   4.827   2.660   1.658 -0.4780  0.2179 -0.1355
18384TIP3    H176643   4.772   2.583   1.645 -0.8098 -0.0429  2.3885
18384TIP3    H276644   4.775   2.732   1.622 -1.8499 -0.2449  0.8335
18385TIP3   OH276645   5.872   0.412  14.698 -0.0351  0.2644 -0.1137
18385TIP3    H176646   5.904   0.329  14.735  0.7484  0.0211 -1.2953
18385TIP3    H276647   5.845   0.463  14.775  1.5528 -0.2273  0.8178
18386TIP3   OH276648   4.503   2.367  15.943  0.0188 -0.4720 -0.3043
18386TIP3    H176649   4.467   2.300  16.002 -0.2430  1.2286  1.5582
18386TIP3    H276650   4.587   2.390  15.981 -0.8829  1.8473  0.4345
18387TIP3   OH276651   2.141   1.235   3.626 -0.4486 -0.3017  0.2241
18387TIP3    H176652   2.220   1.288   3.611 -1.1909  0.1625 -2.7434
18387TIP3    H276653   2.072   1.299   3.644 -0.4673 -0.6253  1.4172
18388TIP3   OH276654   3.176   4.940   4.587 -0.1366 -0.6012  0.0798
18388TIP3    H176655   3.112   4.870   4.598  0.7136 -1.3268  0.5700
18388TIP3    H276656   3.257   4.896   4.562 -0.1013  0.4058 -1.7624
18389TIP3   OH276657   3.988   0.523   0.367  0.7508  0.4301  0.1238
18389TIP3    H176658   4.029   0.559   0.446  1.7020 -0.1299 -0.1078
18389TIP3    H276659   3.909   0.577   0.356  0.4659  0.3731  1.5769
18390TIP3   OH276660   4.713   0.950   2.749 -0.0829  0.3212 -0.1302
18390TIP3    H176661   4.712   0.883   2.818  0.0886 -0.1404 -0.5616
18390TIP3    H276662   4.672   0.907   2.674  1.2861  0.2013 -0.8502
18391TIP3   OH276663   6.312   6.226  16.941  0.5714  0.2867  0.1898
18391TIP3    H176664   6.383   6.203  16.881  1.5831  0.6682  1.1985
18391TIP3    H276665   6.240   6.168  16.917  1.9345 -1.6293  0.4966
18392TIP3   OH276666   4.901   1.513   2.380 -0.2837  0.1840 -0.4495
18392TIP3    H176667   4.939   1.573   2.316  0.2692  0.7531  0.3845
18392TIP3    H276668   4.962   1.516   2.454 -1.2803  0.0965  0.3945
18393TIP3   OH276669   5.495   1.333   0.947  0.0909  0.1185 -0.6543
18393TIP3    H176670   5.414   1.382   0.933 -0.8455 -0.8818  0.9140
18393TIP3    H276671   5.487   1.257   0.889 -0.6728 -0.5811  0.3325
18394TIP3   OH276672   4.126   5.382   1.928  0.7616 -0.4250  0.7067
18394TIP3    H176673   4.032   5.361   1.928  0.5260  0.4901  2.1202
18394TIP3    H276674   4.143   5.412   1.839 -0.3500 -0.4238  0.4724
18395TIP3   OH276675   2.313   5.830  13.576 -0.0163 -0.4274  0.3892
18395TIP3    H176676   2.235   5.869  13.615  0.9976  0.5906  1.4728
18395TIP3    H276677   2.386   5.879  13.613  1.0848 -0.0723 -2.0528
18396TIP3   OH276678   6.402   4.901  15.065 -0.2108  0.0973 -0.1071
18396TIP3    H176679   6.401   4.952  14.984  1.6634  0.4328  0.0290
18396TIP3    H276680   6.479   4.934  15.113  0.8008 -2.4908  0.2212
18397TIP3   OH276681   1.673   1.055   1.905 -0.0324 -0.0239  0.0697
18397TIP3    H176682   1.662   1.139   1.949  0.5294  0.5974 -0.9284
18397TIP3    H276683   1.604   1.053   1.839 -0.1079 -0.4005  0.1556
18398TIP3   OH276684   6.088   6.288  10.855  0.8729 -0.0935 -0.0632
18398TIP3    H176685   6.036   6.355  10.898  0.5770 -0.8466  0.7832
18398TIP3    H276686   6.062   6.206  10.898  2.3615 -0.5571  0.0189
18399TIP3   OH276687   2.980   6.181   5.772  0.3040  0.1309 -0.1266
18399TIP3    H176688   2.900   6.231   5.756  0.3723  1.0511  2.0205
18399TIP3    H276689   2.951   6.090   5.774 -0.3651  0.3027 -1.0252
18400TIP3   OH276690   3.881   4.956   4.546  0.2646 -0.4618 -0.2464
18400TIP3    H176691   3.836   4.981   4.465  0.4072 -1.5313 -0.6679
18400TIP3    H276692   3.964   5.003   4.543 -0.3987  0.7922  0.0871
18401TIP3   OH276693   3.846   1.706  11.556  0.4726 -0.3988  0.3003
18401TIP3    H176694   3.754   1.715  11.531  0.4809  1.7738  0.8669
18401TIP3    H276695   3.856   1.612  11.575 -0.9769 -1.1060 -2.0441
18402TIP3   OH276696   6.414   4.674  11.287  0.1296 -0.4523 -0.0500
18402TIP3    H176697   6.397   4.665  11.193 -0.4854  0.1462  0.0024
18402TIP3    H276698   6.436   4.766  11.299 -1.3432 -0.1678  0.6282
18403TIP3   OH276699   3.981   4.095  12.751 -0.2238 -0.2269 -0.3924
18403TIP3    H176700   4.068   4.120  12.784 -0.6036  0.7268 -0.0714
18403TIP3    H276701   3.959   4.165  12.689 -0.2883 -1.0581 -1.3447
18404TIP3   OH276702   5.197   6.193  13.229  0.2590 -0.0075  0.5158
18404TIP3    H176703   5.222   6.102  13.239  0.2964 -0.0341  0.1752
18404TIP3    H276704   5.159   6.199  13.141 -1.7283 -0.1624  1.2977
18405TIP3   OH276705   6.357   5.338   5.869  0.0951 -0.4158 -0.9966
18405TIP3    H176706   6.359   5.293   5.785  2.0685 -0.8275 -0.7732
18405TIP3    H276707   6.447   5.333   5.901  0.0342  2.2835 -0.2038
18406TIP3   OH276708   1.662   4.324  13.666 -0.3385  0.1314 -0.1687
18406TIP3    H176709   1.604   4.388  13.709 -2.2725 -1.4962 -0.2110
18406TIP3    H276710   1.740   4.321  13.722 -2.2199 -0.9695  2.6319
18407TIP3   OH276711   3.753   4.738   5.804  0.0470 -0.8894 -0.7290
18407TIP3    H176712   3.843   4.712   5.825 -0.0665 -0.6077  0.1280
18407TIP3    H276713   3.699   4.684   5.861 -0.3225 -0.9181 -1.1057
18408TIP3   OH276714   1.196   1.009  15.696  0.3884  0.9556  0.0014
18408TIP3    H176715   1.174   0.928  15.649  0.4843 -0.1874  1.8394
18408TIP3    H276716   1.258   1.054  15.639 -0.7553  0.4505 -1.7079
18409TIP3   OH276717   1.770   4.824   5.316  0.7391  0.3455 -0.2102
18409TIP3    H176718   1.798   4.761   5.249  0.0470  0.3768 -0.5359
18409TIP3    H276719   1.785   4.779   5.399  0.2235 -0.2745 -0.4418
18410TIP3   OH276720   4.101   2.867   0.693  0.2252  0.1566 -0.2070
18410TIP3    H176721   4.044   2.812   0.639  0.2483 -2.2800  2.0412
18410TIP3    H276722   4.183   2.872   0.644 -0.6599  0.4587 -1.7003
18411TIP3   OH276723   3.124   0.181  12.734  0.4690 -0.7217  0.3005
18411TIP3    H176724   3.119   0.125  12.657  0.3266 -1.0689  0.5594
18411TIP3    H276725   3.144   0.268  12.699 -0.6258 -0.6602 -0.2089
18412TIP3   OH276726   3.593   0.275  14.812  0.3054  0.4399 -0.3826
18412TIP3    H176727   3.572   0.185  14.788  0.5099  0.7722 -1.9303
18412TIP3    H276728   3.670   0.296  14.760  1.4865  0.8761  1.4689
18413TIP3   OH276729   0.287   2.427  15.554 -0.4711 -0.3808  0.4106
18413TIP3    H176730   0.273   2.462  15.466 -0.8949 -1.0923  0.1905
18413TIP3    H276731   0.315   2.337  15.540 -1.1007 -0.6799  1.0234
18414TIP3   OH276732   0.139   1.837  14.328  0.1996 -0.6106  0.6463
18414TIP3    H176733   0.078   1.765  14.344 -0.7289  0.1159  0.4622
18414TIP3    H276734   0.102   1.883  14.253 -0.8265  1.7310  2.4507
18415TIP3   OH276735   1.422   6.330   1.910 -0.0432  0.0983 -1.0344
18415TIP3    H176736   1.425   6.421   1.879  0.6003  0.3337 -0.3206
18415TIP3    H276737   1.460   6.334   1.998  0.8191 -1.0014 -1.3373
18416TIP3   OH276738   5.755   1.167   6.331  0.1097  0.0795 -0.1320
18416TIP3    H176739   5.792   1.255   6.320 -0.1854  0.3176  0.6816
18416TIP3    H276740   5.824   1.118   6.376  0.2756 -0.1077 -0.5906
18417TIP3   OH276741   4.767   2.590   2.502 -0.4151 -0.3212  0.2873
18417TIP3    H176742   4.713   2.511   2.503  0.0102 -0.6049  0.8932
18417TIP3    H276743   4.709   2.657   2.464 -0.9622 -0.7829  0.2898
18418TIP3   OH276744   2.920   1.986   6.203  0.1807  0.3715  0.1338
18418TIP3    H176745   2.989   1.960   6.264 -0.0001  2.7042  1.4373
18418TIP3    H276746   2.844   1.935   6.229  0.0434  1.4804  2.1119
18419TIP3   OH276747   0.951   1.233   5.655 -0.0940  0.4795  0.0321
18419TIP3    H176748   0.991   1.309   5.613 -0.2106  0.7333  0.3725
18419TIP3    H276749   0.911   1.268   5.734 -0.2132  0.0742  0.1539
18420TIP3   OH276750   0.063   4.963   0.346 -0.3223 -0.0041 -0.5772
18420TIP3    H176751   0.081   4.872   0.370  1.0266  0.3462 -0.1764
18420TIP3    H276752   0.116   4.979   0.268  0.1305  0.6921 -0.1356
18421TIP3   OH276753   6.086   1.977   3.531  0.0794  0.5886  0.0557
18421TIP3    H176754   6.055   1.950   3.618 -0.2740 -0.2842 -0.3355
18421TIP3    H276755   6.163   2.033   3.550  0.8775 -0.7367  0.8904
18422TIP3   OH276756   3.161   2.178  17.282 -0.3311  0.1907  0.6636
18422TIP3    H176757   3.107   2.125  17.341 -1.5408  3.1148  2.4089
18422TIP3    H276758   3.099   2.219  17.222  0.3876  0.7573  0.2811
18423TIP3   OH276759   6.377   3.727   4.247 -0.2084  0.4843  0.5618
18423TIP3    H176760   6.300   3.768   4.287 -0.2508  0.6052  0.3593
18423TIP3    H276761   6.374   3.636   4.277 -0.2841  0.5531  0.7665
18424TIP3   OH276762   2.571   3.089  17.440  0.2843 -0.5254  0.3835
18424TIP3    H176763   2.507   3.158  17.425 -0.5615 -1.0812  1.2604
18424TIP3    H276764   2.623   3.086  17.360 -0.0850  0.6664  0.0723
18425TIP3   OH276765   6.106   2.714  13.136 -0.5693  0.1549 -0.1508
18425TIP3    H176766   6.179   2.740  13.079 -0.9046  1.4935 -0.0151
18425TIP3    H276767   6.106   2.619  13.133  0.3310  0.1610 -1.2389
18426TIP3   OH276768   2.115   6.394   5.404  0.1187  0.3206 -0.4654
18426TIP3    H176769   2.118   6.407   5.309 -0.6511 -0.3740 -0.5985
18426TIP3    H276770   2.047   6.328   5.417  0.9977 -0.4220  0.4951
18427TIP3   OH276771   3.485   4.901   1.761  0.2213 -0.1741  0.0912
18427TIP3    H176772   3.505   4.952   1.840 -1.9978 -1.1210  1.3584
18427TIP3    H276773   3.446   4.964   1.701  1.7695  0.5200 -0.2380
18428TIP3   OH276774   5.637   2.057   3.904  0.4304  0.3228  0.3173
18428TIP3    H176775   5.629   1.969   3.866  0.5111  1.1387 -1.7282
18428TIP3    H276776   5.691   2.045   3.982  0.6732 -1.3861 -0.0745
18429TIP3   OH276777   2.518   2.581   5.702 -0.5600  0.5491  0.5050
18429TIP3    H176778   2.446   2.634   5.736 -1.0921  0.7581 -0.8563
18429TIP3    H276779   2.581   2.644   5.668 -0.3006  0.3505  0.6218
18430TIP3   OH276780   0.713   6.628   1.399  0.2369  0.4249 -0.3313
18430TIP3    H176781   0.707   6.582   1.316  0.7128  2.6523 -1.6959
18430TIP3    H276782   0.640   6.690   1.398 -0.0745  0.1163  1.1784
18431TIP3   OH276783   0.082   4.445  15.583  0.1806  0.0072  0.3163
18431TIP3    H176784   0.111   4.530  15.549  2.1242 -0.8081 -0.2583
18431TIP3    H276785  -0.004   4.431  15.544  0.4822  1.0637 -0.7865
18432TIP3   OH276786   1.136   0.611   2.978  0.4683  0.1487  0.4571
18432TIP3    H176787   1.085   0.578   3.052  0.1379 -0.7695 -0.1595
18432TIP3    H276788   1.078   0.676   2.937  1.1129  1.5412  1.6617
18433TIP3   OH276789   5.212   4.304  14.280 -0.1172  0.1470 -0.6815
18433TIP3    H176790   5.258   4.379  14.241  0.5917  0.6375  1.0187
18433TIP3    H276791   5.267   4.278  14.354 -2.0755  0.1322  0.8459
18434TIP3   OH276792   5.720   1.911   0.159 -1.0666 -0.2250 -0.6492
18434TIP3    H176793   5.692   1.852   0.089  1.8269 -1.5664 -0.8061
18434TIP3    H276794   5.808   1.939   0.133 -0.7410  0.9209  1.4681
18435TIP3   OH276795   0.270   1.249   5.147  0.1067  0.4503  0.8583
18435TIP3    H176796   0.203   1.318   5.147  1.4832  1.8605  2.5900
18435TIP3    H276797   0.229   1.176   5.194 -0.6887  0.7592  0.6687
18436TIP3   OH276798   5.710   0.492   2.306  0.1185  0.0625  0.2403
18436TIP3    H176799   5.699   0.446   2.223  2.1471 -0.3418  0.1342
18436TIP3    H276800   5.724   0.583   2.281  0.3291  0.0086  0.1595
18437TIP3   OH276801   3.779   1.211   3.345 -0.5241  0.6727 -0.4810
18437TIP3    H176802   3.821   1.282   3.393 -1.5617  2.3130 -1.9041
18437TIP3    H276803   3.829   1.204   3.264 -0.3471 -0.3513 -0.3022
18438TIP3   OH276804   6.216   3.557   1.430  0.0278  0.7010  0.3103
18438TIP3    H176805   6.243   3.472   1.395  0.9566  0.5633  1.2974
18438TIP3    H276806   6.133   3.539   1.475 -0.0447  0.4319  0.0761
18439TIP3   OH276807   3.548   3.476   1.362  0.3813 -0.0504  0.4442
18439TIP3    H176808   3.571   3.517   1.445 -1.1638  1.4196  0.1936
18439TIP3    H276809   3.500   3.397   1.387  1.6814 -0.7057  0.9286
18440TIP3   OH276810   6.725   5.556  12.891 -0.1641 -0.0116  0.0128
18440TIP3    H176811   6.770   5.531  12.810  1.6970  1.0059  0.6778
18440TIP3    H276812   6.730   5.477  12.946 -0.4914 -0.3663 -0.4561
18441TIP3   OH276813   3.111   2.625   5.870 -0.1133 -0.2075  0.4280
18441TIP3    H176814   3.038   2.591   5.920  1.6654 -1.4799  2.3396
18441TIP3    H276815   3.175   2.554   5.869  1.8420  1.4571  0.4618
18442TIP3   OH276816   5.152   5.718  14.758 -0.2428  0.0892 -0.7372
18442TIP3    H176817   5.167   5.807  14.725  0.0734  1.0055  1.6687
18442TIP3    H276818   5.221   5.705  14.823 -1.1681 -1.3611  0.0085
18443TIP3   OH276819   3.320   4.703   2.567  0.0658 -0.1425  0.2635
18443TIP3    H176820   3.302   4.762   2.640 -0.5135 -0.5130  0.4279
18443TIP3    H276821   3.408   4.670   2.584  0.4917  0.8656  0.0318
18444TIP3   OH276822   1.669   6.127   2.058  0.0402  0.2293 -0.1650
18444TIP3    H176823   1.645   6.164   1.974 -1.3202  1.0245  0.5399
18444TIP3    H276824   1.667   6.201   2.119 -0.4515 -0.5755  0.8330
18445TIP3   OH276825   0.029   5.533   2.456 -0.0174  0.3694  0.5139
18445TIP3    H176826   0.028   5.574   2.369  0.5099 -3.1676 -1.3624
18445TIP3    H276827  -0.048   5.568   2.500 -0.7608  1.7049 -1.6837
18446TIP3   OH276828   4.388   2.878  11.918 -0.0521  0.5143 -0.2546
18446TIP3    H176829   4.311   2.825  11.934 -1.7806  2.7452 -0.6672
18446TIP3    H276830   4.417   2.907  12.005  0.0696  0.0260 -0.1312
18447TIP3   OH276831   0.381   2.171  11.072  0.1319 -0.3110  0.8759
18447TIP3    H176832   0.407   2.151  10.982 -1.3351 -0.0852  0.3844
18447TIP3    H276833   0.427   2.253  11.092  2.1145 -1.4077  1.1129
18448TIP3   OH276834   5.651   0.639  17.413 -0.2805 -0.1245 -0.1698
18448TIP3    H176835   5.744   0.656  17.428 -0.4818  0.1277  0.8747
18448TIP3    H276836   5.606   0.690  17.480 -1.1493 -0.7057 -0.2868
18449TIP3   OH276837   2.391   4.571   4.136  0.5450 -0.6523  0.2819
18449TIP3    H176838   2.479   4.533   4.144  1.4909  1.4392  0.4308
18449TIP3    H276839   2.358   4.538   4.052  1.5221 -1.3520  0.1554
18450TIP3   OH276840   6.338   1.236   3.068 -0.6071 -0.0067 -0.2667
18450TIP3    H176841   6.308   1.162   3.120 -1.0848  1.0861  1.0666
18450TIP3    H276842   6.289   1.228   2.986 -2.8402  0.3879  0.9402
18451TIP3   OH276843   1.319   6.643  14.762 -0.3932 -0.1188 -0.1646
18451TIP3    H176844   1.365   6.671  14.683  1.2832  0.3017  0.8999
18451TIP3    H276845   1.371   6.571  14.796  0.7248  1.6610  2.1650
18452TIP3   OH276846   2.555   5.172  14.246 -0.2089  0.8830 -0.1891
18452TIP3    H176847   2.604   5.090  14.239  0.1580  0.8303  2.2754
18452TIP3    H276848   2.586   5.224  14.171  2.7263  0.3729  0.5294
18453TIP3   OH276849   5.208   0.771   2.151 -0.0614  0.1569  0.0774
18453TIP3    H176850   5.214   0.716   2.073  2.2433 -0.3112  0.5331
18453TIP3    H276851   5.146   0.725   2.208 -0.6760 -0.2281 -0.8774
18454TIP3   OH276852   4.434   3.824  13.920  0.8643 -0.4398  0.0806
18454TIP3    H176853   4.410   3.841  14.011  0.6407 -0.1897 -0.0205
18454TIP3    H276854   4.470   3.907  13.889  0.0531 -0.2274 -0.3325
18455TIP3   OH276855   0.267   0.544   4.696  0.3356  0.1173  0.2536
18455TIP3    H176856   0.354   0.525   4.661  0.0273 -2.0571  0.5255
18455TIP3    H276857   0.278   0.539   4.791  0.0363  0.4392  0.3058
18456TIP3   OH276858   1.281   0.778   1.884 -0.6358 -0.1541  0.0866
18456TIP3    H176859   1.319   0.727   1.812 -0.1908  1.2188 -0.6832
18456TIP3    H276860   1.289   0.720   1.960 -0.1288 -1.2284 -0.7438
18457TIP3   OH276861   1.879   3.560  12.391 -0.8059 -0.1001 -0.4991
18457TIP3    H176862   1.798   3.606  12.415 -0.7714  0.7353 -1.8573
18457TIP3    H276863   1.859   3.520  12.306 -0.5368 -1.9235  0.2454
18458TIP3   OH276864   1.869   6.552  15.183 -0.8088  0.4154  0.2225
18458TIP3    H176865   1.844   6.578  15.271 -0.4315  0.3210  0.3586
18458TIP3    H276866   1.877   6.635  15.135 -0.5274  0.5009  0.4102
18459TIP3   OH276867   3.786   1.231  14.031  0.1665  0.4811  0.1989
18459TIP3    H176868   3.804   1.319  14.063 -0.3322  1.1643 -1.3309
18459TIP3    H276869   3.772   1.179  14.111  2.6924  1.2305  1.2296
18460TIP3   OH276870   4.531   3.675  16.814  0.1047  0.3407  0.2364
18460TIP3    H176871   4.477   3.747  16.846  1.0196  1.1112  0.0995
18460TIP3    H276872   4.603   3.718  16.768  1.6172 -0.5814  1.6167
18461TIP3   OH276873   2.993   3.002   5.646  0.2361 -0.0217 -0.1544
18461TIP3    H176874   3.026   3.028   5.732 -2.1075  0.2205  0.7678
18461TIP3    H276875   3.062   3.026   5.585  1.6621  0.5132  1.5721
18462TIP3   OH276876   0.443   3.882  17.346  0.0671 -0.2930  0.3363
18462TIP3    H176877   0.373   3.871  17.411  0.5740 -1.7561  0.6693
18462TIP3    H276878   0.397   3.880  17.262 -0.3032 -1.5400  0.5410
18463TIP3   OH276879   6.771   5.753   6.225  0.2882 -0.3505  0.2699
18463TIP3    H176880   6.738   5.664   6.223  0.3642 -0.3811 -1.4044
18463TIP3    H276881   6.694   5.808   6.212  0.4541 -0.2743 -0.4524
18464TIP3   OH276882   0.978   5.637  11.492 -0.3005 -0.1472 -0.0131
18464TIP3    H176883   0.925   5.586  11.430 -0.5543 -0.0329  0.1074
18464TIP3    H276884   0.956   5.728  11.473  2.4818  0.1858 -2.4126
18465TIP3   OH276885   2.431   5.796  12.595 -0.1885 -0.1743 -0.1934
18465TIP3    H176886   2.469   5.803  12.508  2.2484 -0.3127  0.7849
18465TIP3    H276887   2.385   5.711  12.595 -0.3708 -0.0876 -1.3612
18466TIP3   OH276888   6.054   3.632  14.408  1.1547 -0.5109 -0.2603
18466TIP3    H176889   6.017   3.671  14.488  2.0034  0.3910 -0.2928
18466TIP3    H276890   6.087   3.706  14.358  2.7742 -1.2556 -0.3504
18467TIP3   OH276891   3.483   0.862   3.953  0.3268  0.0089 -0.0762
18467TIP3    H176892   3.523   0.782   3.921 -0.1616 -1.0819  1.8642
18467TIP3    H276893   3.430   0.834   4.028 -2.2508  1.6902 -1.0943
18468TIP3   OH276894   1.394   4.064   5.824  0.3704 -0.6243  0.1400
18468TIP3    H176895   1.406   4.000   5.894 -3.3681  0.1182  1.7171
18468TIP3    H276896   1.318   4.032   5.776 -0.4736  1.6663 -0.1449
18469TIP3   OH276897   2.414   0.002   4.250  0.4500  0.4967  0.1535
18469TIP3    H176898   2.426   0.009   4.155  0.9973  0.1071  0.1894
18469TIP3    H276899   2.348   0.069   4.271  0.8750  1.0990 -0.3911
18470TIP3   OH276900   6.356   5.142   4.304  0.0192  0.1653  0.2742
18470TIP3    H176901   6.281   5.082   4.303  0.0454  0.0654 -2.6354
18470TIP3    H276902   6.408   5.114   4.379 -0.6393 -2.5958 -0.2047
18471TIP3   OH276903   5.092   6.240   3.519  0.5474  0.2051  0.7315
18471TIP3    H176904   5.039   6.162   3.505  1.2867 -0.1533 -0.2481
18471TIP3    H276905   5.149   6.244   3.442  0.8551  1.4451  0.9985
18472TIP3   OH276906   4.144   1.057   1.010 -0.5094 -0.4916 -0.3583
18472TIP3    H176907   4.155   1.108   0.930 -1.5550  0.5304  0.1177
18472TIP3    H276908   4.194   1.105   1.076  0.9823 -1.7401 -0.5234
18473TIP3   OH276909   2.175   0.824   1.595  0.7415  0.0807 -0.1273
18473TIP3    H176910   2.132   0.906   1.619  0.9469  0.6288 -1.5506
18473TIP3    H276911   2.121   0.788   1.525 -0.5287 -2.0871  1.8087
18474TIP3   OH276912   4.285   1.311   3.020 -0.7343 -0.4644 -0.0998
18474TIP3    H176913   4.258   1.265   2.941 -0.2550 -0.5498 -0.2154
18474TIP3    H276914   4.378   1.290   3.030 -0.5106  0.4509 -0.1420
18475TIP3   OH276915   5.895   0.557   0.076  0.2436 -0.0437 -0.2714
18475TIP3    H176916   5.966   0.622   0.070 -2.2285  2.7737 -1.3016
18475TIP3    H276917   5.878   0.550   0.170  1.4182 -0.2655 -0.0568
18476TIP3   OH276918   5.259   5.382   6.765 -0.3433  0.3449 -0.3894
18476TIP3    H176919   5.272   5.359   6.673 -1.7772 -0.0613 -0.5209
18476TIP3    H276920   5.226   5.302   6.806  0.1903  0.5485  0.4659
18477TIP3   OH276921   5.796   1.925   2.867  0.3854  0.5836 -0.6425
18477TIP3    H176922   5.851   1.871   2.811  1.9169  1.2134  0.1971
18477TIP3    H276923   5.780   1.872   2.945  0.7307  0.8101 -0.4147
18478TIP3   OH276924   0.573   5.728   5.112  0.2710 -0.2582  0.2306
18478TIP3    H176925   0.578   5.652   5.170 -0.3833  0.6841  1.5790
18478TIP3    H276926   0.628   5.705   5.037 -0.5083 -2.3514  0.2346
18479TIP3   OH276927   2.436   5.206   1.821  0.3015  0.3021 -0.0682
18479TIP3    H176928   2.420   5.295   1.788  0.1256 -0.1673 -1.2910
18479TIP3    H276929   2.429   5.150   1.744 -3.4134 -1.2812  1.2141
18480TIP3   OH276930   5.902   0.754  11.259 -0.5560 -0.1534  0.2128
18480TIP3    H176931   5.866   0.691  11.197 -2.0145 -0.9305  1.7396
18480TIP3    H276932   5.983   0.785  11.219 -0.9859 -1.2763 -1.6276
18481TIP3   OH276933   4.395   1.223  10.340  0.4821  0.4373  0.5982
18481TIP3    H176934   4.330   1.166  10.382  1.4054 -1.9942 -1.0077
18481TIP3    H276935   4.358   1.311  10.347 -0.7522 -0.2119  3.7677
18482TIP3   OH276936   3.951   1.637  15.606 -0.2166 -0.1321 -0.1686
18482TIP3    H176937   4.025   1.581  15.582 -0.2349  0.6744 -2.3084
18482TIP3    H276938   3.887   1.624  15.536 -0.6901  1.6963 -0.1310
18483TIP3   OH276939   2.595   1.452  13.216 -0.0864  0.0254 -0.2714
18483TIP3    H176940   2.520   1.512  13.219  0.8427  1.2023  1.1771
18483TIP3    H276941   2.595   1.410  13.302  0.2549 -0.8408 -0.6834
18484TIP3   OH276942   4.942   5.276  13.057 -0.2700 -0.3664  0.2396
18484TIP3    H176943   4.936   5.234  12.972  4.1182  0.1745 -0.5722
18484TIP3    H276944   4.997   5.217  13.110 -0.5211  0.6430  1.7107
18485TIP3   OH276945   0.827   4.819   4.300 -0.1081  0.2374  0.1089
18485TIP3    H176946   0.732   4.806   4.294 -0.0290 -0.2114 -0.2284
18485TIP3    H276947   0.861   4.778   4.220  0.2652  1.4680 -0.3772
18486TIP3   OH276948   3.459   4.308  12.866  0.3810 -0.1142  0.4805
18486TIP3    H176949   3.395   4.256  12.915 -0.2669 -0.6402 -0.8833
18486TIP3    H276950   3.407   4.379  12.827  0.9427  0.4681  0.7733
18487TIP3   OH276951   5.022   0.471  11.565  0.5821  0.0165  0.1396
18487TIP3    H176952   5.022   0.406  11.636  3.0913  0.0055  0.2218
18487TIP3    H276953   5.040   0.554  11.609  0.1399  0.3405 -0.2812
18488TIP3   OH276954   5.648   5.861  15.254  0.2167 -0.3487  0.3455
18488TIP3    H176955   5.585   5.901  15.314 -0.5712  1.3778 -1.5014
18488TIP3    H276956   5.644   5.917  15.175  1.0471 -2.5827 -1.3797
18489TIP3   OH276957   6.021   5.262  13.856  0.7784 -0.4598  0.5477
18489TIP3    H176958   6.097   5.222  13.898  0.4094  1.3543  3.1219
18489TIP3    H276959   5.952   5.257  13.922 -0.5607  0.3823 -0.7357
18490TIP3   OH276960   4.358   3.620   5.503 -0.7406  0.3063  0.4293
18490TIP3    H176961   4.416   3.581   5.568  0.5308 -1.8924 -1.8688
18490TIP3    H276962   4.416   3.653   5.435 -2.0719 -0.2156 -1.0221
18491TIP3   OH276963   5.961   2.577  14.302 -0.0748 -0.0973  0.5254
18491TIP3    H176964   5.990   2.663  14.334 -0.3194  0.8259 -1.5326
18491TIP3    H276965   5.998   2.572  14.213 -1.7084 -1.2437 -0.1286
18492TIP3   OH276966   4.104   2.027  14.190 -0.1975 -0.0554  0.0415
18492TIP3    H176967   4.176   2.014  14.129  0.3477 -0.0850  0.6783
18492TIP3    H276968   4.133   2.099  14.246 -1.6127  1.4731 -1.1061
18493TIP3   OH276969   4.422   0.663  13.843  0.0749  0.3114 -0.0527
18493TIP3    H176970   4.332   0.690  13.826 -0.2611  0.2571  1.4963
18493TIP3    H276971   4.415   0.596  13.911  1.2731  0.1555 -0.0480
18494TIP3   OH276972   5.201   0.287   2.250  0.3575  0.1940 -0.0641
18494TIP3    H176973   5.211   0.311   2.342  1.9494  1.4503 -0.5256
18494TIP3    H276974   5.257   0.348   2.203 -2.9727  1.9362 -2.2177
18495TIP3   OH276975   4.580   2.074   0.998  0.2859  0.3659  0.3183
18495TIP3    H176976   4.657   2.086   0.942 -0.4296 -2.1096 -1.3078
18495TIP3    H276977   4.617   2.058   1.085  1.5103  1.3557  0.0139
18496TIP3   OH276978   6.429   5.129  13.384 -0.3780 -0.0146  0.0967
18496TIP3    H176979   6.386   5.043  13.386  2.3848 -1.5044  0.0819
18496TIP3    H276980   6.449   5.148  13.476  1.5296 -0.8044 -0.1181
18497TIP3   OH276981   5.393   4.762   3.135  0.3357 -0.7051 -0.1999
18497TIP3    H176982   5.387   4.769   3.230  0.7835  2.3437 -0.3015
18497TIP3    H276983   5.313   4.805   3.103  1.4350  0.7002 -1.1734
18498TIP3   OH276984   4.048   0.777   1.230  0.2352 -0.3131  0.1932
18498TIP3    H176985   4.016   0.829   1.303 -0.7815  0.5099 -0.8033
18498TIP3    H276986   4.129   0.738   1.262  0.2067  0.6418  1.4953
18499TIP3   OH276987   4.230   4.370   3.751 -0.2905  0.6351 -0.5761
18499TIP3    H176988   4.137   4.381   3.729 -0.2035  1.0148 -0.7601
18499TIP3    H276989   4.241   4.417   3.833 -0.1858  0.8807 -0.7311
18500TIP3   OH276990   2.073   2.713  11.548 -0.3743 -0.4235  0.3080
18500TIP3    H176991   2.011   2.706  11.620 -1.6358 -1.1706 -0.7975
18500TIP3    H276992   2.023   2.687  11.470  0.8751  0.5454 -0.8742
18501TIP3   OH276993   6.376   3.176  15.140 -0.4339 -0.0516  0.4288
18501TIP3    H176994   6.300   3.235  15.135  0.8068  1.5919 -0.1666
18501TIP3    H276995   6.385   3.156  15.233 -0.8310  0.8079  0.6674
18502TIP3   OH276996   3.363   5.705   0.034  0.3240 -0.0785 -0.3067
18502TIP3    H176997   3.278   5.674   0.005 -0.9808  0.6486  2.4559
18502TIP3    H276998   3.403   5.630   0.077 -0.9787  0.7422  2.5095
18503TIP3   OH276999   4.626   1.994  14.017  0.4654  0.2510 -0.1912
18503TIP3    H177000   4.657   2.007  13.928 -1.1442 -0.6329 -0.9132
18503TIP3    H277001   4.648   1.903  14.037 -0.1026  0.1406 -0.0709
18504TIP3   OH277002   6.599   2.658  13.255 -0.2056 -0.0162  0.0082
18504TIP3    H177003   6.610   2.696  13.341 -1.2346 -0.6041  0.4236
18504TIP3    H277004   6.562   2.728  13.202 -0.6155  0.0245  0.3449
18505TIP3   OH277005   4.137   1.095   5.782  0.1568 -0.2979  0.7888
18505TIP3    H177006   4.102   1.015   5.823 -0.4233  0.9912  2.9790
18505TIP3    H277007   4.059   1.149   5.767  0.5013 -0.2547 -1.0677
18506TIP3   OH277008   0.306   1.341  10.796  0.1558  0.6303 -0.4636
18506TIP3    H177009   0.294   1.342  10.701 -1.6058 -0.6269 -0.3174
18506TIP3    H277010   0.368   1.411  10.814  0.1584  1.1999 -2.4897
18507TIP3   OH277011   5.219   6.669   1.855 -0.2191 -0.1967  0.0361
18507TIP3    H177012   5.194   6.751   1.896 -0.2120  0.0056 -0.3611
18507TIP3    H277013   5.140   6.639   1.810  0.2115  0.4173 -1.1739
18508TIP3   OH277014   1.816   4.829   1.138 -0.2826 -0.5306 -0.3390
18508TIP3    H177015   1.730   4.788   1.150 -0.0683 -0.8872  0.0029
18508TIP3    H277016   1.869   4.794   1.209  0.9004 -2.3450 -2.0361
18509TIP3   OH277017   6.006   0.858   0.630 -0.2639  0.4137 -0.1062
18509TIP3    H177018   6.047   0.816   0.706  2.1935  0.1845 -1.4461
18509TIP3    H277019   6.042   0.946   0.629  0.3631  0.1622 -1.4252
18510TIP3   OH277020   4.317   1.401   4.445 -0.0161 -0.3287  0.0568
18510TIP3    H177021   4.306   1.470   4.510  1.5088  1.8094 -1.8016
18510TIP3    H277022   4.411   1.383   4.444  0.0047 -0.2690 -1.5286
18511TIP3   OH277023   2.659   4.684   2.330 -0.2347 -0.1488 -0.1786
18511TIP3    H177024   2.609   4.718   2.404 -0.7589  0.9426 -0.9963
18511TIP3    H277025   2.700   4.604   2.363 -0.9133  0.0049  1.1078
18512TIP3   OH277026   4.665   2.641   3.565 -0.0120 -0.4362  0.1894
18512TIP3    H177027   4.608   2.623   3.639  0.1615  0.0666  0.4556
18512TIP3    H277028   4.749   2.664   3.606  0.5499 -1.7230 -0.2040
18513TIP3   OH277029   1.465   1.294  12.393  0.4819 -0.0696 -0.2254
18513TIP3    H177030   1.466   1.326  12.303 -1.4281 -1.0490 -0.6410
18513TIP3    H277031   1.431   1.367  12.445  1.0768  0.3098 -0.3571
18514TIP3   OH277032   4.855   1.191   2.320  0.3282  0.2592 -0.4104
18514TIP3    H177033   4.798   1.130   2.273  0.7631 -0.8702  0.5002
18514TIP3    H277034   4.811   1.276   2.312 -0.9596 -0.4094 -0.5819
18515TIP3   OH277035   0.795   3.736   5.104  0.5539  0.0540 -0.3892
18515TIP3    H177036   0.784   3.777   5.190  1.7569  0.0698 -0.2348
18515TIP3    H277037   0.868   3.782   5.064  1.0125 -0.9987 -0.7927
18516TIP3   OH277038   5.358   4.476  14.890  0.3437 -0.0303 -0.1204
18516TIP3    H177039   5.415   4.478  14.966 -0.7058 -0.0116  0.6926
18516TIP3    H277040   5.274   4.510  14.922 -0.2887 -0.5768 -1.1397
18517TIP3   OH277041   6.163   1.287   0.916 -0.3256 -0.4363 -0.4552
18517TIP3    H177042   6.249   1.327   0.930 -0.1827 -0.4578 -1.2045
18517TIP3    H277043   6.100   1.351   0.950 -0.0260 -0.2580 -0.2409
18518TIP3   OH277044   4.057   6.720  13.030  0.4708 -0.0332  0.1874
18518TIP3    H177045   4.040   6.768  12.949  0.4325  0.7475  0.6469
18518TIP3    H277046   3.971   6.694  13.062  0.4418  0.1608  0.2704
18519TIP3   OH277047   2.831   5.440  16.975 -0.5330 -0.1464  0.3153
18519TIP3    H177048   2.742   5.405  16.971 -0.2824 -0.7614 -0.0133
18519TIP3    H277049   2.820   5.530  17.005 -1.2926 -0.1176 -0.0278
18520TIP3   OH277050   0.020   2.014  15.036 -0.2522 -0.3043 -0.2824
18520TIP3    H177051   0.088   2.044  14.977  0.3894 -0.4850  0.3545
18520TIP3    H277052  -0.016   1.936  14.994 -0.7980  0.3889 -1.1290
18521TIP3   OH277053   5.043   2.770  14.472 -1.1889 -0.2284  0.2061
18521TIP3    H177054   5.082   2.723  14.546 -2.1028 -1.1950  0.0937
18521TIP3    H277055   4.989   2.838  14.512  1.3848  1.8849  0.3667
18522TIP3   OH277056   1.945   3.850  17.102  0.3003 -0.8156 -0.0767
18522TIP3    H177057   1.930   3.756  17.107 -0.4339 -0.7563 -0.9965
18522TIP3    H277058   1.958   3.876  17.193 -1.5835 -1.4833  0.4318
18523TIP3   OH277059   0.259   5.132   2.067 -0.2298 -0.7293 -0.6671
18523TIP3    H177060   0.263   5.197   2.136  0.9882 -1.7424  0.2653
18523TIP3    H277061   0.176   5.149   2.022 -1.3814 -0.4623  1.4501
18524TIP3   OH277062   4.245   2.496  10.629  0.0115 -0.6615 -0.1582
18524TIP3    H177063   4.339   2.481  10.618 -0.1203 -0.8488 -1.0790
18524TIP3    H277064   4.225   2.461  10.716  1.0568  0.6807  0.6555
18525TIP3   OH277065   5.343   1.452  14.121  0.1432 -0.2779  0.1496
18525TIP3    H177066   5.381   1.485  14.040 -1.4741  0.9354 -0.1672
18525TIP3    H277067   5.271   1.396  14.093 -0.6099  0.3833  0.7361
18526TIP3   OH277068   5.285   4.431   2.852 -0.3216  0.1852  0.3592
18526TIP3    H177069   5.247   4.440   2.939 -2.5853 -0.4632 -0.5011
18526TIP3    H277070   5.235   4.492   2.798  0.1619 -0.3848 -0.7527
18527TIP3   OH277071   2.346   5.692   0.096  0.3441  0.3161 -0.1442
18527TIP3    H177072   2.403   5.749   0.043  0.4684  0.5305  0.2093
18527TIP3    H277073   2.377   5.706   0.186  0.4959 -0.4560 -0.0731
18528TIP3   OH277074   6.008   3.835  12.024 -0.2731 -0.1690 -0.2080
18528TIP3    H177075   5.963   3.811  11.943  0.0028 -0.3414 -0.3136
18528TIP3    H277076   5.971   3.776  12.090  0.6086 -1.1125 -0.5242
18529TIP3   OH277077   2.273   6.370   0.478  0.0699  0.2568 -0.1972
18529TIP3    H177078   2.273   6.275   0.479 -0.1752  0.1301 -3.4067
18529TIP3    H277079   2.364   6.395   0.494  0.0495 -0.4476  1.1335
18530TIP3   OH277080   0.565   1.138   3.564  0.0751  0.0947  0.4176
18530TIP3    H177081   0.615   1.210   3.604 -0.8303  1.2195 -0.4193
18530TIP3    H277082   0.587   1.143   3.471  1.7974 -2.2013  0.6053
18531TIP3   OH277083   5.161   4.729   1.510  0.0066  0.3011  0.3487
18531TIP3    H177084   5.131   4.667   1.445  0.0420  0.2387  0.3914
18531TIP3    H277085   5.213   4.677   1.572  1.0879  0.5734 -0.2977
18532TIP3   OH277086   4.656   0.461  16.454  0.2910  0.2526  0.7162
18532TIP3    H177087   4.581   0.478  16.396  0.3049 -1.5205  0.1058
18532TIP3    H277088   4.616   0.428  16.535  0.3176 -3.8983 -0.7091
18533TIP3   OH277089   0.377   4.172  12.601 -0.2393 -0.4431 -0.5100
18533TIP3    H177090   0.293   4.148  12.561 -0.7280 -0.1152  0.3040
18533TIP3    H277091   0.353   4.225  12.677  0.7669  1.1992 -1.2968
18534TIP3   OH277092   3.044   1.257  12.135  0.1162 -0.6406  0.0568
18534TIP3    H177093   3.072   1.300  12.054  0.2308  2.6574  1.6662
18534TIP3    H277094   2.966   1.208  12.110  0.8251 -0.6953 -2.2592
18535TIP3   OH277095   0.705   3.143   2.707 -0.0297  0.4015  0.3169
18535TIP3    H177096   0.632   3.083   2.690 -0.9954  1.9298 -1.4498
18535TIP3    H277097   0.727   3.130   2.799 -2.8894  0.1930  1.0698
18536TIP3   OH277098   4.603   0.002   4.685  0.1533  0.6688 -0.2257
18536TIP3    H177099   4.521   0.050   4.674 -1.0469 -1.2838 -0.2281
18536TIP3    H277100   4.651   0.019   4.604 -1.0006  0.4908 -0.9751
18537TIP3   OH277101   6.488   2.710   1.268 -0.5523 -0.7636  0.1231
18537TIP3    H177102   6.547   2.736   1.339 -0.3477 -0.3425 -0.1988
18537TIP3    H277103   6.534   2.734   1.188 -0.7750 -1.2597 -0.1559
18538TIP3   OH277104   3.818   4.508   2.117 -0.2654  0.5821  0.7282
18538TIP3    H177105   3.724   4.502   2.100 -0.0236 -0.2353 -0.5476
18538TIP3    H277106   3.849   4.575   2.057  0.0243  0.5290  0.8171
18539TIP3   OH277107   4.914   3.895  16.375  0.1458 -0.3376 -0.0738
18539TIP3    H177108   4.989   3.851  16.414  0.4775 -0.4860 -0.8489
18539TIP3    H277109   4.902   3.975  16.426  0.5381 -0.5452  0.3434
18540TIP3   OH277110   6.701   4.033   3.396 -0.1727 -0.1815 -0.0853
18540TIP3    H177111   6.672   4.124   3.388 -1.2449 -0.4183  0.9851
18540TIP3    H277112   6.676   3.993   3.313  2.3725  0.9978 -1.5708
18541TIP3   OH277113   0.837   6.618  14.545  0.1780 -0.3416 -0.2957
18541TIP3    H177114   0.910   6.565  14.515  1.0140  0.3348  0.4999
18541TIP3    H277115   0.870   6.708  14.544 -0.7937  0.0278 -0.3730
18542TIP3   OH277116   6.255   5.859   6.319 -0.5079  0.4608 -0.0651
18542TIP3    H177117   6.233   5.939   6.367  0.1675  0.7180 -0.1768
18542TIP3    H277118   6.188   5.796   6.346 -1.1147  1.0978 -0.0697
18543TIP3   OH277119   2.849   3.816  15.844  0.7096 -0.5225  0.1811
18543TIP3    H177120   2.889   3.900  15.820 -0.7348 -0.0749 -0.8270
18543TIP3    H277121   2.923   3.760  15.865  1.9377  0.1363 -1.9535
18544TIP3   OH277122   0.314   6.084  10.939 -0.2499  0.1881  0.1460
18544TIP3    H177123   0.268   6.125  11.013 -0.9716  0.0847 -0.2406
18544TIP3    H277124   0.406   6.089  10.963 -0.3745  1.3684  0.4451
18545TIP3   OH277125   0.288   5.410  17.207 -0.0411 -0.0225  0.1435
18545TIP3    H177126   0.242   5.329  17.184 -0.1429 -0.0224  0.3517
18545TIP3    H277127   0.268   5.424  17.299 -0.5987  0.6204 -0.0700
18546TIP3   OH277128   0.054   3.788  17.075  0.2658 -0.2300  0.5680
18546TIP3    H177129   0.113   3.712  17.072  0.6928  0.1144 -0.5152
18546TIP3    H277130   0.051   3.818  16.984 -2.7305 -1.0976  0.2923
18547TIP3   OH277131   3.064   2.988  12.794 -0.2200  0.0846 -0.2912
18547TIP3    H177132   2.976   2.978  12.758 -0.4643 -2.0173  0.7080
18547TIP3    H277133   3.121   2.943  12.732 -0.1604 -0.4428  0.1357
18548TIP3   OH277134   3.821   5.987  15.844  0.0173 -0.1620 -0.3828
18548TIP3    H177135   3.728   6.002  15.822  0.5543  0.0758 -2.7381
18548TIP3    H277136   3.819   5.917  15.909 -1.9298  1.5183  1.5329
18549TIP3   OH277137   3.349   1.625   3.626 -0.7966 -0.3014 -0.5728
18549TIP3    H177138   3.432   1.620   3.674 -0.3557 -0.3909 -1.3244
18549TIP3    H277139   3.367   1.685   3.554 -1.6201  0.2874 -0.3005
18550TIP3   OH277140   4.536   5.042   6.599  0.2242 -0.8466 -0.1752
18550TIP3    H177141   4.530   5.123   6.548 -0.7372  0.1494  1.4289
18550TIP3    H277142   4.603   5.060   6.665  0.0202 -1.3606  0.1774
18551TIP3   OH277143   1.934   4.210  12.345  0.0276 -0.0951  0.3037
18551TIP3    H177144   1.843   4.214  12.315  0.4385 -1.2830 -1.2046
18551TIP3    H277145   1.942   4.124  12.386  1.0768 -1.1170 -1.8690
18552TIP3   OH277146   2.948   3.271  16.873  0.5575 -0.2669  0.2638
18552TIP3    H177147   3.008   3.268  16.947  1.1274 -2.1615 -0.2169
18552TIP3    H277148   2.874   3.217  16.900  0.4338 -0.3717 -0.2706
18553TIP3   OH277149   4.587   0.348   0.063  0.0749  0.3538 -0.0872
18553TIP3    H177150   4.665   0.402   0.075 -1.1744  2.2648 -0.0561
18553TIP3    H277151   4.566   0.357  -0.030 -1.2712  1.6145  0.3086
18554TIP3   OH277152   3.093   1.737  15.111 -0.0452  0.5053  0.1484
18554TIP3    H177153   3.023   1.783  15.064 -0.0798  0.7343  0.4178
18554TIP3    H277154   3.058   1.648  15.124  0.0812  0.3584 -0.4993
18555TIP3   OH277155   5.478   0.809   4.360  0.8879 -0.1679 -0.7464
18555TIP3    H177156   5.477   0.884   4.301  1.4420  0.6256  0.2051
18555TIP3    H277157   5.532   0.743   4.316  0.6362  0.1074 -1.4645
18556TIP3   OH277158   5.162   0.257   4.145  0.4936  0.3418  0.3423
18556TIP3    H177159   5.204   0.339   4.171  0.2020  0.4232  0.5604
18556TIP3    H277160   5.141   0.269   4.052  2.4406 -0.3290 -0.2303
18557TIP3   OH277161   0.985   4.687   4.078  0.0606 -0.2008  0.5110
18557TIP3    H177162   0.957   4.620   4.140  1.4951  1.1307  2.7703
18557TIP3    H277163   1.081   4.683   4.079  0.1810  1.5337  0.3870
18558TIP3   OH277164   2.035   6.615  11.937 -0.0302 -1.0917  0.2316
18558TIP3    H177165   2.096   6.547  11.908  0.6517  0.1810 -1.4696
18558TIP3    H277166   1.966   6.614  11.870 -0.1526 -0.2998  0.3380
18559TIP3   OH277167   2.289   4.245  14.229 -0.0387 -0.1900  0.0804
18559TIP3    H177168   2.199   4.215  14.223 -0.1918  0.4082 -0.6673
18559TIP3    H277169   2.335   4.199  14.160 -0.3430  1.4769 -1.2974
18560TIP3   OH277170   1.054   5.009  12.442 -0.1074 -0.2558  0.1022
18560TIP3    H177171   1.087   5.081  12.389 -1.3551  0.2822  0.0247
18560TIP3    H277172   1.127   4.987  12.500  0.2553  1.1472  0.2100
18561TIP3   OH277173   2.713   6.580   4.865 -0.9064  0.3205 -0.2614
18561TIP3    H177174   2.627   6.554   4.833 -0.0304 -1.0340 -1.6432
18561TIP3    H277175   2.758   6.498   4.883  0.4358  0.9789 -0.4911
18562TIP3   OH277176   6.192   2.714  16.619  0.2817  0.6909 -0.0232
18562TIP3    H177177   6.123   2.650  16.637  0.2425  0.8016  0.2270
18562TIP3    H277178   6.272   2.662  16.612  0.3916  0.7005  1.0569
18563TIP3   OH277179   3.716   3.965  16.154 -0.0806 -0.1934  0.0590
18563TIP3    H177180   3.750   3.949  16.066 -1.1089  1.2367 -0.6352
18563TIP3    H277181   3.745   4.054  16.176 -0.3172 -0.3157  0.9208
18564TIP3   OH277182   5.309   1.030  11.732  0.2404  0.2758 -0.7591
18564TIP3    H177183   5.237   1.065  11.681 -0.8558  0.4959  0.8455
18564TIP3    H277184   5.364   0.984  11.669 -2.1534 -1.3152 -1.8259
18565TIP3   OH277185   6.699   2.132   0.123 -0.3691  0.1661  0.4403
18565TIP3    H177186   6.654   2.073   0.064  1.7776  1.8352 -3.2176
18565TIP3    H277187   6.672   2.220   0.095  1.8573  1.0647  0.8741
18566TIP3   OH277188   0.161   0.581  15.085  0.1961 -0.1109 -0.0723
18566TIP3    H177189   0.173   0.519  15.013 -1.8094 -0.2275 -0.3634
18566TIP3    H277190   0.210   0.659  15.057 -2.1752  0.6215 -2.6406
18567TIP3   OH277191   6.605   2.186   1.545 -0.1997  0.1631  0.1554
18567TIP3    H177192   6.512   2.180   1.567  0.1227 -1.4237  1.1396
18567TIP3    H277193   6.642   2.102   1.571  1.1891  0.0885 -1.8487
18568TIP3   OH277194   3.587   1.992   3.248 -0.3325 -0.1749  0.3582
18568TIP3    H177195   3.578   2.078   3.289 -0.0988  0.0723 -0.0985
18568TIP3    H277196   3.658   2.002   3.185 -1.4773 -0.1982 -0.9984
18569TIP3   OH277197   6.009   3.600  13.295 -0.1819  0.5262  0.3982
18569TIP3    H177198   5.976   3.647  13.372 -0.1817  1.3068 -0.0622
18569TIP3    H277199   6.103   3.591  13.311 -0.4701 -1.0825  1.3887
18570TIP3   OH277200   0.943   6.314  16.615 -0.1064 -0.3608  0.4376
18570TIP3    H177201   1.032   6.311  16.582 -0.6561 -1.9349 -1.0275
18570TIP3    H277202   0.935   6.237  16.672 -1.0380 -1.3264 -0.9364
18571TIP3   OH277203   6.744   0.896   2.598 -0.6966  0.2868 -0.0477
18571TIP3    H177204   6.791   0.826   2.644 -2.5553  0.6169  2.5978
18571TIP3    H277205   6.696   0.852   2.528 -0.0191 -0.7158  0.1029
18572TIP3   OH277206   2.580   6.067   0.540 -0.1829  0.1088 -0.1024
18572TIP3    H177207   2.623   6.059   0.455 -0.4299 -0.5419 -0.1718
18572TIP3    H277208   2.588   6.160   0.563  2.3232 -0.1909  0.4581
18573TIP3   OH277209   0.511   0.693  15.792  0.7508 -1.0548 -0.0738
18573TIP3    H177210   0.437   0.704  15.732  0.1817 -0.5009  0.7119
18573TIP3    H277211   0.472   0.700  15.879  1.8721  0.2205  0.3522
18574TIP3   OH277212   1.931   4.035   1.175 -0.1269 -0.0682  0.3569
18574TIP3    H177213   1.939   3.941   1.159  2.5749 -0.1047  1.3280
18574TIP3    H277214   1.866   4.065   1.112 -0.5164 -2.4619 -0.4767
18575TIP3   OH277215   6.128   4.997  17.032 -0.2501  0.5749 -0.8374
18575TIP3    H177216   6.147   5.053  16.957 -1.5787 -0.4399 -1.9872
18575TIP3    H277217   6.061   5.045  17.082  0.5437  1.1917 -0.3420
18576TIP3   OH277218   3.110   1.451   4.688 -0.1843 -0.2522 -0.6502
18576TIP3    H177219   3.138   1.360   4.700 -0.5276  0.0222  4.4531
18576TIP3    H277220   3.191   1.499   4.673  0.8226 -0.9114  1.9916
18577TIP3   OH277221   0.251   1.778   2.299 -0.4147 -0.1368 -0.2824
18577TIP3    H177222   0.338   1.812   2.279 -0.5961  0.3391 -0.2682
18577TIP3    H277223   0.229   1.815   2.384 -0.2433 -1.0154  0.1624
18578TIP3   OH277224   6.561   5.832   3.691  0.3242 -0.5824  0.4621
18578TIP3    H177225   6.538   5.747   3.655 -0.1620  0.1626 -1.0475
18578TIP3    H277226   6.638   5.814   3.746  0.7790 -1.8432 -0.5286
18579TIP3   OH277227   3.157   2.257  14.820  0.0322 -0.3387  0.1383
18579TIP3    H177228   3.092   2.307  14.771 -1.1581  0.8244  2.7479
18579TIP3    H277229   3.241   2.292  14.790 -0.6088  0.0685 -1.2913
18580TIP3   OH277230   1.779   4.549  16.461 -0.5523  0.0983  0.3629
18580TIP3    H177231   1.800   4.614  16.395  0.3198  0.3768  0.9012
18580TIP3    H277232   1.855   4.491  16.463 -0.8186 -0.2470  0.7088
18581TIP3   OH277233   2.363   0.346  13.363  0.2558 -0.6408  0.4791
18581TIP3    H177234   2.450   0.307  13.356  0.4066 -0.1893 -0.2630
18581TIP3    H277235   2.375   0.422  13.419  0.5856  0.1008 -0.5807
18582TIP3   OH277236   4.749   4.807   1.327 -0.7978  1.0193  0.1871
18582TIP3    H177237   4.783   4.890   1.292  0.1635  1.7440  2.6216
18582TIP3    H277238   4.814   4.742   1.303 -0.6800  1.2942 -0.2472
18583TIP3   OH277239   2.202   0.498   3.530  0.1020 -0.4255 -0.2610
18583TIP3    H177240   2.179   0.585   3.562  2.6461  1.4261 -2.8981
18583TIP3    H277241   2.272   0.468   3.588 -2.9154 -2.4107  2.7083
18584TIP3   OH277242   5.778   5.783   5.807  0.2985 -0.3836  0.1458
18584TIP3    H177243   5.756   5.864   5.851 -0.9502 -0.9877  0.6806
18584TIP3    H277244   5.820   5.810   5.725 -2.4675  0.8754 -0.9686
18585TIP3   OH277245   0.615   0.368   0.652  0.5957  0.5175  0.1424
18585TIP3    H177246   0.660   0.347   0.570 -0.0139 -0.2241 -0.0155
18585TIP3    H277247   0.525   0.388   0.626  0.7714  1.8748  0.4666
18586TIP3   OH277248   1.686   6.743  11.904 -0.2907 -0.5833 -0.0771
18586TIP3    H177249   1.706   6.730  11.811  0.8839 -0.6577  0.1709
18586TIP3    H277250   1.756   6.799  11.936 -0.2162 -1.2485  0.9525
18587TIP3   OH277251   3.730   2.421  17.251  0.2338 -0.3440  0.1748
18587TIP3    H177252   3.714   2.477  17.175  0.2976 -0.4272  0.1003
18587TIP3    H277253   3.680   2.341  17.233  0.7896 -0.6394 -0.0981
18588TIP3   OH277254   0.801   0.895  14.150 -0.1480 -0.1840 -0.5587
18588TIP3    H177255   0.852   0.903  14.230 -0.0600  0.9810 -0.7173
18588TIP3    H277256   0.760   0.809  14.157 -2.0810  0.8030  1.8986
18589TIP3   OH277257   6.509   2.381  11.809  0.4142  0.3020 -0.0365
18589TIP3    H177258   6.591   2.341  11.838  0.7077  0.0024 -1.2060
18589TIP3    H277259   6.492   2.451  11.872  1.7494  0.5875  0.0337
18590TIP3   OH277260   0.336   1.432   3.078  0.4065 -0.1676  0.0328
18590TIP3    H177261   0.415   1.464   3.034 -0.4615  0.9057 -0.8079
18590TIP3    H277262   0.365   1.355   3.126  1.9561  0.1776 -0.2936
18591TIP3   OH277263   5.737   6.349   2.172 -0.4799  0.4284  0.1441
18591TIP3    H177264   5.685   6.416   2.216 -2.0754 -0.4339 -0.3884
18591TIP3    H277265   5.731   6.272   2.227 -0.6224  0.0125 -0.4394
18592TIP3   OH277266   4.676   2.990  12.893  0.4491 -0.2660 -0.2855
18592TIP3    H177267   4.635   3.061  12.844 -0.2352  0.0834  0.7785
18592TIP3    H277268   4.761   2.978  12.850  1.5717  2.7020  0.8533
18593TIP3   OH277269   2.123   2.172   4.059 -0.0311 -0.0384 -0.3040
18593TIP3    H177270   2.085   2.085   4.071  1.3927 -0.9884 -2.2377
18593TIP3    H277271   2.110   2.192   3.967  1.9222  0.6705 -0.4711
18594TIP3   OH277272   3.241   6.138  11.754  0.4582 -0.3224 -0.1773
18594TIP3    H177273   3.314   6.198  11.765  0.5919 -0.5960  0.4680
18594TIP3    H277274   3.280   6.051  11.760 -0.1274 -0.4847  1.7818
18595TIP3   OH277275   6.773   2.617   5.295 -0.1537 -0.2057 -0.5819
18595TIP3    H177276   6.851   2.672   5.291  0.0303 -0.4096  0.1108
18595TIP3    H277277   6.768   2.589   5.386 -1.7816  0.8727 -0.3113
18596TIP3   OH277278   6.518   0.978  14.181  0.6149  0.2881 -0.1476
18596TIP3    H177279   6.602   1.023  14.184  0.7397  0.0231  0.9564
18596TIP3    H277280   6.465   1.022  14.247  0.6752 -1.0178  0.8247
18597TIP3   OH277281   2.057   5.934   4.021 -0.8592 -0.2391 -0.3355
18597TIP3    H177282   2.001   6.007   3.994  1.1463  0.7772 -2.0424
18597TIP3    H277283   2.131   5.976   4.066 -0.0929 -1.2529 -0.6090
18598TIP3   OH277284   0.206   3.750   1.684 -0.2543  0.0071 -0.2527
18598TIP3    H177285   0.205   3.685   1.614  1.0265  0.6818 -0.9149
18598TIP3    H277286   0.272   3.814   1.658 -0.4295  0.7901  1.1065
18599TIP3   OH277287   1.722   1.801   4.607  0.3805 -0.3591 -0.0273
18599TIP3    H177288   1.660   1.872   4.589 -0.7151 -0.8542  1.5781
18599TIP3    H277289   1.716   1.744   4.531 -3.1956 -1.7754  1.1109
18600TIP3   OH277290   4.527   3.559   5.743  0.3791 -0.1196 -0.0200
18600TIP3    H177291   4.617   3.590   5.753 -0.1610  1.2605  0.8258
18600TIP3    H277292   4.510   3.510   5.823  0.8691 -1.7630 -0.8767
18601TIP3   OH277293   6.395   2.661  14.559  0.0814  0.2641  0.4356
18601TIP3    H177294   6.453   2.585  14.552  1.7266  1.4295  0.8644
18601TIP3    H277295   6.410   2.694  14.648 -1.5633  0.3779  0.7014
18602TIP3   OH277296   3.388   5.709   0.543 -0.0651  0.0950 -0.1326
18602TIP3    H177297   3.355   5.644   0.604  1.3252 -0.3947  0.1350
18602TIP3    H277298   3.310   5.742   0.497 -0.9133 -0.8327  0.6233
18603TIP3   OH277299   6.106   0.612   3.852  0.3728  0.6891 -0.0763
18603TIP3    H177300   6.048   0.551   3.897 -0.2252  2.4957  1.7963
18603TIP3    H277301   6.143   0.562   3.779 -3.2231 -0.6844 -1.1549
18604TIP3   OH277302   0.449   1.217   3.199 -0.0664  0.4602 -0.0112
18604TIP3    H177303   0.544   1.208   3.188 -0.1182 -0.3202  0.1613
18604TIP3    H277304   0.438   1.240   3.292 -0.1830 -2.1252  0.6984
18605TIP3   OH277305   6.161   1.548   3.374  0.0845  0.3066 -0.2079
18605TIP3    H177306   6.069   1.541   3.403  0.0767  0.9265 -0.0591
18605TIP3    H277307   6.165   1.494   3.295 -0.9821  2.0248 -1.5208
18606TIP3   OH277308   4.352   3.408  13.100 -0.1774  0.0560  0.2756
18606TIP3    H177309   4.409   3.392  13.025 -0.0014  0.1179  0.3959
18606TIP3    H277310   4.366   3.333  13.158 -1.3583 -0.7102 -0.3884
18607TIP3   OH277311   0.744   4.050   2.726 -0.1573  0.7066 -0.5918
18607TIP3    H177312   0.832   4.037   2.760 -0.1276  0.3076 -0.8162
18607TIP3    H277313   0.731   4.144   2.728  0.4608  0.8042 -1.0237
18608TIP3   OH277314   5.792   0.419   0.962 -0.1755 -0.5892  0.1653
18608TIP3    H177315   5.783   0.473   1.041  0.0249 -1.2562  0.6538
18608TIP3    H277316   5.834   0.477   0.898  0.3951 -0.2881  0.8003
18609TIP3   OH277317   3.129   3.642  14.461 -0.2625  0.8503 -0.3134
18609TIP3    H177318   3.159   3.651  14.370  0.7301  0.3951 -0.0515
18609TIP3    H277319   3.208   3.617  14.509 -1.3863 -2.3845  0.0889
18610TIP3   OH277320   2.920   3.120   0.624  0.1386  0.1129 -0.2149
18610TIP3    H177321   2.965   3.060   0.564  1.3233  1.6343 -0.9356
18610TIP3    H277322   2.974   3.121   0.702  0.4519  0.6903 -0.4374
18611TIP3   OH277323   3.634   3.466   0.812  0.0179 -0.3987 -0.1491
18611TIP3    H177324   3.597   3.384   0.778  0.0302 -0.6546  0.4426
18611TIP3    H277325   3.727   3.461   0.791  0.2275 -1.0512  0.8473
18612TIP3   OH277326   0.776   0.835   2.250 -0.5026  0.0766  0.4564
18612TIP3    H177327   0.805   0.876   2.169 -1.0007 -0.7234 -0.1460
18612TIP3    H277328   0.697   0.786   2.225 -1.4879  0.9459  1.7092
18613TIP3   OH277329   1.109   2.320  16.841  0.0499 -0.3123 -0.0224
18613TIP3    H177330   1.063   2.237  16.833  0.7390 -0.6525 -0.5432
18613TIP3    H277331   1.096   2.346  16.933 -0.2779 -0.9234  0.1094
18614TIP3   OH277332   1.349   3.492   2.859  0.3598  0.0755  0.4364
18614TIP3    H177333   1.415   3.435   2.818 -0.5367  0.5225 -1.7568
18614TIP3    H277334   1.368   3.579   2.824 -1.9108  0.0602 -1.0294
18615TIP3   OH277335   6.312   0.168  13.086  0.0757  0.1282 -0.3030
18615TIP3    H177336   6.268   0.088  13.059 -0.2902  0.1738  0.1402
18615TIP3    H277337   6.247   0.237  13.074 -0.0842  0.1513  0.6464
18616TIP3   OH277338   2.938   4.980   4.122  0.0416  0.0111 -0.3024
18616TIP3    H177339   3.021   5.025   4.140  0.6806 -1.1880 -0.1216
18616TIP3    H277340   2.927   4.986   4.027 -0.2975  1.2150 -0.2050
18617TIP3   OH277341   6.773   1.757  10.703 -0.0156  0.0139 -0.0646
18617TIP3    H177342   6.710   1.829  10.695 -2.4633 -1.5480  3.0676
18617TIP3    H277343   6.767   1.710  10.619 -1.0502  1.3917 -0.8002
18618TIP3   OH277344   4.923   0.683  14.777  0.0398 -0.4186  0.6485
18618TIP3    H177345   4.972   0.618  14.827  1.0714  0.3277  0.6351
18618TIP3    H277346   4.973   0.694  14.696 -0.4436 -0.0269  0.3968
18619TIP3   OH277347   1.863   6.339  15.860 -0.3642 -0.4851  0.0823
18619TIP3    H177348   1.879   6.333  15.955  0.3614 -0.9955 -0.0624
18619TIP3    H277349   1.807   6.264  15.840 -0.2024 -0.5972  0.0475
18620TIP3   OH277350   0.958   1.984  16.535  0.4934  0.6709 -0.4184
18620TIP3    H177351   0.975   2.068  16.493  0.0487  1.2609  0.5490
18620TIP3    H277352   0.880   1.950  16.492  0.1260  1.2020 -0.1767
18621TIP3   OH277353   5.780   3.333   3.444  0.0702 -0.3468 -0.5981
18621TIP3    H177354   5.869   3.359   3.418  0.0148  1.1818  0.6354
18621TIP3    H277355   5.784   3.324   3.539 -0.8639 -1.2588 -0.6339
18622TIP3   OH277356   0.394   6.046   3.973 -0.0131  0.7013  0.1179
18622TIP3    H177357   0.475   6.028   3.925  0.9907  0.8246  1.7007
18622TIP3    H277358   0.369   6.135   3.946  0.9187  1.0353  0.3076
18623TIP3   OH277359   5.769   3.584  11.013 -0.0188 -0.1374  0.5024
18623TIP3    H177360   5.806   3.672  11.019  0.9893 -0.6019  1.5698
18623TIP3    H277361   5.820   3.541  10.945  0.4439 -0.3087  0.9435
18624TIP3   OH277362   6.625   5.239  16.526 -0.1635 -0.1739  0.0132
18624TIP3    H177363   6.598   5.224  16.435  2.7375 -0.2164 -0.9508
18624TIP3    H277364   6.617   5.154  16.568 -0.6307 -0.3737 -0.4690
18625TIP3   OH277365   6.504   5.721  15.278  0.4571 -0.1588  0.3491
18625TIP3    H177366   6.594   5.717  15.311  0.0509 -1.9265  1.3469
18625TIP3    H277367   6.477   5.630  15.269 -1.8431  0.2918  1.8195
18626TIP3   OH277368   5.018   6.355   1.140 -0.1441  0.0835 -0.2209
18626TIP3    H177369   4.981   6.438   1.171  0.3679 -0.5511  2.2379
18626TIP3    H277370   4.953   6.289   1.164 -0.3937 -0.3108 -1.8647
18627TIP3   OH277371   2.617   1.887  14.918  0.0719 -0.5064 -0.1423
18627TIP3    H177372   2.572   1.965  14.883  1.5780  1.1427  1.4035
18627TIP3    H277373   2.558   1.856  14.986  0.6131  0.8974  1.0221
18628TIP3   OH277374   4.558   5.960   4.498  0.1426 -0.0335  0.0369
18628TIP3    H177375   4.498   5.970   4.571 -1.0675  1.5401 -1.0932
18628TIP3    H277376   4.612   6.040   4.499 -0.6498  0.5588 -1.3958
18629TIP3   OH277377   6.306   6.597  16.972  0.0923 -0.1751 -0.4532
18629TIP3    H177378   6.393   6.588  16.933 -0.3305  2.9725 -2.5628
18629TIP3    H277379   6.303   6.688  17.002 -1.8397 -0.7519  1.3193
18630TIP3   OH277380   2.426   3.807   4.986  0.7415 -0.7396  0.1274
18630TIP3    H177381   2.396   3.845   4.903  2.7382  0.3001 -0.1884
18630TIP3    H277382   2.405   3.872   5.052 -3.8848 -2.8911  1.1756
18631TIP3   OH277383   5.325   0.360  11.757 -0.1278  0.1073  0.2017
18631TIP3    H177384   5.403   0.321  11.797  0.2033 -0.1696 -0.6942
18631TIP3    H277385   5.359   0.429  11.700 -0.6718  1.3471  1.3177
18632TIP3   OH277386   5.980   1.341   1.852 -0.3463  0.1000 -0.2971
18632TIP3    H177387   5.920   1.332   1.777 -2.2191 -0.2650  1.1772
18632TIP3    H277388   6.059   1.293   1.825 -1.1963 -0.5159 -1.8071
18633TIP3   OH277389   4.522   2.693   4.400  0.1686  0.3676 -0.6429
18633TIP3    H177390   4.474   2.772   4.372 -1.3697  0.8111  2.7415
18633TIP3    H277391   4.592   2.727   4.455  1.2214 -0.5733 -1.3691
18634TIP3   OH277392   6.471   1.555   2.384 -0.0699 -0.3512  0.4871
18634TIP3    H177393   6.492   1.618   2.453 -0.3481 -1.3104  1.4755
18634TIP3    H277394   6.555   1.534   2.344  0.1855 -0.2827  0.9782
18635TIP3   OH277395   5.662   5.878   5.288 -0.6875 -0.2150 -0.1648
18635TIP3    H177396   5.700   5.791   5.284 -1.7073 -0.6547 -0.6901
18635TIP3    H277397   5.736   5.936   5.303 -0.1818 -1.3055  1.8265
18636TIP3   OH277398   3.630   1.917  13.606 -0.1418 -0.1459  0.4025
18636TIP3    H177399   3.670   2.000  13.580 -2.3374  0.6193 -0.7567
18636TIP3    H277400   3.581   1.937  13.685 -0.2246 -0.4863  0.4399
18637TIP3   OH277401   4.476   1.548   2.740  0.1158 -0.5677  0.0554
18637TIP3    H177402   4.511   1.471   2.695  0.1436 -0.6589  0.2334
18637TIP3    H277403   4.531   1.620   2.711 -0.6744 -0.4015 -1.0809
18638TIP3   OH277404   1.509   6.707  16.810 -0.0791 -0.0309  0.5894
18638TIP3    H177405   1.480   6.790  16.771  3.7862  0.7227 -1.1482
18638TIP3    H277406   1.492   6.642  16.742  1.0558  0.2058  0.0550
18639TIP3   OH277407   6.766   3.355  14.033 -0.3920  0.0775  0.0077
18639TIP3    H177408   6.683   3.308  14.032  0.1085 -0.8224  0.0145
18639TIP3    H277409   6.754   3.424  14.098 -0.7209 -0.8250  0.9296
18640TIP3   OH277410   1.502   0.418   4.606 -0.5775  0.0035  0.3706
18640TIP3    H177411   1.540   0.489   4.657 -0.2943  0.7254 -0.8043
18640TIP3    H277412   1.534   0.338   4.649  0.6767  0.5860  0.5790
18641TIP3   OH277413   1.047   6.376  17.391 -0.2453  0.6379 -0.6056
18641TIP3    H177414   0.990   6.449  17.365 -1.2483 -0.0332 -0.3461
18641TIP3    H277415   1.009   6.299  17.350  0.2704  0.1130 -0.1346
18642TIP3   OH277416   2.475   5.584  17.326 -0.1190  0.3633  0.6540
18642TIP3    H177417   2.498   5.671  17.358  3.3689  0.1410 -0.8644
18642TIP3    H277418   2.480   5.528  17.403  0.9407  0.9924  1.0668
18643TIP3   OH277419   6.680   2.106   2.632  0.5212 -0.2885 -0.2299
18643TIP3    H177420   6.606   2.098   2.573  0.0498  1.3342  0.0887
18643TIP3    H277421   6.667   2.037   2.697  0.0203 -0.8626 -0.9357
18644TIP3   OH277422   5.667   6.740  17.097  0.1847  0.4471  0.2279
18644TIP3    H177423   5.630   6.828  17.094 -2.6699 -0.6533  0.2451
18644TIP3    H277424   5.612   6.688  17.038 -1.2428 -2.3059  3.6373
18645TIP3   OH277425   6.023   5.952  16.614  0.2430  0.5011 -0.0812
18645TIP3    H177426   5.959   6.023  16.600 -1.1957 -0.5518  0.8398
18645TIP3    H277427   6.072   5.979  16.692 -1.6231 -0.3248  1.4846
18646TIP3   OH277428   5.109   2.303   4.142 -0.2428  0.0222 -0.2568
18646TIP3    H177429   5.083   2.374   4.200 -1.8082  0.5920 -1.5817
18646TIP3    H277430   5.088   2.223   4.191 -0.6269  0.4814  0.3398
18647TIP3   OH277431   0.944   0.435   1.040  0.3131  0.3511 -0.7179
18647TIP3    H177432   0.956   0.498   1.111 -0.3441 -0.5316  0.1791
18647TIP3    H277433   0.956   0.349   1.080  0.1260 -0.1599 -1.7136
18648TIP3   OH277434   2.964   6.558  16.048  0.3366  0.1382 -0.1826
18648TIP3    H177435   3.031   6.581  16.113  0.1651  0.2083 -0.0299
18648TIP3    H277436   2.889   6.613  16.070  0.5047  0.6470 -0.8560
18649TIP3   OH277437   3.477   3.987  15.040 -0.5652 -0.0367  0.1596
18649TIP3    H177438   3.511   3.976  15.129 -1.0513 -1.2833  0.1991
18649TIP3    H277439   3.486   4.081  15.024  1.0751 -0.0183  0.8907
18650TIP3   OH277440   4.969   3.203   2.378  0.3758  0.0489  0.0665
18650TIP3    H177441   4.970   3.110   2.355 -2.0261  0.1018 -0.6017
18650TIP3    H277442   4.895   3.212   2.438  0.3492  1.5751 -0.1396
18651TIP3   OH277443   0.206   2.072   0.609  0.0104  0.5602  1.0376
18651TIP3    H177444   0.160   2.093   0.528  3.5876  2.7814 -0.6938
18651TIP3    H277445   0.208   1.977   0.612 -2.6997  0.3974  0.1310
18652TIP3   OH277446   0.198   2.525  16.587 -0.7920  0.0753 -0.1359
18652TIP3    H177447   0.286   2.506  16.620 -0.1111  1.5186 -0.9997
18652TIP3    H277448   0.139   2.495  16.656  0.3969 -0.6044  0.6066
18653TIP3   OH277449   5.342   2.498   3.025 -0.3782  0.4428 -0.1531
18653TIP3    H177450   5.275   2.435   3.001 -0.4587 -0.2551  1.6954
18653TIP3    H277451   5.293   2.578   3.047 -0.3216  0.9894 -1.9067
18654TIP3   OH277452   0.723   5.626  16.113  0.4887  0.4147 -0.5208
18654TIP3    H177453   0.712   5.681  16.190 -0.8208 -0.9591  0.3335
18654TIP3    H277454   0.670   5.668  16.045 -0.2055  0.4279  0.0188
18655TIP3   OH277455   3.083   4.893  16.470  0.3130  0.7909  0.3459
18655TIP3    H177456   3.076   4.984  16.497  0.8527  0.6700  0.9367
18655TIP3    H277457   3.177   4.879  16.454  0.0087  0.8735 -1.7360
18656TIP3   OH277458   0.753   2.787  12.253  0.1341  0.2726 -0.2177
18656TIP3    H177459   0.775   2.835  12.332  0.8836 -1.7581  0.8790
18656TIP3    H277460   0.836   2.750  12.223 -0.3922 -0.2650 -1.0581
18657TIP3   OH277461   2.975   3.895  12.968  0.0091  0.0016 -0.2406
18657TIP3    H177462   3.010   3.826  13.026 -2.4018 -0.1783  1.1190
18657TIP3    H277463   2.977   3.974  13.022 -0.6490  0.2089 -0.5169
18658TIP3   OH277464   1.257   1.451   5.565  0.0972  0.0223 -0.0956
18658TIP3    H177465   1.316   1.526   5.577 -1.4935  1.2627  0.3055
18658TIP3    H277466   1.203   1.476   5.490 -0.8492 -0.4597  0.4135
18659TIP3   OH277467   4.022   0.304   3.020 -0.6837 -0.1148 -0.2848
18659TIP3    H177468   3.966   0.284   2.944  2.0153 -0.5766 -2.3199
18659TIP3    H277469   4.074   0.225   3.033  2.6314  1.6371 -1.5275
18660TIP3   OH277470   1.732   6.393   4.514  0.0653 -0.1320 -0.3202
18660TIP3    H177471   1.714   6.314   4.565 -1.1947  0.3455  0.0072
18660TIP3    H277472   1.714   6.368   4.423  0.1576 -0.3672 -0.2728
18661TIP3   OH277473   3.694   0.682   1.271 -0.0248  0.4904 -0.5932
18661TIP3    H177474   3.692   0.592   1.306  1.1865  0.4770 -0.5205
18661TIP3    H277475   3.680   0.737   1.348  1.4822  0.4234 -0.2572
18662TIP3   OH277476   2.939   2.360  15.794 -0.2641 -0.6566  0.6119
18662TIP3    H177477   2.998   2.422  15.752  0.3563 -1.0035  0.9562
18662TIP3    H277478   2.852   2.382  15.759  0.3755 -1.7966 -1.8737
18663TIP3   OH277479   5.114   6.488  12.111 -0.1036  0.2659  0.5448
18663TIP3    H177480   5.049   6.558  12.120 -0.3771  0.0912 -0.0394
18663TIP3    H277481   5.078   6.430  12.044  0.7449  0.2724  0.0730
18664TIP3   OH277482   1.170   2.957   0.188  0.0134  0.3324 -0.0094
18664TIP3    H177483   1.124   2.880   0.154 -0.2506  0.3570  0.2897
18664TIP3    H277484   1.119   3.031   0.157 -0.0280  0.3668  0.1374
18665TIP3   OH277485   2.689   6.545  15.223  0.1223  0.2550  0.3837
18665TIP3    H177486   2.757   6.612  15.221  1.0602 -0.6683  0.4445
18665TIP3    H277487   2.619   6.584  15.276  1.0383  0.8322  1.2099
18666TIP3   OH277488   4.869   0.683   4.070  0.1129  0.5801  0.1229
18666TIP3    H177489   4.886   0.778   4.070 -4.1547  1.5510 -1.1532
18666TIP3    H277490   4.940   0.646   4.017  0.2960  3.4916 -1.9092
18667TIP3   OH277491   2.338   3.010  11.046  0.1515  0.1352 -0.8793
18667TIP3    H177492   2.260   2.956  11.033 -0.4236  0.5911  0.4623
18667TIP3    H277493   2.326   3.085  10.989 -0.2113  0.0059 -0.9753
18668TIP3   OH277494   6.420   4.318   0.269  0.2835 -0.3012  0.1872
18668TIP3    H177495   6.336   4.329   0.313 -0.0153  2.2359 -0.8527
18668TIP3    H277496   6.410   4.240   0.216 -1.4733  0.0229  0.0096
18669TIP3   OH277497   0.498   4.262  12.361 -0.1168 -0.3849  0.6469
18669TIP3    H177498   0.436   4.199  12.325 -1.0042  0.0876  1.2936
18669TIP3    H277499   0.510   4.235  12.452  0.2155 -0.1536  0.6759
18670TIP3   OH277500   1.264   2.650   5.988  0.0775  0.6470 -0.0012
18670TIP3    H177501   1.302   2.605   6.064  1.4636  1.7621  0.0122
18670TIP3    H277502   1.313   2.617   5.913 -0.8679  0.0185 -0.3687
18671TIP3   OH277503   4.047   0.098   4.769 -0.2076 -0.0012 -0.2852
18671TIP3    H177504   3.993   0.050   4.832 -0.6267  1.3769  0.4452
18671TIP3    H277505   3.986   0.158   4.726 -0.0039 -1.1356 -2.2902
18672TIP3   OH277506   4.182   6.130  12.265 -0.2877 -0.5075 -0.5264
18672TIP3    H177507   4.152   6.218  12.287  1.2574 -0.2983  1.0018
18672TIP3    H277508   4.153   6.116  12.175 -0.3770  1.6545 -0.8819
18673TIP3   OH277509   2.662   5.099  11.662  0.3302 -0.5809  0.0335
18673TIP3    H177510   2.587   5.080  11.717 -0.3235  3.5985  0.9355
18673TIP3    H277511   2.721   5.150  11.718  1.3388  0.7334 -2.0899
18674TIP3   OH277512   5.572   6.747   1.112 -0.4082 -0.2705 -0.8450
18674TIP3    H177513   5.639   6.811   1.087 -2.4269  3.2685  1.7118
18674TIP3    H277514   5.617   6.688   1.173  1.3260 -0.7472 -2.5104
18675TIP3   OH277515   3.796   5.205  12.908 -0.3029 -0.4842  0.3221
18675TIP3    H177516   3.798   5.112  12.883  0.4841 -0.5755  0.6761
18675TIP3    H277517   3.881   5.219  12.951 -0.0902  0.5966 -0.4226
18676TIP3   OH277518   3.418   3.039  14.648  0.2900 -0.0165 -0.2433
18676TIP3    H177519   3.483   3.062  14.582 -0.2041 -0.3858 -0.8615
18676TIP3    H277520   3.468   2.993  14.715  1.1583  2.0532  0.6272
18677TIP3   OH277521   3.217   0.602   3.573  0.3601  0.0032 -0.3163
18677TIP3    H177522   3.251   0.551   3.647 -0.8248 -0.8761 -0.3535
18677TIP3    H277523   3.146   0.654   3.610  1.9449  2.2184 -0.1318
18678TIP3   OH277524   6.466   6.175  11.148  0.0436 -0.0965 -0.4255
18678TIP3    H177525   6.463   6.081  11.132 -1.1753  0.1098 -1.5126
18678TIP3    H277526   6.556   6.200  11.127  0.2630 -0.9552 -0.5224
18679TIP3   OH277527   5.992   6.119   3.007 -0.7482  0.1062 -0.1276
18679TIP3    H177528   5.988   6.046   2.944  0.7481  0.7734 -1.0507
18679TIP3    H277529   6.085   6.129   3.025 -0.8796  2.1344 -0.4198
18680TIP3   OH277530   0.227   5.867  16.106  0.2600  0.4418 -0.6494
18680TIP3    H177531   0.141   5.890  16.071  0.4627 -0.3236 -1.7165
18680TIP3    H277532   0.284   5.938  16.078 -0.4721  2.4235  2.4036
18681TIP3   OH277533   5.812   4.192  15.141 -0.3757  0.4215 -0.1257
18681TIP3    H177534   5.754   4.115  15.137  0.6245 -0.3869  0.5450
18681TIP3    H277535   5.790   4.234  15.224 -0.6834  0.6796 -0.3344
18682TIP3   OH277536   5.597   4.065   1.829 -0.0731 -0.2483  0.4122
18682TIP3    H177537   5.571   3.990   1.775  1.4047  0.1629 -0.9368
18682TIP3    H277538   5.673   4.033   1.877 -0.8634 -0.3312  1.6493
18683TIP3   OH277539   4.546   0.328   1.124 -0.1224 -0.4978 -0.4473
18683TIP3    H177540   4.535   0.286   1.209 -1.5452 -0.3240 -0.5250
18683TIP3    H277541   4.543   0.422   1.143 -0.2144 -0.4576 -0.6608
18684TIP3   OH277542   4.181   4.634   1.837  0.3345 -0.1485 -0.2615
18684TIP3    H177543   4.126   4.677   1.902  0.8910  0.3248 -0.0931
18684TIP3    H277544   4.201   4.548   1.874  0.2522 -0.0667 -0.0303
18685TIP3   OH277545   0.490   3.614  17.131 -0.3789  0.3603  0.2693
18685TIP3    H177546   0.524   3.639  17.045 -1.9169  1.7782  0.0180
18685TIP3    H277547   0.398   3.594  17.115 -0.6625  0.5482  1.5731
18686TIP3   OH277548   0.702   5.122   2.472  0.8389 -0.2248  0.2225
18686TIP3    H177549   0.719   5.103   2.564  1.1854 -1.3255 -0.0587
18686TIP3    H277550   0.777   5.087   2.425  0.3382 -0.3061 -0.5432
18687TIP3   OH277551   6.697   1.089   3.307  0.2940  0.6100 -0.0584
18687TIP3    H177552   6.712   1.176   3.342 -0.5789  0.7938 -0.1213
18687TIP3    H277553   6.748   1.087   3.225  0.1390  1.1366 -0.1690
18688TIP3   OH277554   2.146   2.229   3.764  0.0743 -0.1823 -0.0349
18688TIP3    H177555   2.236   2.207   3.789  0.2942 -1.1930 -1.5578
18688TIP3    H277556   2.113   2.149   3.724 -1.3277  0.3599  0.0077
18689TIP3   OH277557   0.081   6.756   4.250  0.1860 -0.6086  0.5803
18689TIP3    H177558   0.031   6.834   4.229 -0.2265 -1.2611 -0.9976
18689TIP3    H277559   0.173   6.784   4.242  0.1197  0.3184  2.4816
18690TIP3   OH277560   2.852   1.802   2.827 -0.4889  0.3431 -0.0687
18690TIP3    H177561   2.934   1.851   2.824 -0.0580 -0.4234 -1.1062
18690TIP3    H277562   2.815   1.811   2.739 -0.6754 -0.7274 -0.1124
18691TIP3   OH277563   1.897   6.582   5.686 -0.1268  0.3662 -0.2044
18691TIP3    H177564   1.892   6.627   5.601 -1.3182  0.1563 -0.2592
18691TIP3    H277565   1.851   6.641   5.746  0.7557  0.5369  0.3190
18692TIP3   OH277566   0.178   5.064   2.798  0.1483 -0.1033  0.2127
18692TIP3    H177567   0.213   5.135   2.744 -0.4868  0.2967  0.3183
18692TIP3    H277568   0.103   5.103   2.844  0.9566 -0.2863  1.7607
18693TIP3   OH277569   4.057   1.711  10.761 -0.2657 -0.5674  0.2961
18693TIP3    H177570   4.080   1.803  10.777 -0.5854 -0.7673  2.0678
18693TIP3    H277571   4.140   1.669  10.739  0.0998 -0.1210  0.8025
18694TIP3   OH277572   3.374   1.616  13.176 -0.1298 -0.0108  0.2369
18694TIP3    H177573   3.443   1.608  13.110  0.6039 -1.8713  1.1557
18694TIP3    H277574   3.378   1.534  13.226 -1.8433  0.5757  1.4593
18695TIP3   OH277575   6.226   4.579  15.429 -0.3326 -0.2317  0.6524
18695TIP3    H177576   6.244   4.661  15.382 -1.3171  0.1855  0.9748
18695TIP3    H277577   6.135   4.559  15.408 -0.3676 -0.7674  1.2909
18696TIP3   OH277578   0.335   2.049   3.979 -0.0449 -0.2235  0.0377
18696TIP3    H177579   0.413   2.043   3.924  0.7057 -2.2064  1.2129
18696TIP3    H277580   0.368   2.047   4.069 -1.3653  0.5278  0.5772
18697TIP3   OH277581   0.607   4.534   2.198  0.6340  0.2225  0.3838
18697TIP3    H177582   0.550   4.564   2.127  0.7957  1.1628  0.6391
18697TIP3    H277583   0.546   4.495   2.261  0.4968 -0.6717 -0.2890
18698TIP3   OH277584   6.048   6.429   0.487 -0.2461 -0.3042  0.0726
18698TIP3    H177585   6.094   6.461   0.565 -0.1061  2.2360 -0.9547
18698TIP3    H277586   5.955   6.446   0.504 -0.2068  0.3538 -0.3224
18699TIP3   OH277587   2.672   2.421   4.497 -0.6884  0.0367 -0.2283
18699TIP3    H177588   2.611   2.349   4.516 -0.0820  0.2376  3.1447
18699TIP3    H277589   2.759   2.382   4.507 -0.3179  0.8284 -0.2607
18700TIP3   OH277590   1.209   6.267   1.251  0.2763  0.1901 -0.7925
18700TIP3    H177591   1.292   6.256   1.204  1.2820  0.2246  0.8991
18700TIP3    H277592   1.185   6.178   1.279  0.9091  0.4458  0.6043
18701TIP3   OH277593   1.275   4.298  17.389 -0.3346  0.0936 -0.2196
18701TIP3    H177594   1.274   4.241  17.465  0.9870  0.3348  0.0140
18701TIP3    H277595   1.247   4.241  17.316 -1.4128 -0.1840  0.3982
18702TIP3   OH277596   3.062   2.520   2.484  0.0545  0.5437  0.0336
18702TIP3    H177597   3.109   2.598   2.453  0.6903 -0.8586 -2.8519
18702TIP3    H277598   3.104   2.499   2.568  0.3785  2.7965  0.5177
18703TIP3   OH277599   4.131   0.338   3.844  0.4966  0.2273  0.0731
18703TIP3    H177600   4.155   0.248   3.867 -3.3961 -0.6346  1.5718
18703TIP3    H277601   4.174   0.391   3.911 -0.7320 -1.0787  2.0255
18704TIP3   OH277602   3.501   6.732  15.658 -0.1781  0.8025  0.4362
18704TIP3    H177603   3.584   6.707  15.618 -1.8610 -0.9314 -2.2287
18704TIP3    H277604   3.471   6.653  15.703 -0.0019  1.7144  2.2841
18705TIP3   OH277605   4.615   4.853   0.045 -0.5342 -0.1544 -0.6585
18705TIP3    H177606   4.622   4.903   0.126 -2.4775  0.3802 -0.7892
18705TIP3    H277607   4.586   4.766   0.073  4.3051 -1.9636 -0.2553
18706TIP3   OH277608   4.782   2.146   1.454 -0.1775  0.6965 -0.0655
18706TIP3    H177609   4.805   2.074   1.395 -0.9835 -0.3980  0.9257
18706TIP3    H277610   4.817   2.119   1.539  1.0301  2.2862 -0.0010
18707TIP3   OH277611   4.159   5.053   0.926 -0.7014 -0.2286 -0.1952
18707TIP3    H177612   4.106   5.112   0.873 -0.2135 -0.2688 -0.7323
18707TIP3    H277613   4.206   5.111   0.986  0.2141 -0.0140 -1.1065
18708TIP3   OH277614   5.373   6.750  14.352 -0.0925  0.1232  0.1340
18708TIP3    H177615   5.351   6.726  14.442  1.1923  0.1172  0.4576
18708TIP3    H277616   5.348   6.842  14.346 -0.1305  0.1420  0.5131
18709TIP3   OH277617   2.416   4.219   0.661  0.2095 -0.3088 -0.3651
18709TIP3    H177618   2.446   4.266   0.583  2.0509  0.6368  0.8254
18709TIP3    H277619   2.497   4.200   0.710 -0.8499 -1.2012  1.1304
18710TIP3   OH277620   0.598   6.512   5.324  0.1120  0.1944  0.7777
18710TIP3    H177621   0.511   6.509   5.284  0.2845  0.8639  0.3313
18710TIP3    H277622   0.604   6.431   5.375  0.4436 -1.4889 -1.7432
18711TIP3   OH277623   5.915   1.687   1.843  0.0282  0.4448  0.2453
18711TIP3    H177624   5.959   1.765   1.877  2.3543 -0.8649  0.3804
18711TIP3    H277625   5.972   1.614   1.867 -0.8892 -1.0871 -1.9494
18712TIP3   OH277626   1.826   0.386  14.728 -0.3881  0.2521  0.1811
18712TIP3    H177627   1.881   0.363  14.653  0.5430  0.4644  0.7887
18712TIP3    H277628   1.874   0.355  14.804 -1.3564 -0.0125  0.7038
18713TIP3   OH277629   6.216   3.613  16.357 -0.4621 -0.2472  0.0166
18713TIP3    H177630   6.239   3.533  16.310  0.9147 -0.0907  0.4054
18713TIP3    H277631   6.130   3.593  16.396 -0.9620 -0.8853 -1.3503
18714TIP3   OH277632   2.164   1.556   2.328 -0.5379  0.5965  0.3536
18714TIP3    H177633   2.085   1.592   2.288  0.2434  1.1153 -0.7525
18714TIP3    H277634   2.156   1.461   2.316 -0.4673  0.7262 -0.7363
18715TIP3   OH277635   0.653   6.071  13.122  0.0663  0.2435 -0.1035
18715TIP3    H177636   0.701   6.144  13.160 -0.7827  0.0415  1.4547
18715TIP3    H277637   0.721   6.012  13.088  0.8939  0.3130  1.3701
18716TIP3   OH277638   4.235   6.544   3.984 -0.5802  0.6065  0.4144
18716TIP3    H177639   4.226   6.544   4.079  0.2728  2.6430  0.5648
18716TIP3    H277640   4.299   6.476   3.965  0.9272  1.6436  1.5549
18717TIP3   OH277641   5.269   6.173   5.756  0.2021 -0.2814  0.6230
18717TIP3    H177642   5.314   6.243   5.803  2.2509 -1.3036  0.3108
18717TIP3    H277643   5.305   6.177   5.667  0.0091 -1.4221  0.4759
18718TIP3   OH277644   1.555   4.262   1.864  0.3422 -0.6259 -1.1208
18718TIP3    H177645   1.565   4.272   1.959 -2.2922  0.0077 -0.8367
18718TIP3    H277646   1.550   4.167   1.851  1.0520 -0.7343 -0.6969
18719TIP3   OH277647   0.263   2.342  15.996 -0.2732 -0.4980 -0.3868
18719TIP3    H177648   0.206   2.289  16.052  0.3525  0.6001  1.3466
18719TIP3    H277649   0.208   2.363  15.920 -2.7161  1.5501  1.7459
18720TIP3   OH277650   3.495   3.711   0.395  0.0304  0.2743 -0.1571
18720TIP3    H177651   3.520   3.622   0.418 -0.2666  0.9075  3.0024
18720TIP3    H277652   3.435   3.701   0.321  0.4377 -2.0682 -0.2374
18721TIP3   OH277653   3.794   2.192  15.000 -0.3616  0.8002 -0.1136
18721TIP3    H177654   3.789   2.101  14.973  0.5362  0.7427 -0.1108
18721TIP3    H277655   3.749   2.240  14.930 -1.7927  0.2818  0.4104
18722TIP3   OH277656   5.551   6.425   1.951  0.4929 -0.0585  0.0679
18722TIP3    H177657   5.494   6.363   1.905  0.3856 -1.0932  1.5108
18722TIP3    H277658   5.631   6.376   1.968  1.2835  0.9422 -0.7262
18723TIP3   OH277659   2.561   4.344   0.153  0.2785 -0.6777  0.5837
18723TIP3    H177660   2.511   4.421   0.125 -1.5783 -1.2215  2.2288
18723TIP3    H277661   2.572   4.293   0.073 -3.9062 -1.6596  0.4333
18724TIP3   OH277662   4.749   6.697  14.221  0.5824 -0.0371 -0.0183
18724TIP3    H177663   4.745   6.648  14.138  0.8377  1.2927 -0.8379
18724TIP3    H277664   4.691   6.771  14.208  1.4363  0.7667  0.6124
18725TIP3   OH277665   4.635   4.463  14.391 -0.0680 -0.1226  0.0159
18725TIP3    H177666   4.611   4.553  14.413  1.1242  0.3657 -0.5879
18725TIP3    H277667   4.553   4.415  14.393 -0.8220  1.1087 -0.2558
18726TIP3   OH277668   5.164   3.084  14.502  0.7145  0.0820 -0.1942
18726TIP3    H177669   5.162   3.004  14.448 -0.1454  0.3932 -0.6499
18726TIP3    H277670   5.072   3.099  14.525  0.9424  0.5992  0.4114
18727TIP3   OH277671   3.569   1.952  11.586  0.2448 -0.1392  0.5292
18727TIP3    H177672   3.553   2.042  11.613 -1.3834 -0.5682  1.1152
18727TIP3    H277673   3.569   1.902  11.668  1.0658 -0.6972  0.2030
18728TIP3   OH277674   3.291   0.163   3.745 -0.3009 -0.6879 -0.0719
18728TIP3    H177675   3.199   0.172   3.769  0.3422  1.2364  1.9609
18728TIP3    H277676   3.339   0.180   3.826  1.8765 -0.9722 -1.2303
18729TIP3   OH277677   2.584   1.979   4.057  0.0912 -0.3668  0.2371
18729TIP3    H177678   2.678   1.959   4.057  0.4756  1.2418  1.2433
18729TIP3    H277679   2.541   1.894   4.064  1.4795 -1.1273 -0.2403
18730TIP3   OH277680   4.940   2.330  11.048 -0.0464 -0.1881 -0.0701
18730TIP3    H177681   4.986   2.251  11.076 -1.0489 -0.7137  0.1380
18730TIP3    H277682   4.995   2.402  11.080  0.5002 -0.7928  0.3834
18731TIP3   OH277683   2.997   6.115   4.745  0.2967  0.6957 -0.1415
18731TIP3    H177684   3.035   6.147   4.827  1.8563  1.6340 -1.1786
18731TIP3    H277685   2.930   6.052   4.772 -1.0199  2.8211  1.9314
18732TIP3   OH277686   6.518   5.107   6.424 -0.5468 -0.1141 -0.1356
18732TIP3    H177687   6.519   5.171   6.494 -1.3303  0.0537 -0.2652
18732TIP3    H277688   6.607   5.072   6.422  0.5098  2.3802 -1.3826
18733TIP3   OH277689   2.752   2.857   1.351 -0.3343  0.5319  0.3701
18733TIP3    H177690   2.678   2.833   1.407 -0.0409 -0.1203  0.4892
18733TIP3    H277691   2.827   2.861   1.411 -0.0113 -0.2070  0.0324
18734TIP3   OH277692   1.238   1.893  11.555 -1.1267  0.0511  0.6759
18734TIP3    H177693   1.174   1.821  11.554 -0.8831 -0.1634 -0.2859
18734TIP3    H277694   1.302   1.868  11.489 -1.8196  1.8745 -0.7440
18735TIP3   OH277695   6.710   2.045  13.057 -0.0773 -0.0165 -0.1390
18735TIP3    H177696   6.753   1.960  13.050 -2.5711 -1.3849  0.0519
18735TIP3    H277697   6.776   2.102  13.097  1.6499 -1.8274 -0.2443
18736TIP3   OH277698   6.600   6.442  11.680  0.7290  0.6775 -0.7895
18736TIP3    H177699   6.556   6.526  11.691  0.1058  0.1316  1.2706
18736TIP3    H277700   6.532   6.384  11.645  0.4104  0.3908  0.2828
18737TIP3   OH277701   4.856   2.079   0.940 -0.3323 -0.1524 -0.3969
18737TIP3    H177702   4.870   2.096   0.847 -2.6471 -0.9601 -0.9799
18737TIP3    H277703   4.874   2.162   0.983  2.1149 -0.1216 -1.3574
18738TIP3   OH277704   6.551   2.632   0.622  0.4659  0.5448  0.4775
18738TIP3    H177705   6.573   2.578   0.698 -0.2474  1.1508  1.1278
18738TIP3    H277706   6.456   2.628   0.616  0.5241  0.4119 -0.4592
18739TIP3   OH277707   2.926   1.990   3.399 -0.0606  0.0314 -0.2356
18739TIP3    H177708   3.016   1.990   3.431 -0.1265 -1.4386  0.0091
18739TIP3    H277709   2.890   2.075   3.427  1.0818  0.4220  0.0974
18740TIP3   OH277710   0.371   3.628   3.958  0.9937 -0.2527  0.0001
18740TIP3    H177711   0.323   3.645   4.039  2.4227  3.9376  0.1879
18740TIP3    H277712   0.437   3.563   3.983  0.3643 -0.2833  1.7498
18741TIP3   OH277713   5.830   2.225  12.411 -0.7728  0.6190 -0.2937
18741TIP3    H177714   5.857   2.207  12.501 -0.1760  1.9084 -0.1973
18741TIP3    H277715   5.912   2.235  12.363 -1.0369  2.4691 -0.4361
18742TIP3   OH277716   2.339   3.373  11.873  0.3872 -0.1467  0.4927
18742TIP3    H177717   2.262   3.318  11.859 -0.5853  1.1865  0.4239
18742TIP3    H277718   2.404   3.339  11.812 -0.6428 -0.3435 -0.5232
18743TIP3   OH277719   2.301   2.194   1.099  0.3805 -0.6636 -0.3303
18743TIP3    H177720   2.280   2.244   1.020  2.6599 -0.1086 -0.6767
18743TIP3    H277721   2.242   2.229   1.166 -0.3789  0.1152 -1.3725
18744TIP3   OH277722   0.313   6.131   4.561 -0.4413 -0.1249 -0.0328
18744TIP3    H177723   0.350   6.129   4.473 -0.5399 -0.2402 -0.0716
18744TIP3    H277724   0.359   6.202   4.605 -1.1484  0.6369 -0.5061
18745TIP3   OH277725   2.206   6.010  12.873  0.2775 -0.5036 -0.0624
18745TIP3    H177726   2.123   6.050  12.848 -1.0273 -3.0351 -0.0595
18745TIP3    H277727   2.196   5.991  12.967  2.3100  2.3320  0.8683
18746TIP3   OH277728   6.246   3.284   0.709  0.2411  0.5934 -0.2650
18746TIP3    H177729   6.167   3.240   0.739  0.4443 -0.6643 -1.5230
18746TIP3    H277730   6.317   3.223   0.728  0.9409  1.6687  0.7631
18747TIP3   OH277731   4.673   1.456   5.987  0.2140  0.0219  0.1524
18747TIP3    H177732   4.689   1.398   5.912 -0.2283  2.2482 -1.7822
18747TIP3    H277733   4.586   1.493   5.970  1.5467  3.2541 -0.2101
18748TIP3   OH277734   4.221   1.658   1.346  0.4110  0.2042 -0.4839
18748TIP3    H177735   4.134   1.686   1.372 -0.1564 -2.0205  0.2050
18748TIP3    H277736   4.266   1.739   1.321 -1.5523  1.4909 -0.0327
18749TIP3   OH277737   6.374   1.886   4.004 -0.8450 -0.5730  0.3771
18749TIP3    H177738   6.456   1.862   3.962 -1.1871 -0.2614 -0.4935
18749TIP3    H277739   6.382   1.853   4.094 -0.0483 -1.1321  0.1096
18750TIP3   OH277740   2.576   3.120   5.987  0.4783  0.0702  0.5719
18750TIP3    H177741   2.495   3.091   5.946  2.1102 -2.2022 -1.3349
18750TIP3    H277742   2.549   3.154   6.072 -2.3484 -1.5968  0.4752
18751TIP3   OH277743   3.143   0.562  14.233  0.5494 -0.3055 -0.1318
18751TIP3    H177744   3.200   0.493  14.267  2.9133  1.5229 -0.1334
18751TIP3    H277745   3.178   0.583  14.146 -0.7693  0.2151 -0.5755
18752TIP3   OH277746   2.179   1.371  17.270  0.1976  0.3566 -0.2256
18752TIP3    H177747   2.244   1.319  17.223  0.3843  0.2612  0.1257
18752TIP3    H277748   2.118   1.306  17.305 -0.5596  0.5038 -1.2455
18753TIP3   OH277749   5.694   0.815  13.153  0.3129 -0.2177 -0.3536
18753TIP3    H177750   5.679   0.748  13.219  0.8680 -0.3132 -0.3145
18753TIP3    H277751   5.749   0.880  13.196  0.2864 -0.0442 -0.5768
18754TIP3   OH277752   6.737   1.127  14.209 -0.2929  0.0915 -0.2269
18754TIP3    H177753   6.807   1.080  14.253  0.6068 -0.3260 -1.9828
18754TIP3    H277754   6.782   1.195  14.158 -1.3716  1.3075  0.3710
18755TIP3   OH277755   3.590   1.029   5.087  0.2327  0.4803 -0.0734
18755TIP3    H177756   3.675   0.988   5.071 -0.3142 -0.0798 -1.7020
18755TIP3    H277757   3.541   0.965   5.139  0.7125  0.7177  0.6877
18756TIP3   OH277758   4.477   2.777   0.879  0.0247  0.7449  0.4352
18756TIP3    H177759   4.546   2.841   0.898 -0.2681  1.4549 -0.7667
18756TIP3    H277760   4.511   2.725   0.807 -0.5668  0.8860  0.0482
18757TIP3   OH277761   1.566   0.545   1.533 -0.1303 -0.0567  0.3802
18757TIP3    H177762   1.601   0.495   1.459 -0.3336  0.6094 -0.1812
18757TIP3    H277763   1.508   0.610   1.492 -1.5500 -0.7308  1.2341
18758TIP3   OH277764   0.343   0.907  12.315  0.1365 -0.4307 -0.5023
18758TIP3    H177765   0.413   0.962  12.350  0.6019 -0.3324 -1.5558
18758TIP3    H277766   0.269   0.967  12.305  0.2550 -0.2764 -0.4649
18759TIP3   OH277767   2.200   4.036  12.747 -0.1478 -0.3243 -0.2608
18759TIP3    H177768   2.293   4.017  12.764 -0.1345 -0.1698 -0.1596
18759TIP3    H277769   2.171   3.965  12.691 -0.4048 -1.3070  1.0598
18760TIP3   OH277770   6.550   5.493   3.813  0.0111 -0.6530 -0.3433
18760TIP3    H177771   6.567   5.488   3.719 -0.1487 -2.0284 -0.3180
18760TIP3    H277772   6.466   5.538   3.820  0.3080 -0.0090 -0.8176
18761TIP3   OH277773   3.434   3.210  13.775  0.5290 -0.0726 -0.5795
18761TIP3    H177774   3.450   3.178  13.686 -1.3960 -0.8113 -0.7054
18761TIP3    H277775   3.340   3.231  13.776  0.4666 -0.3045  1.3340
18762TIP3   OH277776   6.240   1.646  14.889 -0.3735 -0.3008  0.1175
18762TIP3    H177777   6.153   1.666  14.923 -0.4460 -0.4159  0.0009
18762TIP3    H277778   6.246   1.699  14.809 -0.0806  0.2119  0.4794
18763TIP3   OH277779   4.993   2.704   3.361 -0.1077  0.0987 -0.1297
18763TIP3    H177780   4.970   2.780   3.414 -1.4519  0.4783 -1.2076
18763TIP3    H277781   5.036   2.740   3.284  1.2877 -0.4086  0.3843
18764TIP3   OH277782   6.195   4.207  14.746 -0.0275 -0.5692 -0.1300
18764TIP3    H177783   6.221   4.198  14.654  0.8680 -2.4510  0.2498
18764TIP3    H277784   6.191   4.117  14.778 -1.2143  0.0143  1.4532
18765TIP3   OH277785   2.872   3.163  11.850 -0.1062  0.4189  0.3338
18765TIP3    H177786   2.902   3.088  11.902  0.3451  1.5234  1.7527
18765TIP3    H277787   2.949   3.191  11.801 -0.4527 -0.4369 -0.7330
18766TIP3   OH277788   5.172   0.592  16.208  0.2320  0.5718 -0.4924
18766TIP3    H177789   5.130   0.661  16.157 -0.2172 -1.2662 -2.7568
18766TIP3    H277790   5.102   0.529  16.226  1.3592 -1.1748 -1.9068
18767TIP3   OH277791   2.807   4.764   4.369 -0.0472  0.5570  1.0258
18767TIP3    H177792   2.781   4.839   4.316 -1.8630 -2.9767 -3.9220
18767TIP3    H277793   2.725   4.735   4.410  0.2349  0.2215  1.3581
18768TIP3   OH277794   2.290   3.402   4.868 -0.3109 -0.4033 -0.1774
18768TIP3    H177795   2.383   3.400   4.848 -0.2959 -0.8049 -0.0702
18768TIP3    H277796   2.247   3.377   4.786 -0.4021  1.3523 -0.7005
18769TIP3   OH277797   0.001   5.170   0.017 -0.3032 -0.2017 -0.2541
18769TIP3    H177798   0.004   5.189  -0.077 -1.9746 -2.2777 -0.7971
18769TIP3    H277799  -0.088   5.195   0.043 -0.0666 -0.2833  0.6431
18770TIP3   OH277800   0.607   3.670   0.082  0.8997  0.3744  0.2864
18770TIP3    H177801   0.554   3.749   0.069  1.2463  0.5264 -0.2473
18770TIP3    H277802   0.575   3.633   0.164  1.2989  1.5216  0.9897
18771TIP3   OH277803   1.272   0.645  15.835  0.1512  0.2269 -0.2439
18771TIP3    H177804   1.282   0.561  15.789  1.2466 -0.1128  0.5845
18771TIP3    H277805   1.238   0.622  15.921 -3.1585  0.9615 -1.1945
18772TIP3   OH277806   1.105   3.502   2.715  0.2850  0.2764  0.5489
18772TIP3    H177807   1.102   3.590   2.676  0.1385 -0.7458 -1.9070
18772TIP3    H277808   1.196   3.492   2.743  0.6372  0.7335 -0.3776
18773TIP3   OH277809   1.917   1.144   4.634  0.5143 -0.1328  0.2191
18773TIP3    H177810   1.876   1.204   4.697  0.1057 -0.5663  0.3752
18773TIP3    H277811   1.996   1.113   4.678  1.1613  0.9008 -0.1823
18774TIP3   OH277812   1.690   6.197   1.288  0.1924 -0.3883 -0.3223
18774TIP3    H177813   1.664   6.108   1.265 -0.4666 -0.1595 -0.4872
18774TIP3    H277814   1.756   6.221   1.223  1.4106 -1.2544  0.5604
18775TIP3   OH277815   5.475   1.236   1.800  0.3888  0.0405  0.0367
18775TIP3    H177816   5.558   1.254   1.756  1.0457 -0.1086  1.2021
18775TIP3    H277817   5.425   1.186   1.735  1.1535  0.2184 -0.7148
18776TIP3   OH277818   4.630   1.185   4.816  0.1297 -0.0101  0.1429
18776TIP3    H177819   4.600   1.275   4.803  0.3723  0.0957  0.3073
18776TIP3    H277820   4.724   1.193   4.835  0.1087 -0.2833  0.3755
18777TIP3   OH277821   2.566   5.257   6.328  0.1415  0.0026 -0.3353
18777TIP3    H177822   2.546   5.321   6.260 -1.3876 -1.7157 -1.5805
18777TIP3    H277823   2.481   5.232   6.364  0.3532 -3.1236 -1.6477
18778TIP3   OH277824   4.561   3.024  11.425  0.0771  0.3225  0.3198
18778TIP3    H177825   4.498   2.957  11.399 -0.0104 -0.0612  1.4483
18778TIP3    H277826   4.538   3.043  11.516  2.4185 -0.8002  1.2139
18779TIP3   OH277827   3.744   5.825  14.013 -0.0215  0.2348  0.1894
18779TIP3    H177828   3.662   5.780  14.035  0.1038 -0.1207 -0.0516
18779TIP3    H277829   3.775   5.780  13.934  0.4667  0.2907  0.3475
18780TIP3   OH277830   5.719   3.097  16.386 -0.2400 -0.6791  0.0081
18780TIP3    H177831   5.681   3.178  16.352 -1.0994 -1.1847 -0.2746
18780TIP3    H277832   5.742   3.046  16.308  2.4317  0.2037  0.1305
18781TIP3   OH277833   5.450   2.539   3.395  0.0016  0.4627 -0.3586
18781TIP3    H177834   5.417   2.618   3.351 -1.6455  1.1368  1.8903
18781TIP3    H277835   5.540   2.562   3.420 -0.7364  2.0627  1.0504
18782TIP3   OH277836   2.575   3.910   2.458  0.2178 -0.2823 -0.0296
18782TIP3    H177837   2.666   3.939   2.450 -0.2862  1.4531 -0.0280
18782TIP3    H277838   2.577   3.817   2.437  1.8220 -0.0387 -1.1433
18783TIP3   OH277839   4.488   2.958  16.737 -0.0138 -0.0764 -0.5227
18783TIP3    H177840   4.529   3.043  16.753  0.4238  0.0309 -2.0350
18783TIP3    H277841   4.449   2.933  16.821  1.1889  0.8850  0.3400
18784TIP3   OH277842   4.790   2.114  12.745 -0.1877 -0.5742  0.7048
18784TIP3    H177843   4.807   2.039  12.802  1.6075  1.1415  2.5870
18784TIP3    H277844   4.798   2.078  12.656  1.2744 -2.5022  1.5241
18785TIP3   OH277845   5.086   3.831   4.363  0.2695  0.1061 -0.0655
18785TIP3    H177846   5.064   3.801   4.274 -1.4691  0.2297  0.2892
18785TIP3    H277847   5.002   3.839   4.407  0.9096  2.1877  0.9343
18786TIP3   OH277848   0.707   1.473  12.983  0.0029  0.0740  0.8832
18786TIP3    H177849   0.658   1.553  13.003  0.4649  0.5849  0.0187
18786TIP3    H277850   0.662   1.405  13.033 -2.8905  0.1162 -1.4170
18787TIP3   OH277851   1.203   2.829  14.719 -0.4026 -0.3003  0.0927
18787TIP3    H177852   1.266   2.772  14.764 -1.5331 -0.4442  1.5394
18787TIP3    H277853   1.162   2.772  14.653  0.0856 -0.5353 -0.0126
18788TIP3   OH277854   3.362   0.676  15.598 -0.2060  0.1771 -0.2014
18788TIP3    H177855   3.404   0.603  15.552 -0.0782 -0.6509  1.1736
18788TIP3    H277856   3.284   0.696  15.546  0.5117  0.0199 -1.3684
18789TIP3   OH277857   3.656   2.539   4.670 -0.4087 -0.1580  0.4642
18789TIP3    H177858   3.741   2.503   4.649 -0.1457 -0.0734  1.3307
18789TIP3    H277859   3.667   2.577   4.758 -0.2241  3.3195 -0.8771
18790TIP3   OH277860   3.184   6.511   0.424  0.3071 -0.1529  0.0345
18790TIP3    H177861   3.190   6.523   0.518  0.0510  0.5991 -0.0439
18790TIP3    H277862   3.253   6.566   0.387 -0.3249  0.4395 -0.2774
18791TIP3   OH277863   5.322   0.037  15.179 -0.0976  0.6149 -0.5986
18791TIP3    H177864   5.383   0.103  15.147  0.1454  0.8509  0.3132
18791TIP3    H277865   5.270   0.083  15.245 -0.9020  0.2698 -0.9739
18792TIP3   OH277866   0.711   6.341   2.400  0.0007  0.1603 -0.4016
18792TIP3    H177867   0.695   6.435   2.411  1.9353  0.5279 -0.2429
18792TIP3    H277868   0.716   6.306   2.489  2.2211  0.5368 -0.3038
18793TIP3   OH277869   6.626   5.225  14.923 -0.0522 -0.6755 -0.4495
18793TIP3    H177870   6.700   5.170  14.950  0.5666 -0.1007 -0.9481
18793TIP3    H277871   6.579   5.172  14.859  0.0435 -0.9667 -0.2820
18794TIP3   OH277872   5.061   0.756  12.963  0.2792  0.0456 -0.7383
18794TIP3    H177873   5.083   0.837  13.007 -0.3861  0.2185 -0.7119
18794TIP3    H277874   5.141   0.731  12.917  1.7087 -1.3031  2.2725
18795TIP3   OH277875   0.147   0.866  14.827  0.0136  0.0910 -0.4152
18795TIP3    H177876   0.202   0.854  14.905  0.1055 -1.4660 -0.6768
18795TIP3    H277877   0.200   0.832  14.755 -0.2726  1.0452 -1.0972
18796TIP3   OH277878   4.706   6.570  13.966  0.5178  0.1549  0.3212
18796TIP3    H177879   4.686   6.555  13.874 -0.4254  0.1059  0.5243
18796TIP3    H277880   4.800   6.587  13.968  0.2168  2.2987 -0.9269
18797TIP3   OH277881   2.012   1.735   0.798 -0.3552  0.0096 -0.4089
18797TIP3    H177882   1.943   1.795   0.827 -0.1937  0.1210 -0.2514
18797TIP3    H277883   1.995   1.722   0.704 -0.3999  0.2894 -0.4401
18798TIP3   OH277884   5.969   4.477  16.198  0.2162 -0.2509 -0.3246
18798TIP3    H177885   5.975   4.560  16.247  2.8419 -0.0729 -0.7986
18798TIP3    H277886   5.891   4.435  16.233 -0.5967  1.9307  0.7158
18799TIP3   OH277887   4.347   0.896  11.165 -0.1124  0.2149  0.2255
18799TIP3    H177888   4.316   0.956  11.097 -0.2659 -0.0193  0.0906
18799TIP3    H277889   4.414   0.843  11.122 -1.4444 -1.1602 -0.2654
18800TIP3   OH277890   6.306   2.972  16.534 -0.0763 -0.0915 -0.4742
18800TIP3    H177891   6.264   2.889  16.559 -1.0776  0.6753  0.4811
18800TIP3    H277892   6.277   2.986  16.444 -0.0068 -0.7136 -0.6011
18801TIP3   OH277893   2.131   3.990  16.962  0.0106 -0.4191  0.4075
18801TIP3    H177894   2.167   4.050  17.027 -1.6901  0.8163  0.2926
18801TIP3    H277895   2.075   3.930  17.012  3.2263 -3.3863  0.8175
18802TIP3   OH277896   0.284   4.002   2.244 -0.3367  0.4230  0.2796
18802TIP3    H177897   0.374   4.019   2.216  0.0254 -0.0770  1.0924
18802TIP3    H277898   0.276   4.045   2.329  0.3055 -2.4565  1.9316
18803TIP3   OH277899   4.595   5.248   0.708  0.0437 -0.2720  0.2260
18803TIP3    H177900   4.658   5.306   0.664  0.2241  0.1445  1.0267
18803TIP3    H277901   4.623   5.160   0.683  0.6733 -0.0731  0.2162
18804TIP3   OH277902   6.301   4.332  17.123  0.5768  0.1956 -0.5983
18804TIP3    H177903   6.340   4.412  17.158 -1.4524  1.8767 -1.9818
18804TIP3    H277904   6.286   4.351  17.031 -1.5829 -1.1200 -0.5748
18805TIP3   OH277905   2.521   3.199   3.234  0.0240 -0.0538  0.1607
18805TIP3    H177906   2.430   3.226   3.218  0.7322  3.2126  1.0049
18805TIP3    H277907   2.525   3.183   3.328  0.6720  1.4241  0.3976
18806TIP3   OH277908   2.125   2.307   1.311 -0.0860  0.1191 -0.0376
18806TIP3    H177909   2.096   2.280   1.398 -0.9312  0.0999 -0.3172
18806TIP3    H277910   2.044   2.324   1.263  0.3840  0.9645 -0.5586
18807TIP3   OH277911   6.414   1.650  17.487 -0.0028  0.0400  0.2724
18807TIP3    H177912   6.405   1.706  17.410  1.7681  0.6523  0.4734
18807TIP3    H277913   6.445   1.566  17.452  1.0091  0.3830  0.3029
18808TIP3   OH277914   2.613   3.243  12.698 -0.7272 -0.2682  0.2083
18808TIP3    H177915   2.654   3.177  12.754 -0.1329 -0.3423 -0.2895
18808TIP3    H277916   2.658   3.233  12.614  1.3328  2.5505  0.8104
18809TIP3   OH277917   5.898   2.533  13.674  0.7870 -0.2338  0.0783
18809TIP3    H177918   5.949   2.585  13.613  0.7743 -0.5702 -0.2261
18809TIP3    H277919   5.834   2.487  13.618  0.6966 -0.4501  0.3576
18810TIP3   OH277920   1.619   0.316  15.370 -0.1369 -0.1104  0.1614
18810TIP3    H177921   1.610   0.221  15.378  1.3307 -0.2495  0.3663
18810TIP3    H277922   1.677   0.341  15.442 -1.8733  1.1925  1.1799
18811TIP3   OH277923   4.645   6.480   2.689 -0.0831  0.1896 -0.0161
18811TIP3    H177924   4.594   6.466   2.608  0.5411 -2.7033 -0.0316
18811TIP3    H277925   4.581   6.515   2.751 -1.7589 -1.7085 -0.5346
18812TIP3   OH277926   6.269   5.982  12.901 -0.3412  0.4210 -0.3347
18812TIP3    H177927   6.212   5.908  12.923 -0.4810  0.8659  0.8815
18812TIP3    H277928   6.229   6.021  12.823  0.2079 -1.2573 -1.5023
18813TIP3   OH277929   5.152   1.425   5.124 -0.4133 -0.3255  0.2891
18813TIP3    H177930   5.211   1.377   5.066 -0.0247  0.3112  0.1430
18813TIP3    H277931   5.121   1.360   5.187  0.8779 -0.5642  0.7070
18814TIP3   OH277932   6.408   4.705   4.283  0.3686 -0.0771 -0.3714
18814TIP3    H177933   6.499   4.733   4.297 -0.0255  1.5285 -0.8468
18814TIP3    H277934   6.415   4.636   4.217  1.2353  0.1274 -0.5123
18815TIP3   OH277935   1.589   1.351  15.098 -0.6795  0.5817  0.5667
18815TIP3    H177936   1.646   1.348  15.021 -1.3014  0.4924  0.1080
18815TIP3    H277937   1.636   1.299  15.164 -1.2716 -1.4535 -0.5282
18816TIP3   OH277938   0.494   3.495  10.670  0.3837 -0.2532  0.0481
18816TIP3    H177939   0.554   3.560  10.635  1.7907 -1.4573  0.0981
18816TIP3    H277940   0.475   3.525  10.759  1.7087 -0.3296  0.3787
18817TIP3   OH277941   6.019   1.132  13.056  0.4109  0.5230 -0.0315
18817TIP3    H177942   6.054   1.096  12.976  1.9922 -0.0152  0.8638
18817TIP3    H277943   5.997   1.056  13.110  2.0693  0.8117  1.1456
18818TIP3   OH277944   5.074   3.308  14.271 -0.0689  0.3295  0.0123
18818TIP3    H177945   5.022   3.251  14.328 -0.3091 -0.1199 -0.6511
18818TIP3    H277946   5.164   3.279  14.283  0.2105  1.7675  1.9447
18819TIP3   OH277947   5.875   5.466   4.918 -0.1838  0.1115 -0.3406
18819TIP3    H177948   5.793   5.514   4.927 -0.4251 -0.4502  0.4718
18819TIP3    H277949   5.942   5.535   4.914 -0.4620  0.5382  1.4460
18820TIP3   OH277950   1.052   2.653  11.468  0.0276  0.5420  0.0378
18820TIP3    H177951   1.034   2.640  11.375  0.6220 -0.8044  0.0863
18820TIP3    H277952   1.045   2.566  11.507  0.9574  0.8784  1.0330
18821TIP3   OH277953   1.058   5.442  11.906  0.6848  0.1748  0.5212
18821TIP3    H177954   1.149   5.417  11.888  0.5190 -1.3174  1.5290
18821TIP3    H277955   1.019   5.455  11.820  1.8012  0.6626  0.0675
18822TIP3   OH277956   1.898   2.224   0.686  0.6430 -0.5052 -0.0372
18822TIP3    H177957   1.953   2.295   0.653 -0.5859  0.4236 -0.1965
18822TIP3    H277958   1.862   2.183   0.607 -1.3615  0.9591  0.0164
18823TIP3   OH277959   4.595   2.748   6.280 -0.5847 -0.2670 -0.2617
18823TIP3    H177960   4.589   2.657   6.311 -1.4536 -0.7938 -1.8769
18823TIP3    H277961   4.527   2.795   6.328 -0.1470 -0.4633  0.5673
18824TIP3   OH277962   1.355   1.482   1.613  0.3421 -0.7557  0.1639
18824TIP3    H177963   1.322   1.567   1.584 -0.3320 -0.8271  0.7088
18824TIP3    H277964   1.289   1.419   1.582  0.7066 -1.0568 -0.0105
18825TIP3   OH277965   4.020   0.071  11.545 -0.0949  0.5451  0.0492
18825TIP3    H177966   4.002   0.075  11.452  0.0122 -0.3175 -0.0170
18825TIP3    H277967   3.941   0.106  11.586 -0.7179 -0.3892 -0.3288
18826TIP3   OH277968   3.114   6.674   0.692 -0.5843 -0.0069  0.0467
18826TIP3    H177969   3.051   6.739   0.724  0.3511  1.7734 -1.5601
18826TIP3    H277970   3.070   6.590   0.706 -2.4935  1.0417  0.7589
18827TIP3   OH277971   5.782   6.486   0.724 -0.6729  0.6214  0.0788
18827TIP3    H177972   5.724   6.558   0.698  0.8755  2.1117  0.5936
18827TIP3    H277973   5.760   6.471   0.816  0.9585  2.4751  0.8366
18828TIP3   OH277974   5.907   6.464  11.691  0.0840  0.3004  0.4722
18828TIP3    H177975   5.952   6.384  11.719 -0.3214 -0.5682 -1.2795
18828TIP3    H277976   5.962   6.535  11.727  1.3540 -0.7359  0.6665
18829TIP3   OH277977   3.053   5.853   1.672  0.1042  0.2077 -0.3372
18829TIP3    H177978   3.052   5.768   1.715 -0.8366 -0.3758 -1.4457
18829TIP3    H277979   2.969   5.893   1.693  0.5941  0.9548  0.2970
18830TIP3   OH277980   4.935   2.753  11.277  0.3388  0.1309  0.2923
18830TIP3    H177981   5.008   2.703  11.313 -1.8839 -1.9481  2.2587
18830TIP3    H277982   4.968   2.787  11.194  2.5280 -3.5174 -0.5772
18831TIP3   OH277983   3.609   2.111   2.431  0.5892 -0.3012 -0.0857
18831TIP3    H177984   3.565   2.028   2.412  1.9338 -0.4263 -3.2394
18831TIP3    H277985   3.695   2.085   2.463  0.6682 -0.1173 -0.1478
18832TIP3   OH277986   3.189   6.186   1.239 -0.9895  0.2179 -0.0035
18832TIP3    H177987   3.174   6.122   1.309  1.1134 -1.5684 -1.0562
18832TIP3    H277988   3.147   6.266   1.270 -1.6600 -1.0007  2.4768
18833TIP3   OH277989   4.787   4.190   0.850 -0.0973 -0.0439  0.3706
18833TIP3    H177990   4.799   4.270   0.900 -0.2059 -0.1843  0.6229
18833TIP3    H277991   4.782   4.218   0.759  0.7692  0.1537  0.3764
18834TIP3   OH277992   3.668   3.318  11.923  0.3053 -0.1425 -0.4754
18834TIP3    H177993   3.651   3.224  11.928  2.3361 -0.5528 -0.1428
18834TIP3    H277994   3.586   3.360  11.947  0.2510 -1.8633  2.7872
18835TIP3   OH277995   6.697   1.536  16.493 -0.2934 -0.2086  0.2520
18835TIP3    H177996   6.604   1.523  16.511 -0.1531 -1.2940  0.2427
18835TIP3    H277997   6.705   1.529  16.398 -0.0350 -1.3567  0.3447
18836TIP3   OH277998   1.731   3.629  17.368 -0.1383  0.0009 -0.3760
18836TIP3    H177999   1.781   3.551  17.392  1.3016  0.7725 -0.7388
18836TIP3    H278000   1.698   3.611  17.280  1.8277  0.4965 -1.2816
18837TIP3   OH278001   3.584   1.821   5.625  0.5704 -0.2566 -0.6496
18837TIP3    H178002   3.552   1.911   5.621  0.5126 -0.2524 -0.1602
18837TIP3    H278003   3.537   1.775   5.555  0.5345  0.0737 -0.8394
18838TIP3   OH278004   3.755   0.063   1.848  0.4362  0.4286  0.2859
18838TIP3    H178005   3.738   0.139   1.793 -1.7935  0.1321  0.4861
18838TIP3    H278006   3.844   0.035   1.824  0.2971  1.5120 -1.6832
18839TIP3   OH278007   2.508   6.535  13.529 -0.1231  0.4094 -0.0879
18839TIP3    H178008   2.505   6.440  13.526  2.4697  0.2700 -1.9095
18839TIP3    H278009   2.602   6.556  13.534 -0.5929  2.8580 -0.1373
18840TIP3   OH278010   4.392   3.641  11.841 -0.3301  0.2539 -0.1404
18840TIP3    H178011   4.362   3.584  11.769 -0.9495  2.0044 -1.3418
18840TIP3    H278012   4.324   3.708  11.848  1.1882  1.8453  0.0377
18841TIP3   OH278013   2.022   3.193   4.887  0.5405  0.0714  0.3355
18841TIP3    H178014   2.065   3.257   4.831  2.0392 -0.9696  0.2323
18841TIP3    H278015   2.036   3.226   4.976  1.7041 -0.3200  0.3089
18842TIP3   OH278016   4.406   3.876  17.260 -0.5538 -0.2652 -0.1217
18842TIP3    H178017   4.399   3.954  17.204  1.3006  1.2996  1.6843
18842TIP3    H278018   4.321   3.870  17.304 -0.3429  1.4853  0.5923
18843TIP3   OH278019   5.373   6.468  15.912 -0.1214 -0.0048 -0.8989
18843TIP3    H178020   5.468   6.462  15.900  0.0062  1.3733 -0.6460
18843TIP3    H278021   5.342   6.378  15.900  1.5994 -1.2125  2.5621
18844TIP3   OH278022   6.309   4.831   5.193 -0.2645  0.1095 -0.0799
18844TIP3    H178023   6.386   4.866   5.148  0.7963 -1.0901  0.7231
18844TIP3    H278024   6.319   4.860   5.283  0.4087 -1.8295  0.5039
18845TIP3   OH278025   0.894   6.135   1.052  0.5633 -0.5063 -0.0901
18845TIP3    H178026   0.972   6.088   1.023  1.5922  0.6938  0.6302
18845TIP3    H278027   0.856   6.078   1.120  0.3896 -1.4287 -0.9404
18846TIP3   OH278028   0.539   4.100  13.629 -0.3909 -0.4845  0.4817
18846TIP3    H178029   0.501   4.091  13.542 -1.4436 -1.0103  0.9720
18846TIP3    H278030   0.629   4.070  13.619 -0.5963 -0.8572 -0.3530
18847TIP3   OH278031   6.603   5.859  15.738  0.4622 -0.0577  0.1608
18847TIP3    H178032   6.594   5.768  15.766  0.4170 -0.0659  0.1181
18847TIP3    H278033   6.697   5.871  15.725  0.5418  0.0983  0.8374
18848TIP3   OH278034   6.435   0.320   5.618  0.5342  0.0437 -0.9688
18848TIP3    H178035   6.434   0.285   5.707  1.0163  1.0227 -0.5691
18848TIP3    H278036   6.428   0.414   5.629  2.5566  0.3627 -1.8449
18849TIP3   OH278037   5.184   4.739   0.656  0.0379 -0.3995 -0.1503
18849TIP3    H178038   5.277   4.716   0.661 -0.1678 -1.1437  0.3439
18849TIP3    H278039   5.178   4.798   0.581  0.9207 -0.2928 -0.1465
18850TIP3   OH278040   3.885   3.024   3.043 -0.8067 -0.3859 -0.4441
18850TIP3    H178041   3.905   3.108   3.084  1.5515 -0.2296 -1.7015
18850TIP3    H278042   3.949   2.963   3.081  0.8816 -0.4204 -3.0789
18851TIP3   OH278043   0.212   2.987   4.433 -0.0007 -0.6763 -0.5165
18851TIP3    H178044   0.137   3.017   4.381  0.1435  0.2190 -0.2372
18851TIP3    H278045   0.174   2.957   4.516  0.0232  0.8996  0.1004
18852TIP3   OH278046   3.648   2.834   0.738  0.3732  0.2024  0.9442
18852TIP3    H178047   3.681   2.870   0.820  2.3209 -0.3410  0.4305
18852TIP3    H278048   3.725   2.826   0.682 -0.5655 -1.4674 -0.1868
18853TIP3   OH278049   3.754   0.487  12.124 -0.1262 -0.4095  0.2902
18853TIP3    H178050   3.704   0.476  12.205 -1.9007 -0.5345 -0.7462
18853TIP3    H278051   3.730   0.575  12.094 -0.3174 -0.7604 -0.6082
18854TIP3   OH278052   1.124   6.106  17.315  0.6452  0.1965  0.0352
18854TIP3    H178053   1.041   6.061  17.330  0.1672  0.6498 -1.1146
18854TIP3    H278054   1.125   6.123  17.220  1.4664  1.3104  0.2215
18855TIP3   OH278055   6.235   0.549   4.302  0.3754  0.1133 -0.0484
18855TIP3    H178056   6.300   0.496   4.256  0.4741  0.0347  0.1806
18855TIP3    H278057   6.236   0.516   4.392 -0.3022 -0.1919 -0.1485
18856TIP3   OH278058   1.662   4.920  12.759  0.6716  0.7458 -0.5419
18856TIP3    H178059   1.729   4.984  12.780 -0.2033  1.3224  0.5967
18856TIP3    H278060   1.702   4.865  12.692  1.9797  1.5554 -0.4663
18857TIP3   OH278061   1.574   1.863  17.222 -0.5281 -0.0346  0.0278
18857TIP3    H178062   1.657   1.896  17.187  0.1253  0.8021  2.2001
18857TIP3    H278063   1.532   1.820  17.147  0.9877  1.1522 -1.5993
18858TIP3   OH278064   4.042   4.970   5.663  0.7141  0.0610  0.6938
18858TIP3    H178065   4.010   4.887   5.698  1.6836 -0.9529 -0.7094
18858TIP3    H278066   4.116   4.993   5.720  2.6750 -1.8933 -0.9046
18859TIP3   OH278067   2.451   4.087  16.125 -0.7805 -0.0032  0.0736
18859TIP3    H178068   2.531   4.081  16.072 -0.4064  0.8946  0.5278
18859TIP3    H278069   2.385   4.041  16.072  1.0275 -5.4823  1.8575
18860TIP3   OH278070   5.352   6.501  13.806 -0.2742  0.5379  0.0206
18860TIP3    H178071   5.335   6.455  13.723 -0.7638  1.8770 -0.6428
18860TIP3    H278072   5.339   6.434  13.873  2.6990 -1.2926 -1.0490
18861TIP3   OH278073   2.964   3.025   6.938 -0.4200  0.3305  0.2049
18861TIP3    H178074   3.000   2.983   6.860 -0.6317  1.9168 -0.7918
18861TIP3    H278075   2.873   2.992   6.942 -0.1118 -0.5384  0.3992
18862TIP3   OH278076   1.457   5.522  15.734  0.3072 -0.3483  0.4049
18862TIP3    H178077   1.387   5.458  15.716  1.8416 -2.5058  1.7157
18862TIP3    H278078   1.511   5.480  15.801  3.3148  0.8794 -1.0925
18863TIP3   OH278079   1.102   3.062  15.111  0.0147 -0.5340 -0.9979
18863TIP3    H178080   1.091   2.986  15.168 -2.2154  0.9684  0.7166
18863TIP3    H278081   1.189   3.096  15.133 -0.6693 -0.1670  1.3372
18864TIP3   OH278082   4.758   2.977   0.342 -0.0281  0.5511  0.3434
18864TIP3    H178083   4.679   2.950   0.295  0.5803 -1.7317  0.5537
18864TIP3    H278084   4.728   2.991   0.432 -0.4621  1.2476  0.1055
18865TIP3   OH278085   5.016   2.674  10.150  0.5030 -0.0701 -0.1631
18865TIP3    H178086   4.934   2.625  10.163 -0.1605  0.8940 -0.5408
18865TIP3    H278087   4.987   2.762  10.127  1.5995 -0.4480 -3.5126
18866TIP3   OH278088   2.012   0.618   5.811 -0.4026 -0.2103 -0.2051
18866TIP3    H178089   2.038   0.601   5.902  2.2415  2.3380 -0.3172
18866TIP3    H278090   2.095   0.618   5.763 -1.1804  2.8221 -1.7664
18867TIP3   OH278091   0.994   2.012  10.956  0.5701  0.2503 -0.0128
18867TIP3    H178092   0.992   1.997  10.861 -0.8575  1.7727 -0.2683
18867TIP3    H278093   0.947   2.095  10.968 -0.8873 -0.7946  2.1851
18868TIP3   OH278094   5.049   1.760  11.085 -0.1764  0.1723 -0.4221
18868TIP3    H178095   5.019   1.785  10.997  1.1270 -0.6397 -1.1204
18868TIP3    H278096   5.144   1.766  11.081  0.0114 -1.6016  0.3878
18869TIP3   OH278097   1.715   0.020  13.633  0.6296 -0.1261 -0.3279
18869TIP3    H178098   1.775   0.056  13.698  2.0301 -0.5269 -1.3604
18869TIP3    H278099   1.769   0.003  13.557 -0.9019 -0.0188 -1.4950
18870TIP3   OH278100   0.832   6.655  16.709  0.9832 -0.0592 -0.7720
18870TIP3    H178101   0.784   6.623  16.633 -1.4584  2.1951 -0.3149
18870TIP3    H278102   0.859   6.744  16.686  0.2193  0.6564  0.9130
18871TIP3   OH278103   2.713   6.567   3.443 -0.1372  0.8279  0.3940
18871TIP3    H178104   2.715   6.510   3.520 -3.4884  1.0794  0.8289
18871TIP3    H278105   2.648   6.526   3.385  1.2119  1.4701 -1.6716
18872TIP3   OH278106   5.363   2.686  11.981  0.5000 -0.6448 -0.2381
18872TIP3    H178107   5.417   2.678  11.902  0.2090 -0.7192 -0.4321
18872TIP3    H278108   5.415   2.739  12.041  0.5347 -0.2119 -0.6477
18873TIP3   OH278109   1.788   5.840   5.982 -0.5172 -0.0684  0.3653
18873TIP3    H178110   1.816   5.844   6.073 -1.5338 -2.5530  0.8635
18873TIP3    H278111   1.750   5.927   5.965 -0.0289  0.5432  2.1936
18874TIP3   OH278112   0.507   5.768  11.168 -0.4258  0.0757 -0.0064
18874TIP3    H178113   0.591   5.798  11.134 -0.8557 -0.0294 -1.1909
18874TIP3    H278114   0.471   5.713  11.100 -1.4399  0.0777  0.5057
18875TIP3   OH278115   1.842   2.995   4.844 -0.4778 -0.0070 -0.7865
18875TIP3    H178116   1.863   2.907   4.876 -2.7722 -0.6180 -0.7302
18875TIP3    H278117   1.916   3.049   4.871  0.1594 -1.5576  0.7941
18876TIP3   OH278118   0.217   2.323  12.001  0.7042 -1.0645 -0.2400
18876TIP3    H178119   0.201   2.355  12.090 -0.4169 -0.6153 -0.5826
18876TIP3    H278120   0.282   2.384  11.965  0.9452 -1.0743  0.1732
18877TIP3   OH278121   0.015   3.869  11.585 -0.0058 -0.1985 -0.1836
18877TIP3    H178122   0.037   3.952  11.627 -1.1416  0.2276 -0.3813
18877TIP3    H278123  -0.041   3.825  11.648 -0.0721 -0.4491 -0.4181
18878TIP3   OH278124   1.669   2.111   5.150 -0.1023 -0.0601  0.7715
18878TIP3    H178125   1.658   2.134   5.058  0.0692 -0.7487  0.5738
18878TIP3    H278126   1.761   2.133   5.169 -0.1757  0.2126  0.8224
18879TIP3   OH278127   0.513   0.438  16.835  0.3889  0.0701  0.5351
18879TIP3    H178128   0.562   0.384  16.897 -0.7011  1.2070  2.4806
18879TIP3    H278129   0.475   0.507  16.889 -1.4308  0.5454 -1.2668
18880TIP3   OH278130   1.443   4.276  16.161  0.1776  0.0542 -0.3177
18880TIP3    H178131   1.538   4.290  16.159  0.3345  0.0121  2.5338
18880TIP3    H278132   1.434   4.186  16.194 -0.9242 -1.2817 -3.8033
18881TIP3   OH278133   0.298   2.690  12.603  0.0134  0.1738 -0.3901
18881TIP3    H178134   0.313   2.658  12.692 -0.5606  1.1340  0.0776
18881TIP3    H278135   0.330   2.621  12.546 -0.5329 -0.8985  0.5661
18882TIP3   OH278136   4.848   5.882  12.890 -0.3037 -0.3921  0.3742
18882TIP3    H178137   4.849   5.955  12.952  2.3141  0.7184 -0.8118
18882TIP3    H278138   4.805   5.918  12.812  0.5651 -0.2185 -0.0417
18883TIP3   OH278139   1.928   0.217   1.159 -0.3152  0.3023 -0.1757
18883TIP3    H178140   1.944   0.143   1.101  0.1697  1.2000 -1.2075
18883TIP3    H278141   1.994   0.282   1.135  0.3628  0.4493  1.8587
18884TIP3   OH278142   4.089   2.780   1.113  0.2759  0.4773 -0.3048
18884TIP3    H178143   4.071   2.701   1.062 -0.3515 -0.0022  0.6109
18884TIP3    H278144   4.004   2.823   1.122  0.4041  0.6469  0.1590
18885TIP3   OH278145   5.899   5.594   1.860  0.2569  1.1130 -0.5597
18885TIP3    H178146   5.964   5.554   1.803  1.9118 -0.4230  2.1600
18885TIP3    H278147   5.944   5.669   1.898  0.4882  0.1385  1.2162
18886TIP3   OH278148   3.704   4.152  11.786  0.1569  0.0995  0.0480
18886TIP3    H178149   3.719   4.124  11.876  0.2015 -2.2570 -0.6383
18886TIP3    H278150   3.736   4.243  11.784  1.0884 -0.1148  2.1209
18887TIP3   OH278151   3.764   4.073  15.860  0.9107  0.0374 -0.0112
18887TIP3    H178152   3.731   3.983  15.860  0.0892  0.3010  1.6542
18887TIP3    H278153   3.852   4.066  15.897  1.9995 -0.3824 -2.4523
18888TIP3   OH278154   1.384   5.482  17.056 -0.0772  0.0825  0.0319
18888TIP3    H178155   1.373   5.467  17.150 -2.4715 -1.3379 -0.3886
18888TIP3    H278156   1.447   5.416  17.027  0.1220  0.0623  0.5154
18889TIP3   OH278157   6.025   1.024   4.269  0.1601  0.3501 -0.1108
18889TIP3    H178158   5.970   0.970   4.325  1.6649 -0.4234  0.6995
18889TIP3    H278159   6.016   0.985   4.182 -1.4068  0.9280 -0.2199
18890TIP3   OH278160   0.174   1.024   6.231  0.1514  0.0626 -0.4835
18890TIP3    H178161   0.197   1.029   6.324  1.1590  0.1347 -0.7227
18890TIP3    H278162   0.092   1.073   6.224  0.4158  0.6421  0.2641
18891TIP3   OH278163   0.507   5.351  15.687 -0.5991 -0.1779 -0.9148
18891TIP3    H178164   0.594   5.383  15.713 -0.4720 -0.9296 -0.3531
18891TIP3    H278165   0.511   5.348  15.591  0.3567 -1.1141 -0.8731
18892TIP3   OH278166   1.304   6.697  16.405  0.1090  0.5223  0.2022
18892TIP3    H178167   1.367   6.653  16.348  0.0220  1.2209 -0.4538
18892TIP3    H278168   1.271   6.769  16.352 -1.5810 -0.0876  0.3821
18893TIP3   OH278169   5.862   1.291  16.372 -0.1162  0.3296  0.3510
18893TIP3    H178170   5.796   1.262  16.435  1.1598  0.3360  1.7580
18893TIP3    H278171   5.841   1.383  16.357 -0.5392  0.2863  0.6329
18894TIP3   OH278172   6.608   0.970  15.072 -0.6206  0.7112  0.3908
18894TIP3    H178173   6.698   0.969  15.105  0.1233 -1.7376 -1.4623
18894TIP3    H278174   6.556   0.998  15.147  1.5809  1.5104  1.7287
18895TIP3   OH278175   2.633   0.418   5.104  0.2244 -0.1447  0.2024
18895TIP3    H178176   2.557   0.474   5.122  2.0414  2.1660  1.2131
18895TIP3    H278177   2.647   0.371   5.186 -0.4452 -1.0492 -0.1859
18896TIP3   OH278178   3.530   2.277   3.134 -0.3289  0.0273 -0.3377
18896TIP3    H178179   3.585   2.276   3.056  0.0757 -0.8044 -0.0644
18896TIP3    H278180   3.450   2.321   3.108 -0.8974 -1.7032 -1.7320
18897TIP3   OH278181   5.401   3.658  16.628  0.3640 -0.0525 -0.4163
18897TIP3    H178182   5.363   3.626  16.709  1.5528  1.0331  0.6077
18897TIP3    H278183   5.419   3.579  16.577  2.8864 -1.0679  1.8608
18898TIP3   OH278184   4.134   1.868   2.129 -0.0327 -0.2354  1.0281
18898TIP3    H178185   4.194   1.942   2.118 -0.5607  0.2512  1.3480
18898TIP3    H278186   4.074   1.873   2.055 -1.5227  1.0723  2.2437
18899TIP3   OH278187   5.708   5.887  13.025  0.2521 -0.2303 -0.0942
18899TIP3    H178188   5.735   5.814  12.970  0.7234  0.4678 -0.8157
18899TIP3    H278189   5.626   5.917  12.988 -0.6417 -1.2221  1.0177
18900TIP3   OH278190   1.115   4.539  10.745 -0.1183  0.3210  0.1314
18900TIP3    H178191   1.103   4.606  10.678 -0.9474  1.5116  1.4033
18900TIP3    H278192   1.029   4.497  10.752  0.6067 -1.5183 -1.2488
18901TIP3   OH278193   5.376   5.054  15.314 -0.2439 -0.0647  0.6856
18901TIP3    H178194   5.285   5.036  15.293  0.1204  0.0340 -1.1524
18901TIP3    H278195   5.405   4.976  15.362 -0.5054 -1.4901 -1.3403
18902TIP3   OH278196   1.910   3.228  15.638  0.1142  0.0087  0.5638
18902TIP3    H178197   2.001   3.237  15.665  0.5413  1.5511 -1.2340
18902TIP3    H278198   1.871   3.313  15.656 -0.6451 -0.2379  0.1249
18903TIP3   OH278199   5.219   0.116   2.030 -0.8585  0.2360  0.2787
18903TIP3    H178200   5.216   0.182   1.961 -0.2049 -0.3807 -0.3644
18903TIP3    H278201   5.196   0.163   2.110 -0.8496  1.1336 -0.2352
18904TIP3   OH278202   5.905   3.549  11.766  0.2197 -0.0490 -0.3140
18904TIP3    H178203   5.980   3.604  11.744 -0.1216  1.2144  1.5291
18904TIP3    H278204   5.924   3.465  11.723  3.4211 -0.2742  1.2385
18905TIP3   OH278205   5.929   3.767  16.103  0.9904 -0.1483  0.0535
18905TIP3    H178206   5.862   3.787  16.168  0.7463 -0.7733 -0.0018
18905TIP3    H278207   5.941   3.850  16.056  0.1225 -0.0717 -0.0625
18906TIP3   OH278208   1.318   1.993   3.952 -0.3818  0.1071  0.5591
18906TIP3    H178209   1.227   2.021   3.940 -0.0251  0.0365 -3.4229
18906TIP3    H278210   1.356   2.060   4.008 -2.0079  2.2195 -0.7165
18907TIP3   OH278211   4.288   1.540  16.515  0.1697 -0.4865  0.0000
18907TIP3    H178212   4.258   1.542  16.425  1.1724  0.2419 -0.3280
18907TIP3    H278213   4.221   1.588  16.564 -0.2444 -0.6603 -0.3961
18908TIP3   OH278214   4.237   4.493  13.740  0.0822  1.0496 -0.3885
18908TIP3    H178215   4.194   4.412  13.767 -0.0990  1.1683 -0.3157
18908TIP3    H278216   4.328   4.482  13.766 -0.4254  1.9222  2.0292
18909TIP3   OH278217   3.144   4.748  13.949  0.1993  0.2039  0.3258
18909TIP3    H178218   3.055   4.784  13.942  0.1482 -0.0908 -0.6838
18909TIP3    H278219   3.167   4.759  14.041 -0.3378  1.5964  0.3277
18910TIP3   OH278220   5.448   4.062   2.330  0.3845  0.4038 -0.3323
18910TIP3    H178221   5.422   4.057   2.238  0.5985 -0.3474 -0.3532
18910TIP3    H278222   5.504   3.986   2.344 -0.1091  0.1896  0.5620
18911TIP3   OH278223   3.008   0.856   4.678  0.2371  0.0742 -0.6410
18911TIP3    H178224   3.005   0.889   4.767 -0.2116  0.1995 -0.7034
18911TIP3    H278225   3.069   0.915   4.632  2.2087 -1.2582  0.0967
18912TIP3   OH278226   0.427   0.319  14.345 -0.0986 -0.0786 -0.1897
18912TIP3    H178227   0.393   0.245  14.295 -1.0594  0.5223 -0.4712
18912TIP3    H278228   0.517   0.330  14.315  0.1326 -1.2531  0.0194
18913TIP3   OH278229   1.631   1.328  14.401 -0.0368 -0.6586  0.2646
18913TIP3    H178230   1.566   1.341  14.470 -0.2303 -2.5075  0.4781
18913TIP3    H278231   1.582   1.288  14.330  0.2773  0.7239 -0.7754
18914TIP3   OH278232   6.539   5.109   4.509 -0.3384  0.6091 -0.3817
18914TIP3    H178233   6.603   5.057   4.557 -0.5652  0.5435 -0.1465
18914TIP3    H278234   6.508   5.173   4.572 -0.3582  0.7680 -0.5532
18915TIP3   OH278235   4.642   2.117  14.764 -0.4453  0.0312  0.0065
18915TIP3    H178236   4.718   2.120  14.706  0.1445  1.3164  0.7991
18915TIP3    H278237   4.582   2.055  14.722  0.2055  0.4787 -1.6615
18916TIP3   OH278238   1.032   5.605  12.371 -0.1148 -0.0081  0.1845
18916TIP3    H178239   1.013   5.556  12.291 -0.6994  0.7066 -0.1319
18916TIP3    H278240   0.958   5.664  12.380  0.4930  0.6990  0.6443
18917TIP3   OH278241   2.033   0.398   2.850 -0.5615  0.1759 -0.7889
18917TIP3    H178242   1.939   0.406   2.835 -0.3536  0.3783 -2.0917
18917TIP3    H278243   2.058   0.480   2.892 -0.9640  0.1086 -0.4093
18918TIP3   OH278244   4.344   5.591   1.402 -0.2963  0.7598 -0.2925
18918TIP3    H178245   4.331   5.685   1.415  0.0014  0.5470  2.0278
18918TIP3    H278246   4.439   5.578   1.409 -0.4327  0.1592  0.7498
18919TIP3   OH278247   5.318   4.101   5.574  0.1360  0.2592  0.0834
18919TIP3    H178248   5.375   4.084   5.649 -1.9717 -2.2484  1.2780
18919TIP3    H278249   5.336   4.029   5.514 -4.0383 -2.9081  2.1042
18920TIP3   OH278250   4.189   3.876   1.942 -0.0952  0.8088 -0.5320
18920TIP3    H178251   4.098   3.891   1.967 -0.2767  2.3043 -1.9505
18920TIP3    H278252   4.185   3.855   1.849  0.8390 -1.4319 -0.1399
18921TIP3   OH278253   1.440   5.560  13.160  0.4369  0.2490  0.2417
18921TIP3    H178254   1.435   5.595  13.249 -0.9864  0.9314 -0.0741
18921TIP3    H278255   1.349   5.555  13.131  0.9227  1.2623 -1.6269
18922TIP3   OH278256   0.802   3.784   2.677 -0.4409  0.2349  0.5071
18922TIP3    H178257   0.749   3.854   2.714  0.5439 -0.7105  4.0985
18922TIP3    H278258   0.803   3.716   2.744  1.3591 -1.8568 -1.4438
18923TIP3   OH278259   0.185   5.124  14.068  0.3304  0.1439 -0.4720
18923TIP3    H178260   0.178   5.123  13.972  3.0652  0.2905 -0.7315
18923TIP3    H278261   0.190   5.032  14.092  1.0571  0.1495 -0.6029
18924TIP3   OH278262   3.257   5.575  13.783 -0.1395 -0.5019  0.1832
18924TIP3    H178263   3.267   5.521  13.861  0.7063 -0.0292  0.4166
18924TIP3    H278264   3.341   5.619  13.773 -0.4757 -0.0046 -0.5833
18925TIP3   OH278265   3.164   1.243   4.039  0.2022 -0.1035 -0.7474
18925TIP3    H178266   3.222   1.290   4.100 -1.5319 -1.3918  2.1460
18925TIP3    H278267   3.079   1.284   4.053 -0.3661 -0.8717 -1.8841
18926TIP3   OH278268   1.675   5.669   1.045 -0.1464 -0.2923 -0.1686
18926TIP3    H178269   1.756   5.651   1.093 -0.1652  0.7884  0.2943
18926TIP3    H278270   1.696   5.651   0.954  0.0163 -1.9691  0.1587
18927TIP3   OH278271   1.516   5.322  14.080  0.2922 -0.7415 -0.1088
18927TIP3    H178272   1.446   5.361  14.133  2.1031  3.7260 -0.5362
18927TIP3    H278273   1.596   5.362  14.113  2.6349 -4.5714 -0.5539
18928TIP3   OH278274   2.817   0.322  14.622 -0.1928  0.0177  0.0265
18928TIP3    H178275   2.730   0.329  14.582  0.0506 -0.5051 -0.6074
18928TIP3    H278276   2.811   0.244  14.678 -0.4386  0.5713  0.7852
18929TIP3   OH278277   2.271   1.470  14.585 -0.0867  0.4800  0.6212
18929TIP3    H178278   2.263   1.413  14.661  2.7213  1.5807  1.8794
18929TIP3    H278279   2.222   1.549  14.609 -0.4470  0.2562  0.6363
18930TIP3   OH278280   3.667   1.083   6.370 -0.3790 -0.1796 -0.1282
18930TIP3    H178281   3.632   1.098   6.458  1.2748 -1.3290  0.7714
18930TIP3    H278282   3.702   1.168   6.343 -2.5715  0.6740 -0.5270
18931TIP3   OH278283   4.439   2.932   3.396 -0.1786  0.4165 -0.6611
18931TIP3    H178284   4.479   2.848   3.373  0.6384  0.8618 -0.9279
18931TIP3    H278285   4.464   2.946   3.487  0.6105  0.8570 -0.9276
18932TIP3   OH278286   2.170   1.106  12.561 -0.1409  0.9472  0.3068
18932TIP3    H178287   2.141   1.135  12.474  1.6568  0.6889 -0.4335
18932TIP3    H278288   2.227   1.030  12.543  0.8519  1.3365  1.6411
18933TIP3   OH278289   4.799   2.667   4.184  0.6169  0.1293  0.2082
18933TIP3    H178290   4.806   2.758   4.215 -1.1106  0.6143 -0.6815
18933TIP3    H278291   4.881   2.627   4.210  1.4994  1.9885  0.4999
18934TIP3   OH278292   2.349   1.557   1.705  0.2336  0.6419  0.6155
18934TIP3    H178293   2.339   1.523   1.794 -0.2455  0.7362  0.6039
18934TIP3    H278294   2.443   1.571   1.694  0.3460  0.1597  0.9304
18935TIP3   OH278295   5.084   2.469  14.605 -0.2818  0.1942  0.3006
18935TIP3    H178296   5.145   2.535  14.638 -1.2734  1.1891  0.1852
18935TIP3    H278297   5.028   2.449  14.679  0.0858 -0.6406  0.3731
18936TIP3   OH278298   4.246   0.375   2.202 -0.3200 -0.1066 -0.1471
18936TIP3    H178299   4.273   0.287   2.176  0.2996 -0.2916  1.0509
18936TIP3    H278300   4.189   0.405   2.131  1.3461 -0.5385 -1.7302
18937TIP3   OH278301   2.789   4.496  15.546  0.1887 -0.5768 -0.4057
18937TIP3    H178302   2.753   4.532  15.465  1.8874  1.2995 -0.4164
18937TIP3    H278303   2.749   4.548  15.615 -0.2610 -1.2914 -0.1219
18938TIP3   OH278304   1.245   1.421  13.159 -0.4430 -0.2407  0.0959
18938TIP3    H178305   1.234   1.348  13.098 -0.9626  0.2974 -0.4677
18938TIP3    H278306   1.155   1.448  13.180 -0.2544  0.9136 -0.5189
18939TIP3   OH278307   5.117   5.948  11.484  0.1914 -0.0535  0.5464
18939TIP3    H178308   5.060   5.871  11.485  0.3071 -0.1803 -0.7563
18939TIP3    H278309   5.155   5.948  11.396  1.6020  0.4690  1.1377
18940TIP3   OH278310   4.670   2.046  15.949  0.7030 -0.6163  0.2178
18940TIP3    H178311   4.609   2.098  16.001  1.4810  1.2584 -0.6148
18940TIP3    H278312   4.660   2.080  15.860  2.3152 -0.8514 -0.0825
18941TIP3   OH278313   1.450   0.263  16.153  0.3539 -0.3401 -0.0304
18941TIP3    H178314   1.381   0.215  16.106 -0.0533  1.3326 -1.2245
18941TIP3    H278315   1.403   0.333  16.199  0.9725 -0.8477  1.4155
18942TIP3   OH278316   6.719   3.776  14.021  0.3656 -0.4015  0.5918
18942TIP3    H178317   6.768   3.859  14.016  2.2938 -1.5270 -0.5283
18942TIP3    H278318   6.758   3.721  13.953 -2.4894 -1.4580 -0.3118
18943TIP3   OH278319   1.964   2.214   5.964  0.1198 -0.5830  0.1062
18943TIP3    H178320   2.010   2.193   6.045  0.8324 -1.0550 -0.4121
18943TIP3    H278321   1.905   2.140   5.951  0.8751 -1.1057 -0.4314
18944TIP3   OH278322   0.159   0.174  11.412  0.1353  0.6297 -0.8245
18944TIP3    H178323   0.080   0.168  11.359  0.3357  0.1649 -1.0793
18944TIP3    H278324   0.226   0.130  11.360 -0.0179 -1.2688  0.4881
18945TIP3   OH278325   5.477   3.051   2.250  0.4484 -0.0409 -0.2566
18945TIP3    H178326   5.434   3.113   2.308 -0.1568 -0.2321 -0.4835
18945TIP3    H278327   5.444   2.965   2.278 -0.3479 -0.0920 -1.2544
18946TIP3   OH278328   4.086   3.822  13.463 -0.3280 -0.2570  0.0184
18946TIP3    H178329   4.082   3.858  13.374 -0.0001 -0.6120 -0.1455
18946TIP3    H278330   4.133   3.889  13.514  1.9733 -1.2067 -0.7032
18947TIP3   OH278331   5.195   0.387   5.789 -0.1252 -0.1615  0.5842
18947TIP3    H178332   5.159   0.304   5.821 -1.1517  0.3502  0.7917
18947TIP3    H278333   5.156   0.453   5.846 -0.6344  0.6167 -0.6394
18948TIP3   OH278334   6.593   0.011  16.944  0.3853  0.7740  0.1941
18948TIP3    H178335   6.627   0.007  17.034  1.3395  0.3574 -0.1661
18948TIP3    H278336   6.592  -0.080  16.915  0.4620  0.9433 -0.3487
18949TIP3   OH278337   1.127   1.550  15.756 -0.0529 -0.2284  0.4538
18949TIP3    H178338   1.041   1.517  15.731 -0.2108  0.8197 -0.4527
18949TIP3    H278339   1.114   1.588  15.843 -0.8965  1.3098 -0.3148
18950TIP3   OH278340   5.304   4.107  11.403  0.2736 -0.2637  0.3829
18950TIP3    H178341   5.218   4.135  11.434  1.2017  1.0014  1.9808
18950TIP3    H278342   5.322   4.164  11.328  0.6005  1.0151  1.3890
18951TIP3   OH278343   2.643   3.129   1.459 -0.5479  0.1678 -0.2046
18951TIP3    H178344   2.664   3.108   1.368 -0.9062 -3.1803  0.3768
18951TIP3    H278345   2.727   3.144   1.501 -0.0799 -1.6467 -0.4146
18952TIP3   OH278346   4.052   5.429  15.585 -0.2509  0.1702 -0.2966
18952TIP3    H178347   3.996   5.462  15.515  0.8159  0.2734 -1.1236
18952TIP3    H278348   4.021   5.340  15.602  0.6144 -0.5415 -2.1896
18953TIP3   OH278349   1.958   0.268  16.124 -0.3776  0.3599 -0.3312
18953TIP3    H178350   2.013   0.324  16.070 -0.7320  0.7413 -0.3087
18953TIP3    H278351   1.876   0.261  16.075  0.2083 -1.4977 -1.1389
18954TIP3   OH278352   5.053   1.112   0.688  0.9006 -0.5671 -0.0565
18954TIP3    H178353   5.128   1.069   0.730  1.0644 -0.4314 -0.2075
18954TIP3    H278354   5.092   1.165   0.618  0.8073  0.7189  0.8378
18955TIP3   OH278355   6.764   1.714  11.790  0.3347  0.2308  0.3983
18955TIP3    H178356   6.747   1.648  11.858 -1.9531  0.4422  0.1214
18955TIP3    H278357   6.680   1.725  11.746  1.7618 -0.0814 -2.6959
18956TIP3   OH278358   5.756   0.882  12.488 -0.2296  0.3912 -0.6486
18956TIP3    H178359   5.834   0.890  12.543 -0.5545 -0.8312  0.0258
18956TIP3    H278360   5.684   0.906  12.546 -0.3420  2.2367 -1.4715
18957TIP3   OH278361   1.276   5.305   4.563 -0.4883  0.0178 -0.8264
18957TIP3    H178362   1.183   5.304   4.543 -0.6399  2.8329 -0.5575
18957TIP3    H278363   1.296   5.214   4.586 -3.3619 -0.4884  0.0506
18958TIP3   OH278364   1.243   2.907  15.852  0.0211 -0.1571  0.9223
18958TIP3    H178365   1.236   2.824  15.805 -0.2042  0.0991  0.4903
18958TIP3    H278366   1.160   2.951  15.835  0.6486  0.7319  0.0134
18959TIP3   OH278367   3.296   2.570  15.450 -0.3785 -0.0452  0.0431
18959TIP3    H178368   3.328   2.657  15.426  0.7557 -0.1954  0.9122
18959TIP3    H278369   3.244   2.585  15.529  2.5089 -0.4760  2.1856
18960TIP3   OH278370   1.167   2.363  16.171  0.3928  0.3297 -0.7000
18960TIP3    H178371   1.259   2.380  16.154  0.5785  0.4517  0.3590
18960TIP3    H278372   1.158   2.268  16.163  1.1034  0.0510  1.3641
18961TIP3   OH278373   0.434   0.575  10.847  0.3578  0.5538  0.0547
18961TIP3    H178374   0.525   0.547  10.843  0.0187 -0.9152  1.6265
18961TIP3    H278375   0.416   0.609  10.759  2.0246 -0.3086 -0.6737
18962TIP3   OH278376   2.710   3.985  12.890 -0.2362  0.4376 -0.6841
18962TIP3    H178377   2.703   4.079  12.870 -0.8633  0.5655  0.0716
18962TIP3    H278378   2.803   3.972  12.909 -0.3787  1.2662  0.7830
18963TIP3   OH278379   5.341   2.343   0.566 -0.1203  0.0825 -0.1559
18963TIP3    H178380   5.262   2.379   0.605  0.1908  0.4029  0.1901
18963TIP3    H278381   5.337   2.370   0.474  0.2616  1.3182  0.1567
18964TIP3   OH278382   2.621   4.465  14.496 -0.1488 -0.0966  0.0998
18964TIP3    H178383   2.568   4.511  14.432 -0.4711 -1.3450 -0.5712
18964TIP3    H278384   2.597   4.504  14.580  0.0453  1.3418 -0.4879
18965TIP3   OH278385   2.912   4.926  15.815 -0.1150  0.0644  0.4706
18965TIP3    H178386   2.998   4.900  15.781 -0.3895  0.3004 -0.4151
18965TIP3    H278387   2.921   4.917  15.910  0.6012 -0.7839  0.3344
18966TIP3   OH278388   2.425   5.395   0.035  0.1513  0.2830  0.4981
18966TIP3    H178389   2.460   5.445   0.109 -0.4354  0.2851  0.7766
18966TIP3    H278390   2.494   5.332   0.014  0.8523  1.1198  0.2213
18967TIP3   OH278391   1.432   0.555  13.872  0.0743 -0.4245  0.1021
18967TIP3    H178392   1.356   0.541  13.814 -0.3919  0.8985  0.3576
18967TIP3    H278393   1.504   0.509  13.829 -0.2678  0.5041 -1.5467
18968TIP3   OH278394   3.722   5.112  11.884  0.5364 -0.1392 -0.5225
18968TIP3    H178395   3.772   5.067  11.816 -0.2037 -1.1427 -0.4262
18968TIP3    H278396   3.689   5.191  11.841  1.0832 -0.1441 -0.9686
18969TIP3   OH278397   1.217   0.469   3.484 -0.1047 -0.0915 -0.2083
18969TIP3    H178398   1.295   0.499   3.530  0.0568 -0.9530  0.1042
18969TIP3    H278399   1.149   0.465   3.550 -0.8404  2.0575 -0.7595
18970TIP3   OH278400   0.592   4.713  16.414  0.8449  0.3388  0.0086
18970TIP3    H178401   0.618   4.764  16.337  1.3598  0.2623  0.1270
18970TIP3    H278402   0.671   4.665  16.438  0.3727 -0.4884 -0.0810
18971TIP3   OH278403   6.198   2.564   1.561  0.3911  0.3687  0.0838
18971TIP3    H178404   6.151   2.581   1.479  2.3274 -2.0024 -1.6633
18971TIP3    H278405   6.286   2.540   1.534 -0.0178 -5.0905  2.3455
18972TIP3   OH278406   0.707   3.846  12.835  0.1296  0.2872 -0.4811
18972TIP3    H178407   0.668   3.909  12.774  0.2517  1.7239  0.8578
18972TIP3    H278408   0.774   3.802  12.784 -1.0897  0.0099 -1.9366
18973TIP3   OH278409   4.175   6.759   0.134  0.3682  0.5574 -0.1267
18973TIP3    H178410   4.084   6.769   0.161  0.1046  0.5596 -1.0015
18973TIP3    H278411   4.200   6.672   0.164  0.0142  0.4728 -0.0813
18974TIP3   OH278412   1.371   1.991   3.292  0.2717 -0.1596  0.1375
18974TIP3    H178413   1.369   2.058   3.223  2.4215 -2.1522 -2.0327
18974TIP3    H278414   1.463   1.987   3.319 -0.1967 -0.8358  1.7632
18975TIP3   OH278415   1.627   6.101   4.940 -0.4261  0.1402 -0.2019
18975TIP3    H178416   1.699   6.107   5.004 -2.5995  0.5432  2.3749
18975TIP3    H278417   1.561   6.162   4.973 -2.2994 -0.8028 -2.0322
18976TIP3   OH278418   2.752   5.733  16.628  0.1782  0.0132  0.1149
18976TIP3    H178419   2.827   5.711  16.573  0.8281 -1.5628  1.5358
18976TIP3    H278420   2.676   5.709  16.575  0.7013  0.4479 -0.8566
18977TIP3   OH278421   4.774   0.059   6.189 -0.3828  0.3249  0.1514
18977TIP3    H178422   4.797   0.108   6.110 -1.2478 -0.8503 -0.8761
18977TIP3    H278423   4.850   0.004   6.207 -0.3742  0.2284 -0.1751
18978TIP3   OH278424   2.529   2.090   5.776  0.2382 -0.3215 -0.0749
18978TIP3    H178425   2.562   2.105   5.865  1.4005 -1.9964 -0.1817
18978TIP3    H278426   2.441   2.128   5.777 -0.3024 -1.4352  2.2197
18979TIP3   OH278427   5.537   4.216   2.059 -0.5269 -0.3599 -0.6388
18979TIP3    H178428   5.579   4.180   1.981 -1.3305  0.7758 -1.6514
18979TIP3    H278429   5.444   4.219   2.036 -0.7521  0.1803  0.2984
18980TIP3   OH278430   5.079   1.039   2.058 -0.3304 -0.1464  0.1500
18980TIP3    H178431   5.107   0.964   2.110  2.0350  0.1019 -0.6564
18980TIP3    H278432   5.048   1.103   2.122 -0.0024 -0.8613  1.0457
18981TIP3   OH278433   6.290   0.643  16.118 -0.0274  0.2278 -0.2729
18981TIP3    H178434   6.273   0.728  16.157  0.7074  0.1602  0.2154
18981TIP3    H278435   6.274   0.655  16.025 -2.1426  0.3159  0.0340
18982TIP3   OH278436   0.898   6.168  10.825  0.1675 -0.9424  0.1598
18982TIP3    H178437   0.840   6.095  10.800 -0.6830 -0.3375  0.3056
18982TIP3    H278438   0.853   6.246  10.791  1.7760 -0.5803 -1.2844
18983TIP3   OH278439   5.965   5.993   5.871  0.2304 -0.5686  0.4549
18983TIP3    H178440   6.033   6.025   5.812 -0.0582 -0.5686  0.1205
18983TIP3    H278441   6.000   5.909   5.904 -0.0165 -1.0371 -0.4512
18984TIP3   OH278442   3.667   4.426  16.891 -0.0332  0.1758 -0.0246
18984TIP3    H178443   3.581   4.468  16.886 -0.0401  0.2198  0.4077
18984TIP3    H278444   3.729   4.498  16.878 -0.0643 -0.0794 -1.8190
18985TIP3   OH278445   5.136   3.427   2.297 -0.0337 -0.0263 -0.3702
18985TIP3    H178446   5.093   3.348   2.332 -1.0777  0.3155 -0.8347
18985TIP3    H278447   5.063   3.484   2.270  0.6534  1.5865  0.9920
18986TIP3   OH278448   5.979   3.699  13.797  0.0977  0.1287  0.2269
18986TIP3    H178449   6.027   3.632  13.846  1.4212 -1.2430 -2.6913
18986TIP3    H278450   6.038   3.774  13.795  0.1369  0.1063  0.4789
18987TIP3   OH278451   2.119   3.045   3.338  0.1138 -0.2773  0.1709
18987TIP3    H178452   2.206   3.006   3.346  0.2638 -0.0896 -0.5000
18987TIP3    H278453   2.130   3.115   3.275 -0.9050 -1.4556 -1.3934
18988TIP3   OH278454   0.563   6.406   5.998 -0.0222 -0.1627  0.6241
18988TIP3    H178455   0.595   6.431   6.084 -0.7317  2.0931  0.3176
18988TIP3    H278456   0.470   6.386   6.012 -0.1419  0.2210  0.3974
18989TIP3   OH278457   5.114   3.750   1.831 -0.3455  0.3313  0.2769
18989TIP3    H178458   5.198   3.704   1.838 -0.6414 -0.0231  1.9020
18989TIP3    H278459   5.051   3.691   1.873 -1.3316  0.8109 -0.4944
18990TIP3   OH278460   2.604   6.540   2.284  0.3580  0.2785 -0.2649
18990TIP3    H178461   2.523   6.571   2.245  0.0646 -0.7536 -0.4927
18990TIP3    H278462   2.620   6.455   2.244  0.6426 -0.3112  1.0444
18991TIP3   OH278463   1.938   6.378  13.678 -0.3040  0.6441 -0.3917
18991TIP3    H178464   1.907   6.462  13.646  1.3741  1.2996 -0.4214
18991TIP3    H278465   1.999   6.400  13.749 -1.3354 -0.6380  0.9589
18992TIP3   OH278466   5.443   5.665  15.457 -0.5279  0.3851  0.0527
18992TIP3    H178467   5.387   5.653  15.534  0.2647  0.5747  0.6732
18992TIP3    H278468   5.464   5.759  15.458  0.1791  0.2261  0.0933
18993TIP3   OH278469   6.561   4.725  16.815  0.3484  0.1888  0.1891
18993TIP3    H178470   6.484   4.767  16.854 -1.2475 -1.1129 -1.3539
18993TIP3    H278471   6.527   4.684  16.735  2.6901 -0.3770 -0.5814
18994TIP3   OH278472   1.437   0.836  15.722  0.0180  0.1180  0.0507
18994TIP3    H178473   1.459   0.808  15.633 -1.8947 -0.2024 -0.3621
18994TIP3    H278474   1.367   0.776  15.750  0.7130  0.0711  1.8662
18995TIP3   OH278475   3.413   2.878  13.311  0.0926 -0.5564 -0.7059
18995TIP3    H178476   3.473   2.910  13.244 -0.2685 -1.3933 -1.4466
18995TIP3    H278477   3.452   2.796  13.341  1.3734  0.7925  1.6649
18996TIP3   OH278478   6.510   5.558  17.450  0.3134  0.2931  0.3780
18996TIP3    H178479   6.459   5.639  17.448  0.7261  0.5445 -0.0794
18996TIP3    H278480   6.592   5.579  17.405 -0.1622 -0.7779 -1.0581
18997TIP3   OH278481   5.613   5.608  16.886 -0.3088  1.0657  0.0596
18997TIP3    H178482   5.568   5.525  16.901 -1.1309  1.2292 -1.3729
18997TIP3    H278483   5.543   5.673  16.880  0.1176  1.4209 -1.6258
18998TIP3   OH278484   3.099   4.715   0.296  0.0255  0.0605 -0.0145
18998TIP3    H178485   3.180   4.710   0.246 -0.8182 -0.5693 -1.4101
18998TIP3    H278486   3.122   4.761   0.376  1.5131  0.8555 -0.8615
18999TIP3   OH278487   3.259   0.898   2.832  0.4528 -0.3533 -0.4948
18999TIP3    H178488   3.197   0.856   2.892  0.5829 -0.3765 -0.3782
18999TIP3    H278489   3.316   0.827   2.804  0.4301 -0.3305 -0.5995
19000TIP3   OH278490   6.692   3.803  13.688 -0.3211  0.1327 -0.2732
19000TIP3    H178491   6.717   3.742  13.758  1.6452 -0.2948 -1.2825
19000TIP3    H278492   6.722   3.761  13.608  0.4594  2.0929 -1.0730
19001TIP3   OH278493   4.094   3.782  15.415  0.5164  0.1272 -0.6979
19001TIP3    H178494   4.052   3.754  15.333 -1.5359 -0.1526  0.3576
19001TIP3    H278495   4.099   3.877  15.408 -3.0430  0.5533  0.1884
19002TIP3   OH278496   1.555   1.568   2.263 -0.0776 -0.2679 -0.3386
19002TIP3    H178497   1.487   1.507   2.292 -0.6671  0.5312 -0.0175
19002TIP3    H278498   1.544   1.645   2.319  1.4930 -0.3532  0.1405
19003TIP3   OH278499   5.472   5.938   0.196 -0.2790  0.0539  0.4779
19003TIP3    H178500   5.424   5.994   0.136 -0.1839 -1.6492 -1.2776
19003TIP3    H278501   5.546   5.991   0.225  0.0276  0.7295 -1.4211
19004TIP3   OH278502   3.170   1.160   1.909 -0.4060 -0.1895 -0.4964
19004TIP3    H178503   3.243   1.219   1.889 -0.2736  0.8204  2.4346
19004TIP3    H278504   3.092   1.210   1.885 -0.2268 -0.7564 -2.4129
19005TIP3   OH278505   6.520   0.693   3.634 -0.3093 -0.6101  0.0021
19005TIP3    H178506   6.534   0.771   3.688  1.5784 -1.6747  1.1819
19005TIP3    H278507   6.527   0.724   3.544 -0.0438  0.6600  0.4435
19006TIP3   OH278508   5.780   6.330  14.848 -0.0186  0.0229 -0.1074
19006TIP3    H178509   5.776   6.387  14.926 -0.0769  1.5172 -1.1559
19006TIP3    H278510   5.689   6.303  14.835  0.2552 -1.7949  1.4080
19007TIP3   OH278511   6.259   5.750   6.579  0.6759 -0.9451 -0.0332
19007TIP3    H178512   6.318   5.681   6.609 -0.0196 -1.1576  0.9020
19007TIP3    H278513   6.286   5.828   6.626  2.2024 -0.2510 -1.9393
19008TIP3   OH278514   2.677   6.289   2.119  0.3375 -0.2581  0.1484
19008TIP3    H178515   2.734   6.312   2.192  0.0870 -0.6122  0.4613
19008TIP3    H278516   2.622   6.219   2.153 -0.5598  0.3474 -0.0208
19009TIP3   OH278517   6.264   4.347  12.273  0.5037  0.7787  0.4465
19009TIP3    H178518   6.227   4.278  12.217  1.1995 -0.0369  0.9609
19009TIP3    H278519   6.323   4.300  12.331 -1.0914  1.4099  2.7044
19010TIP3   OH278520   1.596   5.991   0.131  0.3172  0.1321  0.6964
19010TIP3    H178521   1.621   6.054   0.063 -0.6658 -0.8063 -0.5986
19010TIP3    H278522   1.531   6.038   0.184 -0.4902  0.2047 -0.3195
19011TIP3   OH278523   2.850   5.182   6.465 -0.3811 -0.3747  0.0429
19011TIP3    H178524   2.939   5.201   6.434 -1.3165 -1.2723 -3.7499
19011TIP3    H278525   2.808   5.267   6.474  0.3665 -0.0132  0.1604
19012TIP3   OH278526   6.437   0.699  15.159 -0.3443  0.8326 -0.3397
19012TIP3    H178527   6.527   0.681  15.132 -1.2265 -3.1128 -1.2162
19012TIP3    H278528   6.395   0.737  15.082  0.0423  0.7770 -0.5783
19013TIP3   OH278529   5.014   0.192  15.902 -0.2054 -0.2672  0.3986
19013TIP3    H178530   4.971   0.106  15.909  0.1925 -0.5550 -0.5297
19013TIP3    H278531   5.044   0.196  15.811  1.3568  0.1158  0.9149
19014TIP3   OH278532   3.603   4.103   2.025  0.4901  0.3777 -0.3282
19014TIP3    H178533   3.629   4.129   2.113  0.6318 -0.3339 -0.1491
19014TIP3    H278534   3.511   4.128   2.018  0.2338 -0.3283  0.3416
19015TIP3   OH278535   0.380   0.081  14.245  0.4642  0.3532  0.0600
19015TIP3    H178536   0.336   0.100  14.162  1.2623 -0.2306 -0.5095
19015TIP3    H278537   0.315   0.033  14.296 -0.6403  2.1933  0.4814
19016TIP3   OH278538   1.173   6.036   2.257 -0.0219 -0.3551  0.9627
19016TIP3    H178539   1.235   5.968   2.283 -0.1349 -1.1006 -0.6059
19016TIP3    H278540   1.090   5.991   2.244 -0.1347  0.0936  0.0422
19017TIP3   OH278541   3.329   4.161   0.391  0.3288 -0.0794  0.3520
19017TIP3    H178542   3.394   4.176   0.322 -0.1987  1.4270  0.1494
19017TIP3    H278543   3.254   4.213   0.365  0.2755  0.9099  2.2925
19018TIP3   OH278544   1.218   0.641  16.145 -0.7239  0.3009 -0.0218
19018TIP3    H178545   1.131   0.625  16.110 -0.9743  2.2817 -0.4553
19018TIP3    H278546   1.211   0.728  16.186  1.2671  0.9268 -0.9089
19019TIP3   OH278547   0.224   1.242  16.662  0.2652  0.0259 -0.6883
19019TIP3    H178548   0.310   1.278  16.684  0.6621 -1.0898 -0.3070
19019TIP3    H278549   0.179   1.239  16.746  0.2987 -0.5025 -0.6880
19020TIP3   OH278550   5.094   1.215   3.077  0.0406 -0.0755 -0.1232
19020TIP3    H178551   5.023   1.202   3.014 -0.0552 -1.2678  0.1962
19020TIP3    H278552   5.120   1.126   3.101  2.2033  0.3090 -0.8336
19021TIP3   OH278553   5.152   2.884  11.773  0.2328 -0.4398  0.2292
19021TIP3    H178554   5.125   2.934  11.696 -1.4197 -1.5191  0.0611
19021TIP3    H278555   5.150   2.793  11.744  2.0887 -0.7099  0.8456
19022TIP3   OH278556   2.460   3.836   0.745 -0.3354 -0.6204 -0.0745
19022TIP3    H178557   2.483   3.927   0.764 -0.0543 -1.1038  2.1449
19022TIP3    H278558   2.535   3.802   0.696  0.9600 -0.4603  1.7124
19023TIP3   OH278559   2.327   5.831  14.723  0.3140 -0.2820  0.5391
19023TIP3    H178560   2.334   5.816  14.817 -2.1558 -2.8197  0.4255
19023TIP3    H278561   2.291   5.750  14.688 -3.4869  2.1830 -1.8997
19024TIP3   OH278562   2.314   4.143  16.818  0.3857  0.1811  0.4165
19024TIP3    H178563   2.259   4.078  16.862  0.8166 -0.7498 -0.3884
19024TIP3    H278564   2.269   4.226  16.833  0.1397 -0.1889  1.9947
19025TIP3   OH278565   4.769   3.835  15.763  0.1444  0.4146  0.1521
19025TIP3    H178566   4.837   3.779  15.801 -0.1168 -0.9938 -1.3357
19025TIP3    H278567   4.693   3.779  15.754 -0.3241  1.1576 -0.8375
19026TIP3   OH278568   3.491   5.274   4.826  0.6434 -0.5603 -0.2455
19026TIP3    H178569   3.473   5.189   4.867  0.3029 -0.1504  0.4875
19026TIP3    H278570   3.452   5.268   4.739  0.1280 -0.9631  0.0101
19027TIP3   OH278571   5.875   1.443  15.951  0.1314  0.2649  0.2764
19027TIP3    H178572   5.910   1.532  15.948 -2.4289  1.3458 -0.0390
19027TIP3    H278573   5.790   1.449  15.907 -0.6138 -2.1059  1.2316
19028TIP3   OH278574   1.345   1.676  13.430 -0.2227 -0.2760 -0.2715
19028TIP3    H178575   1.300   1.605  13.477 -1.5328  0.4271 -0.4085
19028TIP3    H278576   1.436   1.668  13.457 -0.9022  0.1293  2.5288
19029TIP3   OH278577   3.554   5.849   5.920  0.4238  0.5411  0.3598
19029TIP3    H178578   3.493   5.847   5.993  1.1075 -1.3554  0.9216
19029TIP3    H278579   3.602   5.931   5.931 -2.0836  2.2192 -0.2332
19030TIP3   OH278580   2.997   6.113  11.889 -0.4807 -0.1145  0.6099
19030TIP3    H178581   3.077   6.121  11.837  0.5631  0.2282  2.1764
19030TIP3    H278582   2.934   6.072  11.831  0.1643  1.5315 -1.3600
19031TIP3   OH278583   0.157   1.941   5.009  0.4810  0.0490 -0.0215
19031TIP3    H178584   0.121   1.916   5.094  1.2831  0.0888  0.3394
19031TIP3    H278585   0.108   1.888   4.946 -0.5376  0.4530  0.4025
19032TIP3   OH278586   5.736   0.426   1.829 -0.2430 -0.5976  0.2087
19032TIP3    H178587   5.698   0.356   1.775  0.8587 -1.4492  0.4970
19032TIP3    H278588   5.701   0.409   1.917 -0.4868 -0.3947  0.1510
19033TIP3   OH278589   1.517   5.545  12.503 -0.0102 -0.1667 -0.0672
19033TIP3    H178590   1.510   5.542  12.599 -0.9067 -0.2538 -0.1299
19033TIP3    H278591   1.433   5.579  12.474  0.6954  1.0462 -0.7773
19034TIP3   OH278592   6.362   0.137   1.372 -0.5478  0.3940  0.1256
19034TIP3    H178593   6.356   0.077   1.298  1.1621  1.0010 -0.5503
19034TIP3    H278594   6.304   0.209   1.349 -1.4003 -0.2461  0.2217
19035TIP3   OH278595   2.151   1.514  17.020 -0.4258  0.1862 -0.5597
19035TIP3    H178596   2.165   1.598  17.065 -0.3936  0.4350 -1.0251
19035TIP3    H278597   2.159   1.448  17.089 -1.7691  0.6441  0.0679
19036TIP3   OH278598   0.940   1.015   2.538 -0.1639 -0.4532 -0.1824
19036TIP3    H178599   1.033   1.035   2.530 -0.3390  0.1229 -0.8819
19036TIP3    H278600   0.897   1.100   2.533 -0.7343 -0.7289  0.0119
19037TIP3   OH278601   1.734   2.047  16.815 -0.0806 -0.5624 -0.0013
19037TIP3    H178602   1.691   2.126  16.784 -0.8697 -1.3715 -1.0218
19037TIP3    H278603   1.671   1.977  16.799  0.4256 -1.3543  1.2868
19038TIP3   OH278604   4.606   1.549   0.776  0.4646 -0.1128 -0.4453
19038TIP3    H178605   4.619   1.456   0.760 -0.0977 -0.3809  0.6020
19038TIP3    H278606   4.692   1.581   0.804  1.1229  0.0891 -2.5593
19039TIP3   OH278607   4.852   5.508  11.265  0.5743  0.1636 -0.1695
19039TIP3    H178608   4.893   5.436  11.313 -1.0891 -0.3849  0.4823
19039TIP3    H278609   4.789   5.466  11.206 -0.1178  1.0538 -0.0872
19040TIP3   OH278610   1.677   4.281   5.328  0.5924 -0.2775  0.0312
19040TIP3    H178611   1.747   4.258   5.266  0.2383  0.7456 -0.7840
19040TIP3    H278612   1.637   4.197   5.350  2.2092 -0.9223  0.7206
19041TIP3   OH278613   0.866   5.950   5.217 -0.1357  0.1317 -0.4979
19041TIP3    H178614   0.956   5.947   5.185 -0.5815  2.7616 -2.3560
19041TIP3    H278615   0.867   6.016   5.286 -0.7564  1.0192 -1.2894
19042TIP3   OH278616   3.175   0.168  16.301 -0.8149  0.4845 -0.4505
19042TIP3    H178617   3.117   0.191  16.374  0.3057 -0.9330  0.9822
19042TIP3    H278618   3.236   0.104  16.339  1.3360  1.4936 -2.0102
19043TIP3   OH278619   4.685   2.369  14.535 -0.0695 -0.2794  0.0256
19043TIP3    H178620   4.667   2.456  14.502  1.6872  0.5510  1.1042
19043TIP3    H278621   4.742   2.329  14.469  0.9060  0.2326  0.5301
19044TIP3   OH278622   1.806   0.640   3.822 -0.1967 -0.6899  0.0154
19044TIP3    H178623   1.781   0.585   3.748 -1.4214 -1.1121  0.7330
19044TIP3    H278624   1.738   0.626   3.887  0.7247 -0.1165  1.1304
19045TIP3   OH278625   0.038   3.889   5.099  0.9129  0.5233  0.3342
19045TIP3    H178626   0.018   3.850   5.184 -0.4024 -1.0094 -0.6216
19045TIP3    H278627   0.117   3.843   5.070  0.4752 -0.0904  0.0751
19046TIP3   OH278628   2.772   4.277  14.624  0.4856  0.1821 -0.5846
19046TIP3    H178629   2.744   4.344  14.561  1.8256  0.9211 -0.4301
19046TIP3    H278630   2.794   4.201  14.570 -0.3320  0.0997 -0.8207
19047TIP3   OH278631   5.674   2.492  14.545  0.6178 -0.1291 -0.0372
19047TIP3    H178632   5.579   2.498  14.543  0.4571 -1.7563  1.1698
19047TIP3    H278633   5.699   2.470  14.456 -0.0758  0.7967 -0.4742
19048TIP3   OH278634   0.778   6.731  12.194 -0.2989  0.4068 -0.3336
19048TIP3    H178635   0.858   6.780  12.178  0.5776 -0.7481  0.3927
19048TIP3    H278636   0.719   6.759  12.124  1.1371  0.3909 -1.6063
19049TIP3   OH278637   1.393   3.503  12.437  0.5248  0.3880 -0.1311
19049TIP3    H178638   1.357   3.512  12.525 -2.3678 -0.1937 -1.1454
19049TIP3    H278639   1.399   3.408  12.423  0.0861  0.4672 -0.8813
19050TIP3   OH278640   3.281   0.512   3.835  0.1210  0.2823 -0.1169
19050TIP3    H178641   3.275   0.527   3.929 -0.3186 -0.3785 -0.0303
19050TIP3    H278642   3.190   0.496   3.808  0.5450 -2.8652 -0.0567
19051TIP3   OH278643   1.130   0.370   5.995 -0.2674 -0.1996  0.2890
19051TIP3    H178644   1.164   0.319   5.922  0.6853 -0.7577  1.1082
19051TIP3    H278645   1.075   0.309   6.045 -1.0221  0.2138 -0.0069
19052TIP3   OH278646   5.663   5.072   0.641  0.0212  0.9084  0.2497
19052TIP3    H178647   5.699   5.140   0.698  1.5655  0.8760 -0.6202
19052TIP3    H278648   5.686   4.990   0.685 -1.3799  0.8966  1.0302
19053TIP3   OH278649   4.635   1.589   2.415  0.5414  0.3889  0.0205
19053TIP3    H178650   4.727   1.569   2.403  0.4371 -0.6467  0.8099
19053TIP3    H278651   4.634   1.680   2.446  1.2378  0.6030 -0.5515
19054TIP3   OH278652   3.380   2.642   4.679 -0.0128  0.3588  0.4113
19054TIP3    H178653   3.469   2.606   4.680  0.6601  1.9484  0.5265
19054TIP3    H278654   3.324   2.568   4.703  1.3734 -0.4123  1.4243
19055TIP3   OH278655   1.096   6.127  17.030  0.5655  0.3510  0.2511
19055TIP3    H178656   1.039   6.138  16.954 -0.6432  0.4622  1.1496
19055TIP3    H278657   1.142   6.210  17.038 -1.3753  1.4048  1.2610
19056TIP3   OH278658   1.989   0.747  17.418 -0.3178 -0.4468  0.1595
19056TIP3    H178659   2.055   0.745  17.488 -0.1806 -0.2661  0.0343
19056TIP3    H278660   1.929   0.817  17.444 -1.6815 -1.9761  1.3728
19057TIP3   OH278661   0.969   1.235  12.592  0.8030  0.4130  0.2862
19057TIP3    H178662   1.007   1.218  12.506  3.5413 -1.1211  1.6819
19057TIP3    H278663   0.875   1.224  12.579  1.2849 -2.1001 -2.0536
19058TIP3   OH278664   1.616   1.783   3.286  0.5017 -0.6825 -0.1098
19058TIP3    H178665   1.639   1.734   3.207 -0.7627 -0.1414 -0.8539
19058TIP3    H278666   1.531   1.747   3.313 -0.4873  1.0621 -0.7119
19059TIP3   OH278667   3.028   2.263   3.260 -0.1948 -0.0540 -0.5026
19059TIP3    H178668   2.964   2.260   3.188  0.4357  0.9839 -1.1394
19059TIP3    H278669   3.004   2.341   3.310 -0.7979 -0.9189  0.6100
19060TIP3   OH278670   5.851   0.015   3.525  0.4386 -0.3410  0.1900
19060TIP3    H178671   5.891   0.096   3.556  0.2104 -0.4312  0.7415
19060TIP3    H278672   5.921  -0.050   3.529  0.4689 -0.3015  0.3067
19061TIP3   OH278673   1.074   5.123   2.807 -0.1673 -0.3987 -0.0965
19061TIP3    H178674   1.108   5.185   2.872 -2.2941 -0.8829  1.6012
19061TIP3    H278675   1.118   5.041   2.827 -0.0098 -0.2915  0.0022
19062TIP3   OH278676   5.934   3.334  13.887  0.6247  0.3441 -0.5437
19062TIP3    H178677   5.863   3.288  13.932 -0.7919  0.7097 -2.3116
19062TIP3    H278678   5.938   3.419  13.931  0.4811  0.0381  0.0729
19063TIP3   OH278679   5.524   5.316   1.893 -0.5181  0.3407  0.2167
19063TIP3    H178680   5.509   5.363   1.812 -0.4453  0.8807  0.5133
19063TIP3    H278681   5.594   5.365   1.937  0.6184 -0.8919 -0.1590
19064TIP3   OH278682   6.420   3.963   2.256  0.6638  0.2656  0.5417
19064TIP3    H178683   6.349   4.008   2.210  1.0172  0.4837  0.1992
19064TIP3    H278684   6.492   3.960   2.192  0.9934  0.1339  0.9141
19065TIP3   OH278685   2.127   4.528  11.964 -0.2073  0.6270  0.9152
19065TIP3    H178686   2.157   4.437  11.960 -1.7478  0.0877 -2.3601
19065TIP3    H278687   2.207   4.580  11.963  0.6936 -0.6696  2.2905
19066TIP3   OH278688   2.912   5.101  14.310  0.0068  0.5221  0.6962
19066TIP3    H178689   2.967   5.029  14.339  1.5501  0.5640 -1.8144
19066TIP3    H278690   2.937   5.175  14.365 -0.4160 -0.4288  2.2058
19067TIP3   OH278691   5.618   3.878  13.326  0.1883 -0.1604  0.2681
19067TIP3    H178692   5.612   3.783  13.337 -0.3947 -0.0014  1.5080
19067TIP3    H278693   5.696   3.903  13.376  0.0467  0.0729  0.3704
19068TIP3   OH278694   6.593   0.300  14.337 -0.4294 -0.1500  0.0866
19068TIP3    H178695   6.675   0.306  14.287  0.0781 -1.4254  0.7034
19068TIP3    H278696   6.526   0.282  14.271 -0.1556  0.4900 -0.3789
19069TIP3   OH278697   4.142   4.365   2.564  0.2451 -0.3915 -0.1065
19069TIP3    H178698   4.123   4.434   2.628  0.3289  0.0734 -0.5791
19069TIP3    H278699   4.124   4.284   2.611 -1.5633 -0.0293 -0.0661
19070TIP3   OH278700   2.618   3.206   2.440  0.2370 -0.2761  0.1235
19070TIP3    H178701   2.622   3.182   2.347 -0.2427 -1.0781  0.3008
19070TIP3    H278702   2.691   3.158   2.480 -0.8521 -1.6701  0.5150
19071TIP3   OH278703   4.934   4.426  17.003  0.6229 -0.5176  0.3989
19071TIP3    H178704   4.849   4.457  17.033  0.1221 -0.2391 -1.2534
19071TIP3    H278705   4.932   4.332  17.017  0.0923 -0.4971  0.4477
19072TIP3   OH278706   6.694   6.207   2.894  0.4155 -0.6005  0.4109
19072TIP3    H178707   6.777   6.195   2.848 -0.1744 -0.8025 -0.6554
19072TIP3    H278708   6.628   6.179   2.830 -0.6199  1.6766  0.3906
19073TIP3   OH278709   3.465   4.072   0.611 -0.1839  0.2420  0.2405
19073TIP3    H178710   3.413   4.109   0.539 -0.0259 -2.0142 -1.1227
19073TIP3    H278711   3.543   4.037   0.568 -0.0085 -1.0414  1.5304
19074TIP3   OH278712   0.543   5.850   2.739 -0.2829  0.2039 -0.4716
19074TIP3    H178713   0.537   5.803   2.821  1.2364 -1.3046 -1.1726
19074TIP3    H278714   0.636   5.852   2.718 -0.5261  1.5175 -1.6310
19075TIP3   OH278715   4.683   5.297  15.349 -0.3688  0.0904 -0.1889
19075TIP3    H178716   4.642   5.311  15.434  0.9730  1.7710  0.2377
19075TIP3    H278717   4.709   5.384  15.320  0.9418 -0.6632 -1.4252
19076TIP3   OH278718   1.049   4.494  12.042 -0.2669 -0.3243  0.0909
19076TIP3    H178719   0.993   4.554  11.993 -1.0962 -0.1230  1.2341
19076TIP3    H278720   1.118   4.470  11.981  0.1567  1.8730 -0.3631
19077TIP3   OH278721   2.559   2.955   0.661  0.2578  0.0032 -0.2519
19077TIP3    H178722   2.483   2.974   0.716 -0.9400 -2.1580 -1.0610
19077TIP3    H278723   2.630   3.007   0.700 -1.1944  0.7057  1.5983
19078TIP3   OH278724   3.399   4.793  13.866  0.2130  0.1466 -0.1466
19078TIP3    H178725   3.431   4.704  13.852  0.3147  0.2233 -0.4068
19078TIP3    H278726   3.304   4.783  13.875  0.2304  0.0056 -0.1145
19079TIP3   OH278727   4.354   2.968  12.727  0.1535 -0.3267  0.0033
19079TIP3    H178728   4.385   2.879  12.746  1.2750  0.0084 -0.1602
19079TIP3    H278729   4.429   3.024  12.746 -0.8416  0.7028  1.0628
19080TIP3   OH278730   4.476   6.687  12.466  0.0725  0.3466  0.5153
19080TIP3    H178731   4.509   6.754  12.406 -0.7081  0.5743  0.3286
19080TIP3    H278732   4.409   6.732  12.517 -1.6166 -0.6673 -0.7113
19081TIP3   OH278733   1.204   0.536   4.320  0.0285 -0.3468 -0.0703
19081TIP3    H178734   1.278   0.476   4.329 -0.0454 -0.3841  0.2962
19081TIP3    H278735   1.226   0.610   4.376 -0.5232 -0.6667  0.5858
19082TIP3   OH278736   6.102   4.665   1.168 -0.1993  0.0363 -0.4479
19082TIP3    H178737   6.103   4.641   1.260 -1.6448 -0.5410 -0.5565
19082TIP3    H278738   6.119   4.759   1.168 -1.2062  0.2346  0.4904
19083TIP3   OH278739   6.770   4.838  13.429 -0.3866  0.0111  0.2557
19083TIP3    H178740   6.787   4.860  13.338  0.7505  1.1603  0.7119
19083TIP3    H278741   6.766   4.742  13.430  1.7338 -0.1458 -0.6812
19084TIP3   OH278742   6.197   5.723  13.287  0.4402  0.1333  0.0170
19084TIP3    H178743   6.212   5.797  13.228  0.8028  0.0395 -0.0107
19084TIP3    H278744   6.104   5.701  13.275  0.3768  0.4647 -0.1081
19085TIP3   OH278745   6.436   3.769   3.977  0.5617 -0.5830 -0.7475
19085TIP3    H178746   6.428   3.750   4.070  2.5900 -2.0136 -0.7985
19085TIP3    H278747   6.346   3.775   3.946 -0.1584 -1.1824  1.0883
19086TIP3   OH278748   1.182   1.246  15.825  0.2923 -0.2028  0.0370
19086TIP3    H178749   1.095   1.275  15.797  0.2440  0.3090  0.6853
19086TIP3    H278750   1.189   1.157  15.791 -0.9709 -0.6968  0.9662
19087TIP3   OH278751   0.135   6.173  17.212  0.3590  0.0266 -0.0209
19087TIP3    H178752   0.093   6.087  17.205  0.2646  0.0183  0.5984
19087TIP3    H278753   0.211   6.168  17.154  0.0532 -0.2944 -0.3937
19088TIP3   OH278754   4.052   2.146   1.769  1.0616  0.0600  0.2958
19088TIP3    H178755   3.995   2.157   1.845  2.1736 -1.3032  1.3787
19088TIP3    H278756   4.017   2.207   1.704 -1.1321 -0.1592  1.1809
19089TIP3   OH278757   4.318   4.326  10.702 -0.3800  0.1337 -0.3798
19089TIP3    H178758   4.289   4.415  10.726  2.6310  0.7435  1.4476
19089TIP3    H278759   4.371   4.339  10.624 -1.3457 -0.3735 -1.1472
19090TIP3   OH278760   2.122   3.456   4.409 -0.5344 -0.2852 -0.0074
19090TIP3    H178761   2.045   3.410   4.442  0.5275 -0.4514  2.4572
19090TIP3    H278762   2.089   3.540   4.377 -1.7326 -0.2832  1.1619
19091TIP3   OH278763   4.998   5.284   3.325 -0.4363  0.3911 -0.0274
19091TIP3    H178764   4.976   5.213   3.265 -0.7298 -0.5627  1.1722
19091TIP3    H278765   5.007   5.242   3.410  0.5579  1.6229  0.5119
19092TIP3   OH278766   5.688   1.382   3.938 -0.3504 -0.0608  0.1319
19092TIP3    H178767   5.702   1.464   3.986  0.0216  0.4717 -0.8724
19092TIP3    H278768   5.700   1.314   4.005 -1.1649  0.6973  1.0894
19093TIP3   OH278769   5.626   6.576  15.706  0.0311 -0.3872  0.5681
19093TIP3    H178770   5.618   6.487  15.671  0.3314  0.2134 -1.1247
19093TIP3    H278771   5.539   6.614  15.694  0.5163  0.3087 -1.0116
19094TIP3   OH278772   6.289   1.069   3.669  0.4141 -0.2484 -0.3272
19094TIP3    H178773   6.204   1.026   3.670 -1.5406  3.2003 -1.2220
19094TIP3    H278774   6.348   1.006   3.709 -2.5171 -2.8484  0.3029
19095TIP3   OH278775   2.659   6.192  11.522 -0.5336 -0.1706 -0.0722
19095TIP3    H178776   2.567   6.196  11.548 -1.0990  0.2892 -1.9962
19095TIP3    H278777   2.674   6.274  11.475  1.1003  0.1208  0.8791
19096TIP3   OH278778   4.895   3.667  13.734 -0.4040 -0.1001  0.2926
19096TIP3    H178779   4.858   3.598  13.789  0.8713 -0.6005  0.5365
19096TIP3    H278780   4.989   3.652  13.735 -0.3435 -0.5333 -2.5529
19097TIP3   OH278781   1.320   2.733  11.086  0.2950 -0.7500 -0.6144
19097TIP3    H178782   1.231   2.711  11.114  0.2739 -0.2121 -0.2435
19097TIP3    H278783   1.363   2.648  11.076 -0.2271 -1.0131 -0.6981
19098TIP3   OH278784   5.467   3.974  12.256  0.0979  0.4705 -0.3726
19098TIP3    H178785   5.466   4.066  12.283  1.4215  0.1537  0.8660
19098TIP3    H278786   5.495   3.926  12.334  0.1173 -0.9196 -1.1991
19099TIP3   OH278787   6.722   4.745  16.090  0.2596 -0.0065 -0.0168
19099TIP3    H178788   6.664   4.680  16.128 -0.3777  1.2564  1.2872
19099TIP3    H278789   6.702   4.745  15.997  0.1893 -1.5598 -0.0149
19100TIP3   OH278790   1.088   4.496  11.746  0.4580 -0.3275  0.0028
19100TIP3    H178791   1.083   4.450  11.663 -0.2978  1.2136 -0.8376
19100TIP3    H278792   1.173   4.470  11.782  1.9669  0.9045 -2.4406
19101TIP3   OH278793   4.150   1.703  17.048  0.4664  0.8519 -0.1314
19101TIP3    H178794   4.079   1.704  17.113  0.0113  0.7947 -0.6156
19101TIP3    H278795   4.114   1.653  16.975  0.8275  1.2539 -0.5922
19102TIP3   OH278796   5.622   1.893   5.975  0.0940  0.1338  0.0582
19102TIP3    H178797   5.602   1.984   5.951 -0.6960  0.3870  1.5929
19102TIP3    H278798   5.687   1.900   6.044  0.7497 -0.5126 -0.4837
19103TIP3   OH278799   5.168   2.759   4.753 -0.6140 -0.6933  0.4169
19103TIP3    H178800   5.127   2.834   4.796 -0.7301  0.1918 -1.1775
19103TIP3    H278801   5.136   2.683   4.803  0.8652  0.3460  3.1469
19104TIP3   OH278802   2.760   2.588  12.411  0.2928 -0.0540  0.2276
19104TIP3    H178803   2.761   2.507  12.461  0.1928  0.9730  1.9442
19104TIP3    H278804   2.674   2.626  12.427  1.3017  1.7394  1.7619
19105TIP3   OH278805   5.512   1.715   4.683 -0.3311  0.7422 -0.0884
19105TIP3    H178806   5.479   1.797   4.719  0.9310  0.9150  0.7293
19105TIP3    H278807   5.456   1.647   4.722 -1.7856  1.2149 -1.2535
19106TIP3   OH278808   3.958   0.418   5.558  0.2131  0.1335  0.6778
19106TIP3    H178809   4.051   0.396   5.559  0.2211  0.1942  1.2485
19106TIP3    H278810   3.918   0.356   5.619 -0.1173  0.1346  0.4656
19107TIP3   OH278811   2.115   4.240   5.098 -0.5563 -0.2339  0.1511
19107TIP3    H178812   2.201   4.244   5.138 -1.3451 -0.7404  1.9979
19107TIP3    H278813   2.132   4.222   5.006  1.2954 -0.3284  0.4847
19108TIP3   OH278814   6.285   2.837   0.886  0.9831  0.0194  0.2818
19108TIP3    H178815   6.236   2.789   0.953 -1.0250  1.9497  0.3258
19108TIP3    H278816   6.253   2.802   0.803  1.3878 -0.4232  0.3072
19109TIP3   OH278817   5.665   1.390  12.032  0.4884  0.1304  0.7093
19109TIP3    H178818   5.595   1.330  12.055  1.9992 -2.3068 -0.6473
19109TIP3    H278819   5.629   1.443  11.961 -0.0533 -0.9419  0.1713
19110TIP3   OH278820   2.239   1.293   4.626  0.4173 -0.6616 -1.1019
19110TIP3    H178821   2.273   1.309   4.714  1.2512 -1.7526 -1.1947
19110TIP3    H278822   2.170   1.228   4.638  0.4379 -0.7083 -1.2358
19111TIP3   OH278823   5.405   3.333  12.818  0.6601  0.3069  0.0489
19111TIP3    H178824   5.467   3.358  12.886  0.0129  0.4974  0.5864
19111TIP3    H278825   5.396   3.238  12.827  0.3077  0.3750  0.4784
19112TIP3   OH278826   3.500   6.537  11.446 -0.4425  0.2463 -0.5312
19112TIP3    H178827   3.498   6.608  11.382  0.5506  1.2545  0.5089
19112TIP3    H278828   3.428   6.557  11.506  0.6749  1.1680  0.5431
19113TIP3   OH278829   1.971   4.193   3.360 -0.1829  0.7555  0.0979
19113TIP3    H178830   1.959   4.274   3.310  0.8963  0.6808 -0.3136
19113TIP3    H278831   1.884   4.153   3.363 -0.7232  1.8950  0.2578
19114TIP3   OH278832   6.185   5.375   5.473  0.1899  0.4872  0.1234
19114TIP3    H178833   6.132   5.366   5.394 -0.6555  1.8824  0.4914
19114TIP3    H278834   6.173   5.292   5.520 -1.0193  0.4651 -0.2023
19115TIP3   OH278835   6.704   5.653   4.031  0.6721  0.2541 -0.2190
19115TIP3    H178836   6.636   5.640   3.965  0.5845  1.6621 -0.4389
19115TIP3    H278837   6.753   5.729   4.000  1.3542  0.2304  0.7591
19116TIP3   OH278838   0.601   4.378  14.842 -0.1060  0.2855 -0.1868
19116TIP3    H178839   0.683   4.338  14.813 -0.0767  0.3548 -0.1985
19116TIP3    H278840   0.533   4.314  14.819 -0.4343  1.5084 -2.9542
19117TIP3   OH278841   5.715   0.366  11.242 -0.3668 -0.1401 -0.6276
19117TIP3    H178842   5.720   0.344  11.335  0.1264  2.2803 -0.0084
19117TIP3    H278843   5.623   0.389  11.227 -0.1963  0.7811 -0.3597
19118TIP3   OH278844   2.357   6.058  16.566  0.8970 -0.5249 -0.2260
19118TIP3    H178845   2.310   5.977  16.582 -1.2059  0.9342  1.5720
19118TIP3    H278846   2.340   6.078  16.473 -1.5734 -0.4005  0.1976
19119TIP3   OH278847   4.320   1.300   5.720 -0.0768  0.1236  0.1251
19119TIP3    H178848   4.380   1.252   5.663  1.2606  0.8606  0.8351
19119TIP3    H278849   4.244   1.243   5.730 -0.1968 -0.1674 -2.0683
19120TIP3   OH278850   5.267   4.074  13.744 -0.1125 -0.3036  0.0762
19120TIP3    H178851   5.222   4.069  13.828 -3.1883  2.1902 -1.2220
19120TIP3    H278852   5.248   3.991  13.701  1.8303 -1.7706  1.8764
19121TIP3   OH278853   1.936   3.361  13.076 -0.4586 -0.2380  0.2540
19121TIP3    H178854   1.841   3.360  13.086 -0.5716 -1.0356 -0.8009
19121TIP3    H278855   1.953   3.308  12.998  0.6696  1.7882 -0.9867
19122TIP3   OH278856   3.811   3.538  14.334  0.0199 -0.2350  0.1094
19122TIP3    H178857   3.739   3.527  14.396 -0.2107  0.8524  0.0516
19122TIP3    H278858   3.789   3.480  14.261 -0.7999  0.0636  0.1039
19123TIP3   OH278859   5.009   4.293   1.279  0.3228 -0.1384  0.3694
19123TIP3    H178860   5.089   4.334   1.312  0.2074  0.9771 -0.6483
19123TIP3    H278861   5.003   4.210   1.326  1.6385  0.1253  1.0525
19124TIP3   OH278862   3.722   0.066  13.190 -0.6628  0.4843 -0.0058
19124TIP3    H178863   3.699   0.114  13.269 -1.0099  0.2768  0.0193
19124TIP3    H278864   3.697  -0.024  13.208  1.5126 -0.0680  0.5982
19125TIP3   OH278865   2.918   6.288   5.393  0.1462 -0.7540 -0.1933
19125TIP3    H178866   2.954   6.291   5.305 -0.8126  2.4657 -0.6285
19125TIP3    H278867   2.992   6.308   5.451  0.2411 -0.1470 -0.5245
19126TIP3   OH278868   3.174   0.104  12.210  0.3033 -0.3589  0.0791
19126TIP3    H178869   3.244   0.144  12.262 -0.6958  0.4952  0.8215
19126TIP3    H278870   3.208   0.101  12.121  1.8249 -1.2687  0.6545
19127TIP3   OH278871   0.843   4.400  16.280  0.3819  0.4976 -0.5523
19127TIP3    H178872   0.761   4.428  16.240 -0.3172 -0.4675  0.1450
19127TIP3    H278873   0.848   4.450  16.362 -0.9459 -1.4204  0.7680
19128TIP3   OH278874   0.192   2.985   2.013  0.3550 -0.2208 -0.2797
19128TIP3    H178875   0.152   3.063   2.051  0.5006  0.2417 -1.0559
19128TIP3    H278876   0.278   2.980   2.054  0.3556  0.0384 -0.2450
19129TIP3   OH278877   1.944   2.697   0.716  0.2534  0.5902  0.4419
19129TIP3    H178878   1.874   2.664   0.772  0.6326  0.4674  0.8475
19129TIP3    H278879   2.021   2.646   0.740  0.0571 -0.6474 -1.3765
19130TIP3   OH278880   5.880   0.542  11.887 -0.5709  0.0025  0.0155
19130TIP3    H178881   5.918   0.522  11.972 -0.9346 -2.1088 -0.2575
19130TIP3    H278882   5.860   0.636  11.890 -0.5601 -0.0262  2.2322
19131TIP3   OH278883   0.476   6.580   5.614  0.1698 -0.0058  0.4404
19131TIP3    H178884   0.388   6.609   5.591  0.7412  2.0118  0.6007
19131TIP3    H278885   0.534   6.639   5.567  1.4611 -1.1533  0.5267
19132TIP3   OH278886   0.660   4.513  11.606  0.1747 -0.3124 -0.3537
19132TIP3    H178887   0.667   4.461  11.526  0.3398 -0.5754 -0.1703
19132TIP3    H278888   0.705   4.595  11.585  0.5860 -0.5458 -0.3965
19133TIP3   OH278889   3.474   4.138   0.965 -0.6548  0.0375 -0.5360
19133TIP3    H178890   3.384   4.167   0.951 -1.0770 -0.6891  0.5769
19133TIP3    H278891   3.472   4.090   1.047  0.4880 -1.1542 -1.1597
19134TIP3   OH278892   0.971   3.025   6.325 -0.0219  0.0989 -0.2003
19134TIP3    H178893   0.969   2.937   6.363 -0.6611  0.4358  0.5730
19134TIP3    H278894   0.909   3.075   6.377  0.8169  1.1855 -0.2058
19135TIP3   OH278895   2.017   6.775  14.768  0.0690 -0.2801 -0.3184
19135TIP3    H178896   1.930   6.770  14.727 -1.4391 -4.3838  2.7018
19135TIP3    H278897   2.064   6.698  14.735  2.3438  1.3609 -1.1714
19136TIP3   OH278898   4.264   4.269  15.527  0.0736  0.2067 -0.2877
19136TIP3    H178899   4.262   4.179  15.495  1.3252 -0.6118  1.7562
19136TIP3    H278900   4.174   4.286  15.556  0.6191 -2.1794  3.6164
19137TIP3   OH278901   5.613   2.556  12.589  0.4321  0.4284 -0.4994
19137TIP3    H178902   5.651   2.557  12.676 -0.6754  0.7808  0.0068
19137TIP3    H278903   5.685   2.533  12.530  0.8576 -1.4395  0.6634
19138TIP3   OH278904   6.511   4.455   3.172  0.0328  0.4211  0.2175
19138TIP3    H178905   6.524   4.550   3.173 -0.8374  0.5674 -0.8208
19138TIP3    H278906   6.492   4.434   3.081  1.3686 -0.9413  0.2005
19139TIP3   OH278907   3.522   0.870   5.551 -0.7950 -0.1673  0.7322
19139TIP3    H178908   3.567   0.954   5.561  0.2776 -0.7682  1.1609
19139TIP3    H278909   3.553   0.836   5.467 -1.5523  0.0432  0.3589
19140TIP3   OH278910   0.073   4.313  14.121  0.2252 -0.1708  0.3170
19140TIP3    H178911   0.012   4.350  14.186 -0.4745 -1.8272  0.6695
19140TIP3    H278912   0.155   4.301  14.170  1.2463  2.9453 -0.4019
19141TIP3   OH278913   5.636   4.396  11.673 -0.1955 -0.5659  0.4470
19141TIP3    H178914   5.679   4.394  11.587  1.6712 -2.1992  1.3223
19141TIP3    H278915   5.575   4.322  11.670 -1.3401  0.3782 -0.0128
19142TIP3   OH278916   1.220   2.615   0.478 -0.4632 -0.5190 -0.1123
19142TIP3    H178917   1.264   2.553   0.536  0.8042  0.5428  0.0977
19142TIP3    H278918   1.198   2.564   0.400 -1.9275 -1.8960  1.1280
19143TIP3   OH278919   5.802   6.268   1.445  0.3212 -0.7123  0.1698
19143TIP3    H178920   5.737   6.216   1.399  1.1885  0.3835 -2.4759
19143TIP3    H278921   5.876   6.208   1.457  0.6153 -0.6513 -1.1947
19144TIP3   OH278922   3.918   3.575   4.254  0.2097 -0.0552 -0.1061
19144TIP3    H178923   3.912   3.594   4.161  2.3076  0.0117 -0.2903
19144TIP3    H278924   4.012   3.565   4.270 -0.1451 -0.6476  1.8894
19145TIP3   OH278925   2.891   5.783  15.617 -0.0042 -0.5847  0.0818
19145TIP3    H178926   2.983   5.758  15.628  0.2165  0.1516 -0.0182
19145TIP3    H278927   2.892   5.845  15.544 -0.6177 -0.7614 -0.0797
19146TIP3   OH278928   2.529   3.341  11.449  0.2859 -0.0132 -0.3359
19146TIP3    H178929   2.525   3.386  11.534 -1.1429 -0.4264 -0.1592
19146TIP3    H278930   2.463   3.272  11.455  1.8352 -1.6197 -0.9268
19147TIP3   OH278931   3.545   3.356   4.399 -0.0814 -0.0597  0.3846
19147TIP3    H178932   3.611   3.287   4.395  1.2245  1.1669 -0.1453
19147TIP3    H278933   3.553   3.393   4.487  0.5385  0.6324  0.0488
19148TIP3   OH278934   2.807   5.050   2.277  0.6399 -0.3298 -0.3435
19148TIP3    H178935   2.899   5.076   2.282  0.3002  0.6824  1.8216
19148TIP3    H278936   2.799   5.003   2.194  2.9420  0.1689 -0.8978
19149TIP3   OH278937   3.797   6.699   3.581  0.3892 -0.3146  0.4169
19149TIP3    H178938   3.740   6.640   3.533 -0.5568 -0.5625  1.7993
19149TIP3    H278939   3.737   6.762   3.622  1.2249  0.2895  0.7362
19150TIP3   OH278940   5.794   4.107  11.532  0.2238  0.8874  0.4998
19150TIP3    H178941   5.728   4.070  11.591 -0.6417  1.8750  0.1840
19150TIP3    H278942   5.877   4.091  11.576 -0.2387 -0.1667  1.0339
19151TIP3   OH278943   4.041   0.852  14.885 -0.5333 -0.6054 -0.3295
19151TIP3    H178944   4.065   0.938  14.851 -0.6647  0.3598  1.8189
19151TIP3    H278945   3.946   0.855  14.895 -0.4419 -0.5844  0.6824
19152TIP3   OH278946   5.825   2.671   0.925 -0.1513  1.0334  0.3685
19152TIP3    H178947   5.750   2.711   0.881  0.1386  0.2185 -0.9066
19152TIP3    H278948   5.859   2.608   0.862  0.6208  0.2208  1.5560
19153TIP3   OH278949   4.817   0.293  12.222  0.0923  0.2860  0.3831
19153TIP3    H178950   4.771   0.356  12.166  0.9033  0.1295 -0.4939
19153TIP3    H278951   4.852   0.228  12.161  2.0880  0.7906  0.9126
19154TIP3   OH278952   5.985   3.701   2.310 -0.5782 -0.2361  0.5716
19154TIP3    H178953   6.020   3.768   2.252 -1.6982 -1.0397 -1.1317
19154TIP3    H278954   5.911   3.744   2.354 -1.0580 -0.2172 -0.2285
19155TIP3   OH278955   5.365   4.193   0.523 -0.6475 -0.3180  0.4550
19155TIP3    H178956   5.435   4.203   0.459 -0.9059 -0.7574  0.1007
19155TIP3    H278957   5.334   4.282   0.539 -1.8739 -0.3327 -1.4726
19156TIP3   OH278958   1.757   2.620   3.503 -1.0280 -0.2063  0.2325
19156TIP3    H178959   1.743   2.540   3.554 -1.7916  0.9019  1.8239
19156TIP3    H278960   1.846   2.648   3.526 -0.1573 -1.3524 -1.4916
19157TIP3   OH278961   6.042   1.090   3.917  0.2210  0.3133  0.1456
19157TIP3    H178962   6.035   1.020   3.983 -1.5403 -0.9284 -1.2548
19157TIP3    H278963   6.136   1.104   3.907  0.5713  0.5593  2.8798
19158TIP3   OH278964   5.097   3.320   4.348 -0.6490 -0.4310  0.2132
19158TIP3    H178965   5.084   3.331   4.254  2.5643  0.8610 -0.2231
19158TIP3    H278966   5.126   3.229   4.358  0.1052 -0.2439 -0.2272
19159TIP3   OH278967   2.039   1.906  14.123  0.2974 -0.5726 -0.6661
19159TIP3    H178968   2.107   1.970  14.143  2.0701 -2.2171 -1.0588
19159TIP3    H278969   2.019   1.866  14.208 -0.0162 -0.2497 -0.5867
19160TIP3   OH278970   1.796   5.012   5.895  0.6256  0.3929  0.2363
19160TIP3    H178971   1.743   4.932   5.896 -0.1555  0.8930  1.4914
19160TIP3    H278972   1.828   5.019   5.805  2.3546 -2.3643  0.5178
19161TIP3   OH278973   2.723   2.078   1.786 -0.2900  0.1377 -0.2940
19161TIP3    H178974   2.707   2.172   1.794  0.1125  0.1253  0.6681
19161TIP3    H278975   2.797   2.060   1.844 -0.7518 -0.8772  0.0094
19162TIP3   OH278976   6.685   3.218   1.501  0.1163  0.2268 -0.2602
19162TIP3    H178977   6.627   3.273   1.553  1.5046  2.1341 -0.5938
19162TIP3    H278978   6.628   3.149   1.465 -1.7763  1.5930 -0.0356
19163TIP3   OH278979   1.586   1.432   1.120 -0.4432 -0.2697  0.1193
19163TIP3    H178980   1.614   1.523   1.130  1.4783 -0.4528 -2.4442
19163TIP3    H278981   1.528   1.433   1.044 -2.2323 -0.9405  1.4027
19164TIP3   OH278982   4.449   0.804  17.342  0.4422 -0.0176  0.1543
19164TIP3    H178983   4.479   0.738  17.280 -0.2612  1.4038 -1.7965
19164TIP3    H278984   4.359   0.779  17.362  0.0901  0.4616 -0.7823
19165TIP3   OH278985   0.103   3.453  16.689 -0.1135  1.0704 -0.1645
19165TIP3    H178986   0.166   3.493  16.749  1.7072 -1.5817 -0.1419
19165TIP3    H278987   0.155   3.394  16.634 -2.5121 -1.0774 -0.3572
19166TIP3   OH278988   0.286   4.248   4.998 -0.3253 -0.0233  0.0886
19166TIP3    H178989   0.332   4.325   5.033 -1.1535  1.6760 -2.2767
19166TIP3    H278990   0.217   4.231   5.061 -0.8496  1.9717  0.1338
19167TIP3   OH278991   0.034   3.567  13.863 -0.3505  0.0595  0.2830
19167TIP3    H178992   0.078   3.535  13.785 -2.3771  0.4258 -1.1002
19167TIP3    H278993   0.039   3.494  13.925  1.4035 -0.1835 -0.0965
19168TIP3   OH278994   4.548   3.545  12.068 -0.5746 -0.2028 -0.0511
19168TIP3    H178995   4.501   3.465  12.093  0.9489 -1.0954  0.1116
19168TIP3    H278996   4.491   3.589  12.006 -1.2533 -1.6611 -0.4858
19169TIP3   OH278997   6.126   2.243  13.282 -0.4754  0.0960 -0.7553
19169TIP3    H178998   6.159   2.231  13.371  2.2255 -0.1538 -1.6838
19169TIP3    H278999   6.120   2.154  13.247 -2.2639  0.1385 -0.6351
19170TIP3   OH279000   3.765   5.360   0.527  0.0615 -0.6376 -0.9999
19170TIP3    H179001   3.777   5.294   0.459  0.0266 -0.2865 -1.3521
19170TIP3    H279002   3.682   5.401   0.506  0.2548 -0.2374 -0.9959
19171TIP3   OH279003   4.394   2.682   2.344 -0.0119  0.2977  0.4900
19171TIP3    H179004   4.351   2.766   2.357 -1.6199 -0.4846  0.5018
19171TIP3    H279005   4.342   2.638   2.277  0.6306 -0.8020  0.6773
19172TIP3   OH279006   4.122   1.064  14.707  0.3703  0.0495 -0.3701
19172TIP3    H179007   4.032   1.045  14.680  0.5593 -0.3388 -0.7487
19172TIP3    H279008   4.174   1.050  14.627  0.7806  0.1348 -0.1201
19173TIP3   OH279009   5.250   3.746   3.144  0.6677  0.1198  0.4151
19173TIP3    H179010   5.172   3.774   3.095  0.5715 -1.3101 -0.2927
19173TIP3    H279011   5.215   3.705   3.223  0.7152 -0.0154  0.3664
19174TIP3   OH279012   6.080   5.224  16.441 -0.5013  0.3538 -0.0293
19174TIP3    H179013   6.002   5.224  16.386 -0.7115  0.4183  0.2670
19174TIP3    H279014   6.121   5.309  16.426 -0.4606  0.3015 -0.2200
19175TIP3   OH279015   2.128   1.048   4.782  0.1414  0.2186 -0.1600
19175TIP3    H179016   2.060   1.045   4.849  0.5593 -1.2959  0.2479
19175TIP3    H279017   2.202   1.090   4.825 -0.4917  1.8467 -0.5970
19176TIP3   OH279018   0.353   4.787  16.535  0.3466  0.4375  0.0741
19176TIP3    H179019   0.430   4.774  16.479  0.3976  2.2815 -0.3428
19176TIP3    H279020   0.385   4.837  16.610 -0.3169  0.6472  0.2281
19177TIP3   OH279021   4.101   2.974  11.658 -0.1975  0.4251  0.1256
19177TIP3    H179022   4.112   3.003  11.749  0.1918  1.1913 -0.1549
19177TIP3    H279023   4.013   3.003  11.635  0.1018  1.2090 -0.0770
19178TIP3   OH279024   0.651   6.752  14.264 -0.0816 -0.1545 -0.7544
19178TIP3    H179025   0.664   6.797  14.347 -1.3273 -1.5818  0.2625
19178TIP3    H279026   0.570   6.789  14.229 -0.7995 -1.1366 -0.1913
19179TIP3   OH279027   3.651   2.285  14.789  0.5339  0.0336  0.2556
19179TIP3    H179028   3.577   2.228  14.766 -1.7622  2.1534  1.9249
19179TIP3    H279029   3.630   2.369  14.748 -0.2517  1.9227  4.1238
19180TIP3   OH279030   1.986   3.529  16.269 -0.4115 -0.0012 -0.2393
19180TIP3    H179031   1.917   3.524  16.335 -0.2852  0.5453 -0.0536
19180TIP3    H279032   1.960   3.467  16.202 -1.2127  0.3687 -0.2851
19181TIP3   OH279033   3.898   3.835   5.708  0.8509  0.0702 -0.4244
19181TIP3    H179034   3.987   3.827   5.675  0.6236 -0.6486 -0.9007
19181TIP3    H279035   3.892   3.924   5.743  1.0755  0.9415 -2.4811
19182TIP3   OH279036   0.712   3.037  13.371 -0.1980  0.4383  0.3648
19182TIP3    H179037   0.642   2.974  13.386 -1.2493  1.4062 -0.3187
19182TIP3    H279038   0.774   2.991  13.314 -0.7364 -0.1090  0.2130
19183TIP3   OH279039   1.451   4.488  15.069 -0.5483 -0.2587 -0.1498
19183TIP3    H179040   1.459   4.516  14.978 -1.0592  0.1283 -0.0806
19183TIP3    H279041   1.364   4.516  15.095 -0.5522 -0.7094  0.3469
19184TIP3   OH279042   4.710   1.912   0.740  0.4788  0.0139 -0.4112
19184TIP3    H179043   4.642   1.976   0.720 -1.7127 -1.9903  0.1467
19184TIP3    H279044   4.735   1.930   0.830 -0.2523 -0.0352 -0.1990
19185TIP3   OH279045   6.050   0.591   6.084  0.1973 -0.0202  0.0843
19185TIP3    H179046   6.088   0.620   6.001 -0.7467  1.1939  0.0471
19185TIP3    H279047   5.961   0.625   6.083  0.1152 -0.1150  1.5276
19186TIP3   OH279048   1.913   4.816   4.131 -0.4875  0.4504 -0.1141
19186TIP3    H179049   1.946   4.736   4.090 -0.1637  1.6905 -2.4342
19186TIP3    H279050   1.975   4.833   4.202  0.3978 -0.4847 -0.6313
19187TIP3   OH279051   5.205   4.737  14.836  0.1179  0.5133  0.7801
19187TIP3    H179052   5.286   4.711  14.793  0.4414  1.2915  0.9038
19187TIP3    H279053   5.150   4.770  14.764 -0.0525  0.0735  0.7086
19188TIP3   OH279054   0.029   2.453  17.396 -0.0401 -0.1940 -0.0235
19188TIP3    H179055   0.029   2.362  17.366 -0.0313 -0.2971  0.2929
19188TIP3    H279056  -0.007   2.503  17.322  0.8580 -0.3348 -0.5704
19189TIP3   OH279057   3.616   4.425  15.649 -0.1634  0.1585 -0.1267
19189TIP3    H179058   3.641   4.516  15.666  0.1938  0.2411 -1.0353
19189TIP3    H279059   3.650   4.407  15.562 -0.3900 -0.7972 -0.0256
19190TIP3   OH279060   4.858   1.206   4.266  0.3674 -0.0872  0.2623
19190TIP3    H179061   4.860   1.193   4.361  1.7101 -0.7344  0.1734
19190TIP3    H279062   4.936   1.258   4.248 -0.3838  0.8469 -0.3952
19191TIP3   OH279063   5.772   2.935   2.687 -0.5070  0.1749  0.0665
19191TIP3    H179064   5.806   2.913   2.600 -0.2808 -0.8297  0.3920
19191TIP3    H279065   5.736   2.853   2.720  2.7172 -0.5236  2.4092
19192TIP3   OH279066   2.811   3.272   0.400 -0.1215 -0.0285 -0.2768
19192TIP3    H179067   2.821   3.235   0.488 -2.7523 -0.5302 -0.1184
19192TIP3    H279068   2.839   3.202   0.341  2.2921  0.5333  0.0821
19193TIP3   OH279069   6.353   0.475  10.514 -0.5524 -0.4916 -0.2171
19193TIP3    H179070   6.377   0.510  10.600 -1.7009  0.2417 -0.1734
19193TIP3    H279071   6.267   0.513  10.496  0.0062 -0.0258 -2.0439
19194TIP3   OH279072   1.330   1.537  12.302 -0.0230 -0.2014  0.0966
19194TIP3    H179073   1.406   1.527  12.246  0.9553 -0.2486  1.3897
19194TIP3    H279074   1.324   1.631  12.320 -0.4309 -0.1652 -0.2039
19195TIP3   OH279075   1.316   5.430  11.833 -0.0493 -0.2970  0.1914
19195TIP3    H179076   1.401   5.389  11.848  0.7028  1.0233 -0.2799
19195TIP3    H279077   1.305   5.427  11.738 -0.1419  0.2678  0.1819
19196TIP3   OH279078   3.117   5.879   3.754 -0.3050 -0.1008  0.3066
19196TIP3    H179079   3.209   5.908   3.753 -0.6770  1.4287  2.3784
19196TIP3    H279080   3.092   5.877   3.662  0.7912  3.0936 -0.2052
19197TIP3   OH279081   1.224   2.669   3.215  0.1986 -0.4729 -0.4703
19197TIP3    H179082   1.295   2.732   3.204 -0.7536  0.4381 -1.7496
19197TIP3    H279083   1.210   2.634   3.127 -0.0117 -1.6868  0.0250
19198TIP3   OH279084   4.499   3.711   5.280  0.1942 -0.1903 -0.5797
19198TIP3    H179085   4.417   3.746   5.246  1.1487  0.9816 -1.7843
19198TIP3    H279086   4.515   3.632   5.228 -0.5918 -0.9356  0.2740
19199TIP3   OH279087   6.660   0.456  15.317  0.2578 -0.1504  0.3478
19199TIP3    H179088   6.670   0.465  15.412 -0.4538 -2.0262  0.6408
19199TIP3    H279089   6.655   0.546  15.285  0.7215  0.5217  2.0562
19200TIP3   OH279090   2.053   0.020   6.059  0.3270 -0.2891 -0.3771
19200TIP3    H179091   2.142   0.008   6.027  0.3530 -0.0327 -0.4007
19200TIP3    H279092   2.048   0.113   6.082 -0.0222 -0.2364 -0.6535
19201TIP3   OH279093   5.374   6.604  11.411 -0.2577 -0.4202 -0.4355
19201TIP3    H179094   5.291   6.579  11.371 -0.3380  0.2876 -0.7210
19201TIP3    H279095   5.397   6.529  11.466 -0.4509 -1.1483 -1.3203
19202TIP3   OH279096   2.214   2.385  15.797 -0.0561 -0.7686 -0.3605
19202TIP3    H179097   2.187   2.477  15.806  1.9510 -0.1666  0.0825
19202TIP3    H279098   2.197   2.347  15.883 -1.1626 -0.9206 -0.6275
19203TIP3   OH279099   4.438   0.921   5.244 -0.1929 -0.0964 -0.0460
19203TIP3    H179100   4.390   0.981   5.302 -1.0215 -0.8028  0.0097
19203TIP3    H279101   4.383   0.843   5.238  1.0957 -1.0657  0.2660
19204TIP3   OH279102   3.745   6.148   2.564 -0.0185  0.6538 -0.3154
19204TIP3    H179103   3.758   6.234   2.524 -0.0655  0.2822 -1.1434
19204TIP3    H279104   3.829   6.128   2.605  0.2770  0.6966 -0.8962
19205TIP3   OH279105   3.166   2.799   5.216 -0.1095  0.5264  0.3332
19205TIP3    H179106   3.233   2.760   5.272  1.0146 -0.2284 -1.4578
19205TIP3    H279107   3.084   2.785   5.264  0.8150  0.1411  1.8795
19206TIP3   OH279108   0.938   3.266   3.351 -0.4514  0.0196  0.1381
19206TIP3    H179109   0.904   3.204   3.416 -0.2023  0.0324  0.2830
19206TIP3    H279110   1.012   3.220   3.311  3.0221  1.9774  3.6832
19207TIP3   OH279111   2.841   6.001   0.780  0.0696  0.8543 -0.1199
19207TIP3    H179112   2.805   5.922   0.821 -0.5174  1.4636  0.5514
19207TIP3    H279113   2.882   5.969   0.699  0.6838 -0.2749  0.6139
19208TIP3   OH279114   5.689   5.190  16.811 -0.2860 -0.0583 -0.2668
19208TIP3    H179115   5.671   5.112  16.757 -0.2502 -0.2161 -0.0531
19208TIP3    H279116   5.777   5.217  16.785 -1.0543  1.0949 -1.7796
19209TIP3   OH279117   6.333   0.022  14.255  0.9655 -0.3280 -0.4965
19209TIP3    H179118   6.299  -0.055  14.210  3.2017 -2.3170  1.0226
19209TIP3    H279119   6.376   0.073  14.186 -0.9897 -0.0884 -1.6095
19210TIP3   OH279120   5.053   5.182  11.734  0.1042  0.0352 -0.1962
19210TIP3    H179121   5.003   5.239  11.675 -0.1706 -0.4793 -0.4684
19210TIP3    H279122   5.138   5.225  11.742 -0.4191  1.0066  0.3950
19211TIP3   OH279123   0.762   5.871   3.067  0.0650 -0.1151 -0.3199
19211TIP3    H179124   0.842   5.899   3.111 -1.1788 -0.6145  2.4108
19211TIP3    H279125   0.721   5.953   3.038 -0.6797  0.5911  2.4494
19212TIP3   OH279126   4.705   4.602  16.089  0.2803 -0.5483 -0.6866
19212TIP3    H179127   4.704   4.648  16.172 -0.7109 -1.3857 -0.2041
19212TIP3    H279128   4.690   4.670  16.023 -0.2406 -0.0667 -0.0776
19213TIP3   OH279129   1.824   3.029   3.611  0.1532 -0.3110 -0.0931
19213TIP3    H179130   1.811   2.947   3.564  0.0411  0.2591 -1.0983
19213TIP3    H279131   1.873   3.005   3.689  2.3503 -1.0166 -1.6020
19214TIP3   OH279132   0.736   1.041  11.512 -0.3189 -0.3801 -0.1803
19214TIP3    H179133   0.808   1.094  11.478  0.4988 -1.4423 -0.1520
19214TIP3    H279134   0.685   1.102  11.566  0.4329  0.4397 -0.3704
19215TIP3   OH279135   5.556   6.621  14.580  0.4209 -0.2223 -0.1072
19215TIP3    H179136   5.573   6.714  14.561  1.5905 -0.2924  0.5016
19215TIP3    H279137   5.461   6.612  14.573  0.4904  0.2669 -3.5630
19216TIP3   OH279138   2.127   4.522   2.599  0.0297  0.4952 -0.2041
19216TIP3    H179139   2.138   4.503   2.692 -0.2873  0.4709 -0.1703
19216TIP3    H279140   2.205   4.486   2.558 -0.1124 -0.0336 -0.0195
19217TIP3   OH279141   1.581   3.617   4.360  0.0618 -0.2967  0.7654
19217TIP3    H179142   1.657   3.560   4.356  0.1630 -0.1393  0.4086
19217TIP3    H279143   1.590   3.676   4.284  0.2761  0.5871  1.4562
19218TIP3   OH279144   2.671   5.512  16.359 -0.1950  0.7598 -0.5311
19218TIP3    H179145   2.604   5.566  16.401  0.7780  0.9420  0.8194
19218TIP3    H279146   2.621   5.452  16.303 -1.5598  0.4507  0.9400
19219TIP3   OH279147   4.597   2.687   0.078  0.3047 -0.0008  0.8252
19219TIP3    H179148   4.692   2.683   0.086  0.3360  0.0201  0.4702
19219TIP3    H279149   4.581   2.686  -0.016 -0.0509 -0.0896  0.8862
19220TIP3   OH279150   1.706   6.384   2.677  0.3735 -0.4027 -0.1808
19220TIP3    H179151   1.775   6.372   2.742  1.4644 -1.1176 -1.4265
19220TIP3    H279152   1.730   6.325   2.605 -1.1973 -0.1876 -0.9165
19221TIP3   OH279153   4.618   2.781  13.978  0.3800 -0.2511  0.1460
19221TIP3    H179154   4.661   2.747  14.056 -0.7868 -1.1806  0.4036
19221TIP3    H279155   4.662   2.737  13.905 -0.2996 -1.4260  0.4202
19222TIP3   OH279156   1.519   2.760   6.871  0.0397  0.6681  0.1380
19222TIP3    H179157   1.424   2.746   6.872  0.3013 -1.4672 -0.5171
19222TIP3    H279158   1.546   2.735   6.783  1.2895  0.7586  0.4762
19223TIP3   OH279159   4.159   5.137  16.841  0.0823  0.3933  0.6550
19223TIP3    H179160   4.097   5.205  16.816  0.2458  0.1819 -0.3534
19223TIP3    H279161   4.164   5.079  16.765  0.0764 -0.6541  1.4333
19224TIP3   OH279162   2.860   0.886   3.579 -0.1373  0.0717 -0.4135
19224TIP3    H179163   2.904   0.939   3.513 -0.2623  1.0446  0.2790
19224TIP3    H279164   2.880   0.928   3.662  0.3575 -1.3709  0.2389
19225TIP3   OH279165   0.932   0.537   2.520 -0.3069  0.0904 -0.2696
19225TIP3    H179166   0.922   0.623   2.559  0.7120 -0.5142  1.4255
19225TIP3    H279167   0.918   0.476   2.592  0.4398 -1.1201 -1.1041
19226TIP3   OH279168   3.504   0.539  12.507  0.5066 -0.8914 -0.3628
19226TIP3    H179169   3.516   0.508  12.597  1.8087  0.5592 -0.0066
19226TIP3    H279170   3.446   0.474  12.468 -0.2951 -1.4396  1.5871
19227TIP3   OH279171   4.079   4.465   1.480  0.2699 -0.3150  0.1400
19227TIP3    H179172   4.077   4.379   1.438 -1.3329  0.3033 -1.1640
19227TIP3    H279173   4.169   4.494   1.470  0.1982 -0.6377 -2.0481
19228TIP3   OH279174   2.693   6.013  11.299 -0.3859 -0.1552 -0.4954
19228TIP3    H179175   2.641   5.932  11.305  1.2514 -1.1424  1.6433
19228TIP3    H279176   2.658   6.069  11.367 -1.5269  1.0450 -1.9881
19229TIP3   OH279177   5.644   3.113   4.902 -0.5454  0.3806  0.1272
19229TIP3    H179178   5.739   3.119   4.904 -0.5022 -0.3963  0.7802
19229TIP3    H279179   5.615   3.170   4.973 -0.5060 -0.2760  0.6834
19230TIP3   OH279180   0.097   2.308   4.273 -0.3986 -0.2149  0.6007
19230TIP3    H179181   0.145   2.354   4.343  2.3907 -1.6999 -0.2061
19230TIP3    H279182   0.113   2.215   4.290 -5.5448 -1.1631  1.9490
19231TIP3   OH279183   2.450   4.768  14.923 -0.4268  0.0808 -0.0521
19231TIP3    H179184   2.420   4.750  15.012  2.1107 -0.9614  0.7077
19231TIP3    H279185   2.414   4.853  14.902 -2.1429 -0.2063  1.4676
19232TIP3   OH279186   6.249   4.844  14.224 -0.1571 -0.0534  0.3581
19232TIP3    H179187   6.274   4.752  14.213  0.2153  0.0211  0.5494
19232TIP3    H279188   6.333   4.891  14.228 -0.3444  0.2950  0.2592
19233TIP3   OH279189   3.405   5.370   3.720 -0.1198 -0.1522 -0.1373
19233TIP3    H179190   3.455   5.410   3.790 -0.0741  0.0683 -0.2939
19233TIP3    H279191   3.447   5.400   3.639  0.1786 -0.8549 -0.2572
19234TIP3   OH279192   0.223   5.328   5.897  0.2761  0.5603  0.4068
19234TIP3    H179193   0.231   5.302   5.989  0.6745 -0.4358  0.0985
19234TIP3    H279194   0.144   5.382   5.895  0.8634  1.5084  1.5204
19235TIP3   OH279195   6.703   5.010  13.170  0.0402  0.6842  0.3435
19235TIP3    H179196   6.649   4.988  13.246  0.4157  0.4037  0.5336
19235TIP3    H279197   6.644   4.999  13.095 -0.2289  0.5968  0.5663
19236TIP3   OH279198   5.092   4.910  14.669 -0.3650 -0.0197 -0.2462
19236TIP3    H179199   5.026   4.937  14.605 -0.7692 -0.7338 -0.1336
19236TIP3    H279200   5.174   4.908  14.620 -0.8559 -1.7538 -1.0691
19237TIP3   OH279201   2.020   2.400  11.161  0.2332 -0.2101  0.0090
19237TIP3    H179202   2.081   2.455  11.112  1.2784 -1.0218  0.3730
19237TIP3    H279203   2.075   2.332  11.199 -0.4869  0.5501  2.5824
19238TIP3   OH279204   0.195   5.007   2.426  0.1913  0.4798  0.2315
19238TIP3    H179205   0.170   4.929   2.477 -1.6927  0.1696 -1.0549
19238TIP3    H279206   0.260   4.974   2.364 -1.9970 -0.6284 -1.6205
19239TIP3   OH279207   1.849   2.996   3.258 -0.1278  0.3095 -0.1378
19239TIP3    H179208   1.942   3.007   3.275 -0.0686 -1.1629  0.6479
19239TIP3    H279209   1.806   3.023   3.339 -0.5895  3.1058 -1.2113
19240TIP3   OH279210   5.366   5.094  15.747  0.4862 -0.2902 -0.1950
19240TIP3    H179211   5.309   5.025  15.713 -1.0410  0.7257  0.2207
19240TIP3    H279212   5.390   5.064  15.835  0.7168 -0.7988 -0.4300
19241TIP3   OH279213   2.780   5.652   5.561  0.5397  0.4286 -0.5881
19241TIP3    H179214   2.747   5.579   5.614  3.9083 -1.2752 -0.5337
19241TIP3    H279215   2.730   5.648   5.480  0.0586 -1.4520 -0.2533
19242TIP3   OH279216   4.326   2.338  16.587 -0.3727 -0.3446 -0.2628
19242TIP3    H179217   4.348   2.271  16.653 -1.1187 -2.4508 -2.0252
19242TIP3    H279218   4.361   2.419  16.623  2.2292 -1.9558  1.1865
19243TIP3   OH279219   1.342   1.841  16.778 -0.0961  0.2901  0.1004
19243TIP3    H179220   1.400   1.828  16.703 -0.5296  0.6160 -0.2978
19243TIP3    H279221   1.254   1.822  16.744 -0.5523  2.4520 -0.0576
19244TIP3   OH279222   5.069   5.367   4.825  0.4123 -0.9782 -0.1223
19244TIP3    H179223   5.107   5.358   4.913  0.4392  0.9343  0.1004
19244TIP3    H279224   5.141   5.400   4.771  0.5771 -2.7473 -1.0624
19245TIP3   OH279225   3.313   5.229  12.023  0.4244  0.0817  0.1982
19245TIP3    H179226   3.278   5.298  12.080  0.9478  1.1270 -0.7109
19245TIP3    H279227   3.237   5.200  11.972  0.9053  3.0475 -2.4952
19246TIP3   OH279228   3.724   4.260   2.946 -0.3753 -0.5545  0.7252
19246TIP3    H179229   3.794   4.304   2.897 -0.5868  0.1534  1.0550
19246TIP3    H279230   3.765   4.236   3.029 -0.8990  1.1749  1.5265
19247TIP3   OH279231   5.063   1.786   5.790  0.1101 -0.1176 -0.3668
19247TIP3    H179232   5.092   1.707   5.745 -0.4043 -0.5834  0.1031
19247TIP3    H279233   4.967   1.777   5.795  0.0938  0.2837  0.1457
19248TIP3   OH279234   0.106   4.495  16.053  0.8273 -0.2742  0.0676
19248TIP3    H179235   0.158   4.552  16.110  2.6177  0.1403 -1.8669
19248TIP3    H279236   0.117   4.531  15.965 -0.1470 -2.0724 -0.8657
19249TIP3   OH279237   3.456   5.805  11.586 -0.2371  0.2246 -0.5292
19249TIP3    H179238   3.535   5.842  11.623  0.1801 -0.8472 -0.3228
19249TIP3    H279239   3.485   5.729  11.537 -1.2861 -1.0793  0.7959
19250TIP3   OH279240   4.990   2.958   0.852 -0.0795 -0.1865 -0.1954
19250TIP3    H179241   4.956   3.046   0.838 -0.6104 -0.3211  0.2155
19250TIP3    H279242   5.021   2.930   0.766  1.0959  0.8122 -0.1129
19251TIP3   OH279243   1.650   5.816   3.470 -0.1285  0.7150  0.2412
19251TIP3    H179244   1.742   5.791   3.466 -0.4791 -0.6235  0.2320
19251TIP3    H279245   1.644   5.874   3.545  0.5091 -0.1488  0.9718
19252TIP3   OH279246   4.062   4.911  15.926  0.5223  0.0575 -0.5840
19252TIP3    H179247   4.144   4.864  15.941  0.6244  0.9569  2.5848
19252TIP3    H279248   4.074   4.954  15.842  3.0725 -0.3115 -0.5061
19253TIP3   OH279249   1.156   1.948  10.523  0.3121  0.1780  0.5516
19253TIP3    H179250   1.108   2.013  10.574  1.7836  1.3952  0.4358
19253TIP3    H279251   1.223   1.998  10.475 -0.0557 -1.1064 -1.4397
19254TIP3   OH279252   6.235   6.423   2.580 -0.0206  0.1887  0.0089
19254TIP3    H179253   6.187   6.426   2.663  1.3715  1.1780  0.8269
19254TIP3    H279254   6.213   6.337   2.543  0.1273 -0.7357  1.9161
19255TIP3   OH279255   5.330   2.353  13.327  0.1313 -0.5454  0.9431
19255TIP3    H179256   5.279   2.361  13.247  0.5810 -1.3771  0.5699
19255TIP3    H279257   5.267   2.371  13.397 -0.5643 -1.0737  0.4657
19256TIP3   OH279258   3.504   0.850  15.004  0.2622  0.9454  0.2003
19256TIP3    H179259   3.423   0.815  14.967  0.2035 -0.9720  1.9618
19256TIP3    H279260   3.574   0.801  14.962  0.3422  0.6057  0.7239
19257TIP3   OH279261   5.688   6.294  11.814 -0.2406  0.1141 -0.7781
19257TIP3    H179262   5.749   6.220  11.804 -0.3038  0.1401 -1.4011
19257TIP3    H279263   5.712   6.354  11.743  0.0132  0.8436 -0.0886
19258TIP3   OH279264   4.978   3.719   5.046 -0.6154  0.5050  0.0203
19258TIP3    H179265   4.941   3.664   5.114  0.2860  0.1676  0.2542
19258TIP3    H279266   5.070   3.732   5.072 -0.6068  1.4853 -0.4252
19259TIP3   OH279267   2.677   4.136   6.051 -0.1235  0.2082  0.1609
19259TIP3    H179268   2.770   4.128   6.032 -0.3857  1.3559 -2.0013
19259TIP3    H279269   2.653   4.223   6.018 -2.0198 -0.2027  0.2968
19260TIP3   OH279270   3.964   4.794   3.442  0.0780 -0.1157 -0.1147
19260TIP3    H179271   3.930   4.825   3.359  1.3652 -1.9842 -1.4320
19260TIP3    H279272   3.908   4.835   3.508 -0.4359  2.1392 -1.8119
19261TIP3   OH279273   2.639   5.511  15.108 -0.0496 -0.1145  0.3509
19261TIP3    H179274   2.703   5.462  15.057 -1.9599  1.3926 -3.9856
19261TIP3    H279275   2.672   5.600  15.110 -1.1439  0.3265 -0.4172
19262TIP3   OH279276   6.435   0.757   5.879 -0.2673  0.0412 -0.6931
19262TIP3    H179277   6.350   0.776   5.921  0.7565 -0.3178  1.6937
19262TIP3    H279278   6.497   0.815   5.923  1.0615 -1.0847 -1.0184
19263TIP3   OH279279   2.594   1.525   5.702  0.3816  0.9077 -0.0305
19263TIP3    H179280   2.549   1.604   5.732  0.5379  0.9508  0.0951
19263TIP3    H279281   2.634   1.488   5.781 -0.3077  0.2904  0.0376
19264TIP3   OH279282   1.009   3.845  11.813 -0.1039 -0.1737  0.0270
19264TIP3    H179283   0.921   3.838  11.777  0.0289  1.2475 -0.6332
19264TIP3    H279284   1.038   3.934  11.790  0.9920 -0.1420  1.3768
19265TIP3   OH279285   4.964   0.056   6.430 -0.4797  0.1940  0.6116
19265TIP3    H179286   5.025  -0.002   6.385 -0.5430  0.1599  0.5698
19265TIP3    H279287   4.936   0.007   6.507  0.5712  0.7284  1.3545
19266TIP3   OH279288   2.661   3.442   3.801 -0.0419  0.5841  0.7294
19266TIP3    H179289   2.667   3.389   3.880  0.8126 -1.1925 -0.4655
19266TIP3    H279290   2.576   3.485   3.808 -0.4263 -0.3246  2.1217
19267TIP3   OH279291   1.472   3.905   3.314 -0.5190  0.6133  0.3539
19267TIP3    H179292   1.459   3.814   3.339  2.2387  0.4017  1.4761
19267TIP3    H279293   1.470   3.905   3.219  0.1331 -0.7773  0.3185
19268TIP3   OH279294   3.264   0.656  16.619 -0.5310  0.3043  0.0772
19268TIP3    H179295   3.187   0.604  16.594 -1.2706  1.8385 -0.9650
19268TIP3    H279296   3.227   0.736  16.657  0.5859  0.2100  1.4462
19269TIP3   OH279297   3.401   0.091   0.947 -0.3730 -0.3074  0.0100
19269TIP3    H179298   3.458   0.165   0.966 -1.0413  0.5679 -1.2380
19269TIP3    H279299   3.315   0.119   0.978 -0.6282 -0.5522 -0.4729
19270TIP3   OH279300   1.282   5.745  15.873 -0.3653 -0.1095 -0.1169
19270TIP3    H179301   1.364   5.712  15.835 -0.4344  0.1259 -0.4764
19270TIP3    H279302   1.279   5.707  15.960 -0.2959 -0.8084 -0.4158
19271TIP3   OH279303   2.175   4.359   0.714 -0.1775  0.3709 -0.5230
19271TIP3    H179304   2.108   4.355   0.645 -1.4068 -0.4650  0.6764
19271TIP3    H279305   2.239   4.292   0.689  0.5368  1.5404 -1.9653
19272TIP3   OH279306   3.174   1.927  13.782 -0.4303 -0.5480 -0.2740
19272TIP3    H179307   3.212   1.842  13.763 -0.0807 -0.3216 -0.6064
19272TIP3    H279308   3.225   1.989  13.730  0.5711  0.1043  1.3975
19273TIP3   OH279309   4.465   5.065  12.873 -0.2574  0.4391 -0.5272
19273TIP3    H179310   4.483   5.159  12.881  0.0959  0.2258  2.1907
19273TIP3    H279311   4.552   5.025  12.864 -0.3994  0.3279 -1.5497
19274TIP3   OH279312   0.558   2.094   3.341  0.1191  0.0522 -0.0782
19274TIP3    H179313   0.596   2.077   3.427  0.7975 -3.4307 -0.9072
19274TIP3    H279314   0.634   2.103   3.283 -0.2948 -1.1381 -0.8345
19275TIP3   OH279315   3.811   6.127   1.765  0.3549  0.3761  0.2535
19275TIP3    H179316   3.726   6.168   1.748  0.6266  1.1460  0.7039
19275TIP3    H279317   3.824   6.069   1.690  0.1838  1.4949 -0.6755
19276TIP3   OH279318   2.006   4.764  11.909  0.3617 -0.0573 -0.9261
19276TIP3    H179319   2.029   4.671  11.908  1.0725  0.0818  0.3615
19276TIP3    H279320   1.956   4.777  11.828  1.4041 -1.2598 -1.8090
19277TIP3   OH279321   3.592   4.949  12.368  0.2566 -0.3451  0.5736
19277TIP3    H179322   3.646   5.020  12.403 -2.3201  1.0050  2.1561
19277TIP3    H279323   3.632   4.928  12.283  0.7413  3.5653 -0.3762
19278TIP3   OH279324   1.732   3.247  12.024  0.2591  0.0802  0.1456
19278TIP3    H179325   1.763   3.229  11.935  1.6900 -1.4759  0.8949
19278TIP3    H279326   1.637   3.235  12.019  0.3100  0.0765 -1.1707
19279TIP3   OH279327   6.069   0.240   2.287 -0.1314 -0.2988  0.3776
19279TIP3    H179328   6.124   0.170   2.323 -0.0603 -0.2357  0.3911
19279TIP3    H279329   6.111   0.321   2.318  0.2806 -0.2274 -0.3528
19280TIP3   OH279330   5.441   4.282   6.512  0.4606  0.3929 -0.0732
19280TIP3    H179331   5.489   4.249   6.588  2.5285  0.7672 -1.1343
19280TIP3    H279332   5.465   4.374   6.507  0.1822  0.4218 -1.0474
19281TIP3   OH279333   5.548   4.590  17.135 -0.2620 -0.5398 -0.3255
19281TIP3    H179334   5.512   4.655  17.195 -0.0492 -0.3881 -0.3596
19281TIP3    H279335   5.632   4.565  17.174  0.0250 -0.2094 -0.7200
19282TIP3   OH279336   2.388   3.356   5.880  0.0280  0.6765  0.1132
19282TIP3    H179337   2.383   3.308   5.797  0.1502  1.9309 -0.6513
19282TIP3    H279338   2.384   3.288   5.947 -1.6011 -0.2759 -0.8707
19283TIP3   OH279339   5.802   0.755   2.166 -0.1568 -0.0585  0.1028
19283TIP3    H179340   5.863   0.792   2.102  0.0582  0.5351  0.6330
19283TIP3    H279341   5.858   0.716   2.233 -0.3810 -0.9353 -0.2025
19284TIP3   OH279342   4.743   4.661   3.210 -0.1539  0.0246 -0.3205
19284TIP3    H179343   4.665   4.627   3.255  0.5777  0.2322  1.1744
19284TIP3    H279344   4.788   4.582   3.179  0.1615 -0.2571  0.7854
19285TIP3   OH279345   2.202   5.830  15.536  0.1993  0.0051  0.2301
19285TIP3    H179346   2.243   5.776  15.603 -1.0646 -0.4628  0.6563
19285TIP3    H279347   2.179   5.768  15.466 -0.3239  0.1499  0.2681
19286TIP3   OH279348   3.721   1.961  12.820  0.2300  0.1654 -0.0346
19286TIP3    H179349   3.681   1.886  12.776  0.2086  0.4270 -0.4658
19286TIP3    H279350   3.650   2.025  12.828  0.0745 -0.1089  0.9344
19287TIP3   OH279351   0.231   6.710  15.609 -0.0263 -0.0344 -0.2235
19287TIP3    H179352   0.152   6.732  15.659 -0.2227  1.1252 -1.0187
19287TIP3    H279353   0.280   6.791  15.605 -0.1412 -0.0232 -2.1420
19288TIP3   OH279354   1.064   4.179   0.987 -0.1784 -0.3326  0.0591
19288TIP3    H179355   1.081   4.227   1.068  1.4195 -0.2277 -0.3010
19288TIP3    H279356   1.069   4.246   0.919  0.4472 -0.7453 -0.3007
19289TIP3   OH279357   5.128   2.220  10.500  0.2380 -0.1350 -0.3631
19289TIP3    H179358   5.080   2.169  10.564  0.3555 -0.1264 -0.2670
19289TIP3    H279359   5.220   2.195  10.514  0.1083 -1.7047 -1.8885
19290TIP3   OH279360   0.716   2.049   2.457  0.1657 -0.2834 -0.0266
19290TIP3    H179361   0.636   2.031   2.507  0.0231 -2.2399 -0.8641
19290TIP3    H279362   0.774   2.092   2.520 -1.6621  1.6086  0.4778
19291TIP3   OH279363   3.035   5.537   1.157  0.3939 -0.2861 -0.3155
19291TIP3    H179364   2.958   5.493   1.192  0.0138  0.1011 -0.6641
19291TIP3    H279365   3.031   5.523   1.063  1.1726 -0.9358 -0.2574
19292TIP3   OH279366   4.303   3.299  11.799  0.2756  0.7010  0.3595
19292TIP3    H179367   4.215   3.317  11.833 -0.0060 -0.7030  0.4235
19292TIP3    H279368   4.290   3.288  11.705  0.4346  0.7330  0.3348
19293TIP3   OH279369   5.121   0.348  16.537 -0.6427 -0.1511  0.1068
19293TIP3    H179370   5.191   0.285  16.550 -1.5397 -0.6479  3.5422
19293TIP3    H279371   5.153   0.429  16.577 -0.9486  0.5033 -0.9159
19294TIP3   OH279372   3.173   1.836  17.401 -0.8545 -0.6396  0.1425
19294TIP3    H179373   3.155   1.832  17.307 -1.6748 -1.9878  0.3358
19294TIP3    H279374   3.223   1.757  17.420  3.0825  1.5893  0.1663
19295TIP3   OH279375   0.972   3.942   5.030  0.0680  0.3422  0.3389
19295TIP3    H179376   0.895   3.984   4.992 -0.8934 -0.6869  1.0675
19295TIP3    H279377   1.007   4.007   5.092 -0.0574  0.9075 -0.1723
19296TIP3   OH279378   2.295   3.083  13.581 -0.1639  0.1221 -0.4717
19296TIP3    H179379   2.359   3.142  13.620 -1.9078  0.8503  1.4964
19296TIP3    H279380   2.264   3.129  13.503 -1.0859  1.6559  0.7277
19297TIP3   OH279381   0.007   3.684  17.357  0.2533 -0.5531  0.0309
19297TIP3    H179382  -0.057   3.740  17.401 -0.0852 -0.5321 -0.4802
19297TIP3    H279383   0.090   3.730  17.368  0.0981 -0.3180  0.2453
19298TIP3   OH279384   4.110   4.765   0.785 -0.3893 -0.1738 -0.6510
19298TIP3    H179385   4.128   4.755   0.692 -0.4675 -2.1361 -0.4928
19298TIP3    H279386   4.087   4.857   0.795  2.4079  0.7780 -2.0645
19299TIP3   OH279387   1.695   5.252   2.437  0.3830  0.0257 -0.3042
19299TIP3    H179388   1.695   5.227   2.344 -3.2057 -0.7741 -0.2109
19299TIP3    H279389   1.725   5.173   2.482  1.8966  0.3352 -0.6917
19300TIP3   OH279390   0.781   1.760  17.053 -0.0957 -0.0136 -0.0299
19300TIP3    H179391   0.735   1.680  17.077 -0.1884  0.1043  0.1825
19300TIP3    H279392   0.863   1.756  17.103 -0.1408  0.0697  0.0501
19301TIP3   OH279393   2.200   6.243  14.005 -1.0176  0.3249  0.0250
19301TIP3    H179394   2.150   6.293  13.940  0.0554  0.1924 -0.9323
19301TIP3    H279395   2.269   6.201  13.954 -0.6842 -0.5015  1.1346
19302TIP3   OH279396   5.295   2.108   5.232 -0.0101 -0.0154  0.6140
19302TIP3    H179397   5.227   2.160   5.275  0.6454  0.4997  1.0461
19302TIP3    H279398   5.280   2.018   5.261 -2.1450 -0.3978 -1.3725
19303TIP3   OH279399   4.728   6.699   1.429  0.0215  0.0815 -0.1087
19303TIP3    H179400   4.774   6.636   1.374 -0.5290  0.2846 -0.8130
19303TIP3    H279401   4.682   6.645   1.494  1.0619 -0.1315  0.4781
19304TIP3   OH279402   0.367   2.208   0.779 -0.6412  0.2959 -0.0776
19304TIP3    H179403   0.303   2.164   0.724 -2.2340 -0.5202  2.2826
19304TIP3    H279404   0.382   2.148   0.852  2.4629  0.7015 -0.2290
19305TIP3   OH279405   0.445   0.019   0.080  0.1658  0.2163  0.4484
19305TIP3    H179406   0.407  -0.050   0.025 -0.7912  1.6069 -0.7390
19305TIP3    H279407   0.416  -0.001   0.169 -0.2153 -0.8205  0.0989
19306TIP3   OH279408   5.472   1.022  16.874  0.1719  0.4280  0.2054
19306TIP3    H179409   5.385   1.035  16.912  1.0901  4.0830  1.4197
19306TIP3    H279410   5.513   0.956  16.929 -1.8656 -1.7584 -0.6865
19307TIP3   OH279411   4.023   3.207  10.816  0.5373 -0.3494  0.4312
19307TIP3    H179412   4.095   3.243  10.764 -0.3166  1.1467  0.2363
19307TIP3    H279413   3.975   3.284  10.848 -1.1165 -1.3010  0.3581
19308TIP3   OH279414   2.740   3.142  15.434  0.0102  0.0781 -0.2835
19308TIP3    H179415   2.762   3.203  15.363 -0.8998  2.1697  1.1086
19308TIP3    H279416   2.644   3.145  15.439  0.0704  0.1445  1.1535
19309TIP3   OH279417   0.652   4.771  17.448 -0.0463  0.5772 -0.2627
19309TIP3    H179418   0.718   4.839  17.462  0.7868  0.0825 -1.5407
19309TIP3    H279419   0.592   4.808  17.383  2.4713 -1.0466 -3.9197
19310TIP3   OH279420   5.269   1.688   0.525 -0.6458  0.4017  0.8228
19310TIP3    H179421   5.291   1.754   0.590  0.8889  1.1569 -0.4069
19310TIP3    H279422   5.324   1.613   0.548  1.2367  1.2787 -0.5502
19311TIP3   OH279423   1.910   0.367  11.685  0.3315 -0.1418  0.2438
19311TIP3    H179424   1.937   0.455  11.712 -0.1856  0.1397 -0.1480
19311TIP3    H279425   1.976   0.310  11.723  0.6455  0.4106  0.5498
19312TIP3   OH279426   1.984   0.249  13.443 -0.2505  0.4701 -0.7624
19312TIP3    H179427   2.000   0.339  13.415 -0.8118  1.1933  1.0419
19312TIP3    H279428   2.070   0.209  13.448  0.1584  1.3820 -0.2206
19313TIP3   OH279429   0.458   0.802   4.158  0.2993 -0.0310  0.0417
19313TIP3    H179430   0.483   0.718   4.119 -0.9360 -0.3926 -0.0231
19313TIP3    H279431   0.471   0.789   4.252 -2.5261 -1.3461  0.3705
19314TIP3   OH279432   1.077   2.487   2.290  0.1394  0.3699 -0.1595
19314TIP3    H179433   1.158   2.514   2.332 -0.2051  2.0463 -0.5325
19314TIP3    H279434   1.082   2.522   2.202 -0.9762  0.4567 -0.2042
19315TIP3   OH279435   6.767   3.776   5.348 -0.2904  0.6193  0.0170
19315TIP3    H179436   6.712   3.819   5.414  1.4603  0.7505  1.4745
19315TIP3    H279437   6.741   3.684   5.351  0.0994  0.5340  1.2741
19316TIP3   OH279438   3.614   5.909  13.672 -0.0818  0.3451 -0.0169
19316TIP3    H179439   3.668   5.988  13.675  0.4934  0.0241 -1.3548
19316TIP3    H279440   3.527   5.941  13.648 -0.4745  0.8340  1.8950
19317TIP3   OH279441   5.977   5.685  16.718 -0.0371  0.0364  0.7591
19317TIP3    H179442   5.881   5.684  16.718 -0.0446  0.3368  0.2660
19317TIP3    H279443   6.000   5.776  16.701  0.3408  0.0494  1.3152
19318TIP3   OH279444   3.295   2.821   6.270 -0.2225 -0.8046 -0.1524
19318TIP3    H179445   3.369   2.818   6.211  0.2453  0.4796  0.3464
19318TIP3    H279446   3.326   2.778   6.350 -0.2528 -0.9010 -0.1924
19319TIP3   OH279447   4.608   4.889   0.736  0.2385 -0.2741  0.1960
19319TIP3    H179448   4.644   4.931   0.814 -0.5466  2.0624 -0.6364
19319TIP3    H279449   4.659   4.923   0.663  0.0780 -1.3929 -0.4776
19320TIP3   OH279450   1.458   3.222  17.475  0.1036 -0.5116  0.1789
19320TIP3    H179451   1.452   3.236  17.570 -2.0410  1.7301 -0.1773
19320TIP3    H279452   1.552   3.209  17.459  0.9899  2.1579  2.2923
19321TIP3   OH279453   3.322   3.608  12.849 -0.2665  0.2727 -0.5031
19321TIP3    H179454   3.370   3.527  12.833 -1.6599 -0.2610 -2.2872
19321TIP3    H279455   3.245   3.580  12.900 -0.4573  0.5579 -0.6314
19322TIP3   OH279456   5.244   3.422   0.555 -0.4060 -0.0435 -0.2479
19322TIP3    H179457   5.260   3.491   0.619  1.7686 -1.4891  0.8995
19322TIP3    H279458   5.332   3.389   0.533 -1.3172 -4.2927  1.4176
19323TIP3   OH279459   3.204   0.032  13.270  0.3680 -0.6332  0.1080
19323TIP3    H179460   3.239  -0.005  13.189 -0.9518  0.4740 -1.0358
19323TIP3    H279461   3.247   0.117  13.279 -0.0958 -0.3886  0.0940
19324TIP3   OH279462   5.190   4.603  12.947  0.1075  0.2651 -0.1985
19324TIP3    H179463   5.233   4.523  12.915 -2.0031 -0.5147 -1.2204
19324TIP3    H279464   5.132   4.630  12.876 -1.0712  1.2878  1.0966
19325TIP3   OH279465   4.912   1.092   0.057  0.2908 -0.0041 -0.4141
19325TIP3    H179466   4.841   1.144   0.018 -1.9322 -1.0146  1.9580
19325TIP3    H279467   4.968   1.069  -0.017 -0.3488  3.0450 -2.0349
19326TIP3   OH279468   4.458   1.532  14.153  0.1378 -0.4014  0.1929
19326TIP3    H179469   4.387   1.545  14.090  1.5948  2.3166 -1.0681
19326TIP3    H279470   4.480   1.439  14.144 -4.3490 -1.9629  2.0656
19327TIP3   OH279471   0.012   0.879   3.138 -0.0459 -0.0682 -0.0388
19327TIP3    H179472   0.021   0.794   3.181  0.9294 -0.4184 -0.8953
19327TIP3    H279473   0.100   0.899   3.107 -0.2272  1.3651  0.3373
19328TIP3   OH279474   2.390   4.805   5.700  0.3969  0.5349 -0.2208
19328TIP3    H179475   2.377   4.890   5.658  0.5905 -0.0117 -1.4173
19328TIP3    H279476   2.485   4.796   5.707  0.3729  1.2277  1.6704
19329TIP3   OH279477   0.701   5.736  13.877  0.2195  0.1085  0.1648
19329TIP3    H179478   0.722   5.689  13.958 -0.0354 -2.4335 -1.1383
19329TIP3    H279479   0.647   5.810  13.906 -0.1239 -0.8864  2.2873
19330TIP3   OH279480   0.266   4.182   0.442 -0.7350  0.3236  0.4576
19330TIP3    H179481   0.213   4.103   0.447 -1.4625  0.8155  0.7394
19330TIP3    H279482   0.233   4.228   0.365 -2.2769  1.6965  1.8499
19331TIP3   OH279483   5.672   1.206   4.184  0.1015 -0.0125 -0.0825
19331TIP3    H179484   5.704   1.190   4.273  2.7580 -0.6147 -1.0593
19331TIP3    H279485   5.606   1.138   4.169  0.1980 -0.3929  1.1448
19332TIP3   OH279486   6.200   4.526   4.975  0.4308  0.2706  0.4816
19332TIP3    H179487   6.111   4.515   5.009  0.2911  1.3089  0.4848
19332TIP3    H279488   6.253   4.470   5.031 -0.4848 -2.1949 -0.9457
19333TIP3   OH279489   5.446   1.832   6.227 -0.5115  0.2108  0.5377
19333TIP3    H179490   5.514   1.899   6.225  0.1332 -0.4416 -0.0822
19333TIP3    H279491   5.367   1.878   6.256 -0.9444  2.0348 -3.0091
19334TIP3   OH279492   4.041   4.612  16.976 -0.5990  0.2694 -0.6767
19334TIP3    H179493   3.962   4.644  16.933 -0.7082 -0.8475 -1.3638
19334TIP3    H279494   4.051   4.667  17.053 -1.2875  1.3004 -1.3049
19335TIP3   OH279495   2.347   6.613  16.147 -0.2717  0.5514  0.1840
19335TIP3    H179496   2.298   6.650  16.221 -0.4520 -0.0649  0.3801
19335TIP3    H279497   2.282   6.563  16.098  0.2565 -0.7525  0.7690
19336TIP3   OH279498   0.414   3.466   5.079  0.3788 -0.5335 -0.6268
19336TIP3    H179499   0.375   3.491   5.163  0.3817  0.2226 -0.8424
19336TIP3    H279500   0.509   3.466   5.096  0.3753 -0.4767 -0.6088
19337TIP3   OH279501   6.182   2.761   4.711 -0.3180  0.6582 -0.0327
19337TIP3    H179502   6.114   2.695   4.725 -0.1961  0.5919  0.2608
19337TIP3    H279503   6.254   2.713   4.669 -1.0456  1.0511 -1.8126
19338TIP3   OH279504   5.449   1.440  11.829 -0.2528  0.4923  0.2170
19338TIP3    H179505   5.411   1.503  11.769 -1.9834  0.7280  1.4672
19338TIP3    H279506   5.501   1.381  11.774 -1.3266  1.0157 -1.4103
19339TIP3   OH279507   4.515   0.737  13.146 -0.7075 -0.3349  0.3994
19339TIP3    H179508   4.499   0.726  13.052 -0.5507  0.3967  0.2804
19339TIP3    H279509   4.494   0.652  13.184 -0.5454 -0.7077 -0.3291
19340TIP3   OH279510   3.749   0.714   2.338 -0.3394  0.1312  0.1168
19340TIP3    H179511   3.695   0.754   2.270  0.8037  0.4305 -0.6416
19340TIP3    H279512   3.696   0.641   2.371 -1.9692  1.5154  0.7046
19341TIP3   OH279513   5.003   1.296  16.756 -0.2753 -0.0569  0.1939
19341TIP3    H179514   4.915   1.259  16.746 -1.0992  1.5743  0.9014
19341TIP3    H279515   5.006   1.369  16.694  0.2883  0.3661  0.6994
19342TIP3   OH279516   3.106   1.980   4.113 -0.0113  0.0023  0.1153
19342TIP3    H179517   3.082   2.059   4.065 -1.0306 -0.9636 -1.0095
19342TIP3    H279518   3.028   1.926   4.111  0.3327 -0.6034  1.8066
19343TIP3   OH279519   4.126   6.410  17.267 -0.5934  0.5991 -0.1192
19343TIP3    H179520   4.122   6.501  17.294 -2.2003  0.8101 -0.9390
19343TIP3    H279521   4.050   6.398  17.210 -0.3584 -1.2148 -0.1329
19344TIP3   OH279522   3.654   6.550   3.818 -0.8404  0.5973 -0.3919
19344TIP3    H179523   3.614   6.494   3.751 -0.5642 -0.3058  0.1701
19344TIP3    H279524   3.638   6.639   3.787  0.9570  0.2288 -2.6765
19345TIP3   OH279525   1.673   0.652   3.113  0.8289  0.0306  0.1480
19345TIP3    H179526   1.739   0.714   3.084  1.1855  0.2330  1.3697
19345TIP3    H279527   1.595   0.675   3.061  1.3209  0.6430 -0.3420
19346TIP3   OH279528   1.532   0.404  14.816 -0.3378  0.7349  0.4511
19346TIP3    H179529   1.569   0.451  14.891  1.2487  0.4180 -0.1075
19346TIP3    H279530   1.597   0.413  14.747 -1.0829 -0.2776 -0.4213
19347TIP3   OH279531   4.852   4.404   4.260  0.0517 -0.3907 -0.4268
19347TIP3    H179532   4.764   4.390   4.226  0.7901 -0.4778 -2.3952
19347TIP3    H279533   4.857   4.347   4.338 -2.3303  1.3197  1.0981
19348TIP3   OH279534   2.173   0.775   3.695  0.0306 -0.3194  0.0622
19348TIP3    H179535   2.199   0.745   3.782 -0.0141  0.9179  0.5165
19348TIP3    H279536   2.082   0.801   3.705  0.8749  2.8532  0.5077
19349TIP3   OH279537   1.439   1.447   5.281 -0.1963 -0.1420  0.0075
19349TIP3    H179538   1.383   1.377   5.249 -1.5719  0.2020  1.5008
19349TIP3    H279539   1.391   1.527   5.260  1.4902  0.4089 -1.9365
19350TIP3   OH279540   2.396   1.745   3.707 -0.2789  0.2803  0.2368
19350TIP3    H179541   2.397   1.809   3.636 -0.3351  0.7994  0.7020
19350TIP3    H279542   2.366   1.794   3.784 -2.3449 -0.7567  0.1687
19351TIP3   OH279543   5.975   4.195   3.754 -0.5887  0.4723  0.1138
19351TIP3    H179544   6.062   4.210   3.790 -0.8267 -0.0722  0.9408
19351TIP3    H279545   5.991   4.150   3.671 -0.0628  0.9839 -0.0684
19352TIP3   OH279546   1.743   3.755  15.397  0.0861  0.4988  0.6550
19352TIP3    H179547   1.742   3.660  15.406 -0.8691  0.3153 -1.0283
19352TIP3    H279548   1.807   3.785  15.462  2.9021 -1.5344 -0.9847
19353TIP3   OH279549   6.139   6.650  14.653 -0.1492 -0.3603 -0.5860
19353TIP3    H179550   6.204   6.712  14.620 -0.1389  0.3673  0.7236
19353TIP3    H279551   6.063   6.705  14.675 -0.2207 -0.8283  0.3820
19354TIP3   OH279552   1.216   1.002   5.027 -0.6159 -0.0293  0.0971
19354TIP3    H179553   1.229   0.974   4.936  0.0527  0.5288  0.0073
19354TIP3    H279554   1.127   0.975   5.048 -0.6211 -0.5758 -0.5746
19355TIP3   OH279555   5.504   1.213  14.282 -0.1904  0.1634 -0.1626
19355TIP3    H179556   5.495   1.119  14.297 -0.5601  0.2667  0.2809
19355TIP3    H279557   5.581   1.221  14.225  1.0625 -0.2504  1.4140
19356TIP3   OH279558   4.953   3.952  15.473 -0.4955 -0.0980 -0.5268
19356TIP3    H179559   4.904   3.981  15.397 -0.7694  1.3327  0.1656
19356TIP3    H279560   4.945   3.857  15.472  0.1173 -0.1664 -2.6731
19357TIP3   OH279561   4.589   0.027  15.689  0.0279 -0.1286  0.1574
19357TIP3    H179562   4.496   0.016  15.670  0.1234 -0.5857 -0.0703
19357TIP3    H279563   4.628  -0.058  15.665  0.3371 -0.3134  1.2909
19358TIP3   OH279564   4.320   2.087   4.733 -0.4692  0.5893 -0.2239
19358TIP3    H179565   4.236   2.042   4.739 -0.8384  1.2901  0.0360
19358TIP3    H279566   4.338   2.116   4.823 -0.0063  0.5503 -0.3009
19359TIP3   OH279567   1.301   2.819   3.560  0.1770  0.5351  0.3260
19359TIP3    H179568   1.378   2.820   3.503 -2.6946 -0.3664 -4.0571
19359TIP3    H279569   1.269   2.909   3.557 -0.7426  0.1947 -0.7721
19360TIP3   OH279570   3.165   2.520  13.078 -0.2959  0.1587 -0.4945
19360TIP3    H179571   3.190   2.462  13.150 -1.1675 -0.6813 -0.8457
19360TIP3    H279572   3.236   2.513  13.015  1.3297  2.2247  0.9878
19361TIP3   OH279573   3.481   6.548  15.158 -0.2998  0.3505 -0.5149
19361TIP3    H179574   3.497   6.470  15.212 -1.9832 -0.0435 -0.5287
19361TIP3    H279575   3.552   6.548  15.094  1.3264  0.4064  1.1966
19362TIP3   OH279576   5.896   0.831  10.942  0.3044 -0.4638 -0.2731
19362TIP3    H179577   5.957   0.780  10.995  0.0944 -2.2421 -1.6617
19362TIP3    H279578   5.922   0.814  10.852  0.4897  2.2785 -0.8319
19363TIP3   OH279579   4.808   5.435  16.050  1.5101 -0.4736  0.3732
19363TIP3    H179580   4.745   5.490  16.097  0.5636 -1.2009  0.0006
19363TIP3    H279581   4.894   5.463  16.082  1.2155  2.4314 -1.0458
19364TIP3   OH279582   6.290   0.869   1.548  0.1413 -0.2317 -0.2369
19364TIP3    H179583   6.334   0.911   1.621  2.8852 -0.0683 -1.8294
19364TIP3    H279584   6.196   0.879   1.566  0.7117  2.4054  1.7327
19365TIP3   OH279585   1.003   1.234  11.476 -0.1231  0.1661  0.7236
19365TIP3    H179586   0.968   1.322  11.491 -1.7546 -0.2375 -0.4431
19365TIP3    H279587   0.994   1.189  11.559 -4.0738 -0.4320  0.1396
19366TIP3   OH279588   4.857   0.867   6.150 -0.0122  0.1852 -0.0241
19366TIP3    H179589   4.952   0.866   6.158 -0.0020 -1.6603 -0.0779
19366TIP3    H279590   4.826   0.803   6.215 -0.9373 -2.2682 -2.6789
19367TIP3   OH279591   6.612   4.722   1.505 -0.0141 -0.1113  0.1550
19367TIP3    H179592   6.660   4.643   1.480 -1.7751 -1.3218  0.3683
19367TIP3    H279593   6.608   4.775   1.425  3.0119  0.8479  0.5279
19368TIP3   OH279594   2.847   0.554  13.576 -0.0141  0.2173  0.3021
19368TIP3    H179595   2.896   0.602  13.509 -1.0979  2.4023  0.9876
19368TIP3    H279596   2.906   0.548  13.650  0.0059  0.8427  0.3398
19369TIP3   OH279597   2.841   6.533   3.993 -0.0721  0.1766 -0.1533
19369TIP3    H179598   2.915   6.481   4.024 -0.0292  0.2866 -0.0721
19369TIP3    H279599   2.767   6.505   4.047  0.0813  0.6254  0.2866
19370TIP3   OH279600   5.809   4.129   0.315 -0.5696  0.4409  0.2311
19370TIP3    H179601   5.869   4.149   0.243  0.0440 -1.2522  0.2412
19370TIP3    H279602   5.867   4.109   0.389 -1.1864  0.8709  0.8421
19371TIP3   OH279603   0.460   5.060   3.354  0.5757  0.4555 -0.6025
19371TIP3    H179604   0.552   5.034   3.360  0.4331 -0.1802 -1.0087
19371TIP3    H279605   0.462   5.156   3.357  1.4541  0.5622 -2.7903
19372TIP3   OH279606   5.196   1.054  11.978 -0.1599 -0.4815 -0.2285
19372TIP3    H179607   5.217   0.965  12.006  1.2047 -0.4145 -0.9469
19372TIP3    H279608   5.243   1.065  11.895 -2.0786  0.1670 -1.2849
19373TIP3   OH279609   5.576   3.008  15.056  0.3074 -0.9945  0.7639
19373TIP3    H179610   5.669   3.000  15.036 -0.0255 -2.0980 -0.5163
19373TIP3    H279611   5.549   2.920  15.082 -0.4125 -0.7303  0.9317
19374TIP3   OH279612   5.329   0.015   1.278  0.0134  0.0434 -0.2590
19374TIP3    H179613   5.396   0.036   1.213  0.8703  1.1820  0.9585
19374TIP3    H279614   5.371  -0.046   1.338  0.1275  1.0809  0.7463
19375TIP3   OH279615   4.240   4.124  14.921 -0.2651  0.6546 -0.5656
19375TIP3    H179616   4.228   4.217  14.939 -0.4829  0.8375 -1.5611
19375TIP3    H279617   4.174   4.080  14.974 -0.3637  1.0892 -0.3220
19376TIP3   OH279618   5.168   2.069   0.821 -0.6464 -0.1590 -0.0949
19376TIP3    H179619   5.096   2.117   0.779 -1.3673 -0.2952  0.9424
19376TIP3    H279620   5.180   2.114   0.905  0.8785  0.2143 -0.4753
19377TIP3   OH279621   4.041   0.150  17.039 -0.5244  0.5106  0.0824
19377TIP3    H179622   4.059   0.240  17.012 -1.0945  0.3624 -0.8378
19377TIP3    H279623   4.011   0.157  17.129  1.9931  0.9756  0.9670
19378TIP3   OH279624   3.366   2.303  17.434  0.0282  0.4770  0.4726
19378TIP3    H179625   3.370   2.269  17.523  1.1379 -1.3766 -0.2164
19378TIP3    H279626   3.287   2.265  17.397  0.1672  0.3231  0.3309
19379TIP3   OH279627   2.035   5.581   6.553  0.5900 -0.1878 -0.0630
19379TIP3    H179628   1.977   5.513   6.587 -0.1192  0.8586  0.9124
19379TIP3    H279629   2.002   5.663   6.592  1.0740  0.7973 -1.6198
19380TIP3   OH279630   6.498   4.366  12.001 -0.4906  0.2733 -0.1606
19380TIP3    H179631   6.542   4.425  11.940 -1.2507  1.1460  0.1293
19380TIP3    H279632   6.531   4.391  12.087  0.0082 -0.4559 -0.1325
19381TIP3   OH279633   2.381   3.822  11.606  0.6719 -0.1494 -0.5976
19381TIP3    H179634   2.400   3.757  11.674 -0.5625 -1.0543 -1.0843
19381TIP3    H279635   2.320   3.883  11.647 -1.0300 -1.3716 -1.1958
19382TIP3   OH279636   2.376   5.723   4.067  0.0180  0.3941 -0.2540
19382TIP3    H179637   2.408   5.664   4.135  1.2741  1.5078  0.1501
19382TIP3    H279638   2.293   5.683   4.038  0.8463 -1.5919 -0.0582
19383TIP3   OH279639   5.914   5.605  17.377 -0.2195 -0.4277 -0.7686
19383TIP3    H179640   5.836   5.635  17.329  1.0154  0.7419 -2.1594
19383TIP3    H279641   5.979   5.589  17.309  0.8706 -1.0823  0.3879
19384TIP3   OH279642   0.410   6.118   1.862  0.5190 -0.4820 -0.2930
19384TIP3    H179643   0.418   6.035   1.909 -1.9771 -0.4591  0.2830
19384TIP3    H279644   0.376   6.180   1.926 -0.1730  0.3062 -1.3824
19385TIP3   OH279645   5.510   0.610  15.088  0.2801  0.3137 -0.4474
19385TIP3    H179646   5.449   0.601  15.162 -0.5099 -0.4311 -1.1688
19385TIP3    H279647   5.521   0.521  15.056  1.1603  0.5457 -0.8190
19386TIP3   OH279648   6.454   3.172   5.058  0.2406  0.2377 -0.0628
19386TIP3    H179649   6.411   3.146   5.140 -1.5125  1.6400 -0.4810
19386TIP3    H279650   6.540   3.129   5.062 -0.4624 -1.1597  1.6821
19387TIP3   OH279651   5.135   2.465   2.764  0.3655 -0.1396 -0.3086
19387TIP3    H179652   5.047   2.504   2.763  0.9475  1.3108  0.7775
19387TIP3    H279653   5.140   2.422   2.849  0.6252 -0.4290 -0.4699
19388TIP3   OH279654   6.244   6.123  15.511  0.4022 -0.5383  0.3724
19388TIP3    H179655   6.330   6.126  15.470  0.4231 -0.1946  0.4367
19388TIP3    H279656   6.182   6.127  15.438  0.3445 -4.8603 -0.0779
19389TIP3   OH279657   2.790   2.473   2.553 -0.1320 -0.0389 -0.4905
19389TIP3    H179658   2.875   2.509   2.528  0.1029  1.0368  1.5747
19389TIP3    H279659   2.804   2.379   2.558  0.4737 -0.0347 -1.7472
19390TIP3   OH279660   6.275   4.608   6.533 -1.1208 -0.0350 -0.9600
19390TIP3    H179661   6.275   4.516   6.506 -1.2808 -0.4585  0.3990
19390TIP3    H279662   6.205   4.613   6.599  0.7456  0.3713  1.0953
19391TIP3   OH279663   0.060   0.946  15.292  0.1106 -0.5646 -0.2817
19391TIP3    H179664   0.144   0.965  15.333 -0.6041  1.3267  0.3869
19391TIP3    H279665   0.009   1.026  15.302 -3.1430 -2.6979  2.6024
19392TIP3   OH279666   2.220   5.413   5.865 -0.6452 -0.2358  0.0751
19392TIP3    H179667   2.182   5.381   5.783 -0.9572 -0.7610  0.4124
19392TIP3    H279668   2.313   5.393   5.859 -0.6417 -0.1374 -0.2085
19393TIP3   OH279669   0.404   1.130  15.573  0.2912  0.3923  0.4298
19393TIP3    H179670   0.484   1.132  15.625 -1.0954 -2.6583  3.0576
19393TIP3    H279671   0.335   1.155  15.634 -1.0452  0.2263 -0.9557
19394TIP3   OH279672   2.254   2.180  12.284 -0.1530  0.7199 -0.2435
19394TIP3    H179673   2.343   2.212  12.271  0.2531 -0.7417 -1.2570
19394TIP3    H279674   2.199   2.242  12.235  0.2231  1.8981  0.7796
19395TIP3   OH279675   1.651   2.410  13.089  0.2886 -0.5032 -0.0246
19395TIP3    H179676   1.581   2.352  13.119  0.5713 -0.2218  1.2521
19395TIP3    H279677   1.719   2.351  13.056  0.5228 -0.9324  1.1476
19396TIP3   OH279678   5.048   6.081   2.185  0.1200  0.1545 -0.3071
19396TIP3    H179679   5.135   6.046   2.205  0.5199  0.7344 -0.9601
19396TIP3    H279680   4.987   6.018   2.223  0.8172  0.4261  1.3611
19397TIP3   OH279681   1.186   4.784   3.089  0.6683  0.1225  0.1303
19397TIP3    H179682   1.184   4.880   3.091 -1.4149  0.1117  1.3208
19397TIP3    H279683   1.208   4.763   2.998 -1.4617  1.7869 -0.8757
19398TIP3   OH279684   1.960   0.621  11.679 -0.6999  0.1867  0.3787
19398TIP3    H179685   1.999   0.706  11.656  0.5393 -0.1719  1.0786
19398TIP3    H279686   1.884   0.614  11.622 -0.4092  1.4477 -0.2062
19399TIP3   OH279687   5.392   0.595   4.740  0.0605 -0.0738 -0.2820
19399TIP3    H179688   5.431   0.507   4.741  0.8468  0.2690  0.6253
19399TIP3    H279689   5.462   0.653   4.769 -0.1093  1.0277 -1.9735
19400TIP3   OH279690   1.134   3.973   5.830  0.0799 -0.0850  0.1433
19400TIP3    H179691   1.120   4.004   5.919 -0.4919  1.4914 -0.4631
19400TIP3    H279692   1.150   3.879   5.839 -1.0644 -0.1502  1.7896
19401TIP3   OH279693   5.977   1.977  14.073  0.1984  0.2708 -0.1128
19401TIP3    H179694   6.017   2.033  14.006  1.7684  0.1239  0.6478
19401TIP3    H279695   5.985   2.028  14.154  0.2487 -0.4215  0.3202
19402TIP3   OH279696   0.042   5.937  17.317 -0.4630  0.3023  0.1323
19402TIP3    H179697  -0.015   5.963  17.390 -0.7115  0.9186 -0.2755
19402TIP3    H279698   0.018   5.845  17.300 -2.4367  0.9770 -1.0129
19403TIP3   OH279699   1.364   3.626   1.717  0.5244 -0.0302  0.2427
19403TIP3    H179700   1.294   3.656   1.658  0.9381 -0.2432 -0.3694
19403TIP3    H279701   1.384   3.537   1.686  1.6190  0.3269 -0.1169
19404TIP3   OH279702   0.264   6.692   1.734 -0.1921 -0.0876  0.4645
19404TIP3    H179703   0.238   6.747   1.660  1.2378 -0.3463 -0.2673
19404TIP3    H279704   0.209   6.614   1.726 -0.7903  0.3426  0.3028
19405TIP3   OH279705   1.325   6.614  12.360 -0.1942  0.1664 -0.1426
19405TIP3    H179706   1.389   6.550  12.390 -1.5366 -1.4402 -0.5170
19405TIP3    H279707   1.375   6.674  12.305  1.4092  0.4125  1.4921
19406TIP3   OH279708   2.205   2.209   4.616  0.4574  0.2482  0.0493
19406TIP3    H179709   2.166   2.211   4.529  1.3131  1.1539 -0.3329
19406TIP3    H279710   2.159   2.278   4.664  1.1854  0.9348 -0.2291
19407TIP3   OH279711   6.475   3.376   3.982  0.0953  0.0076 -0.2458
19407TIP3    H179712   6.384   3.407   3.978  0.1077 -0.0815 -1.4154
19407TIP3    H279713   6.469   3.282   3.967  0.4385  0.1235 -1.1999
19408TIP3   OH279714   0.573   4.461   2.927  0.2214  0.0847  0.0542
19408TIP3    H179715   0.484   4.478   2.960  1.1179  1.1123  2.1283
19408TIP3    H279716   0.621   4.430   3.003  1.6670 -0.5069 -1.0560
19409TIP3   OH279717   3.613   4.489   5.236 -0.0381  0.0801  0.2626
19409TIP3    H179718   3.705   4.498   5.212 -0.2678  0.3157 -0.5812
19409TIP3    H279719   3.566   4.525   5.161 -0.8053  0.6505  1.0006
19410TIP3   OH279720   0.171   3.427  12.712 -0.6032  0.2908  0.2630
19410TIP3    H179721   0.251   3.472  12.739 -0.8556  0.5945  0.5102
19410TIP3    H279722   0.202   3.349  12.666 -0.1607  0.7505 -0.2293
19411TIP3   OH279723   0.780   5.134  15.886  0.4164 -0.3339 -0.0752
19411TIP3    H179724   0.693   5.160  15.916  0.9746  0.6178  0.8197
19411TIP3    H279725   0.764   5.074  15.813 -0.9799 -0.4479  0.2956
19412TIP3   OH279726   1.771   5.554  13.074  0.2901  0.5737 -0.0763
19412TIP3    H179727   1.801   5.511  12.994 -2.1040 -0.0405 -0.7072
19412TIP3    H279728   1.777   5.647  13.054 -0.2247  0.4304 -0.9593
19413TIP3   OH279729   5.589   0.241   0.830  0.1741  0.6221  0.1914
19413TIP3    H179730   5.535   0.284   0.763  0.9531  3.1146  1.0288
19413TIP3    H279731   5.645   0.311   0.864  0.6281 -0.7990  2.6481
19414TIP3   OH279732   1.480   2.563  13.856 -0.4171 -0.8012  0.0933
19414TIP3    H179733   1.546   2.495  13.842 -1.4039 -1.1220 -4.1019
19414TIP3    H279734   1.527   2.632  13.902  2.0840 -2.0857 -0.3497
19415TIP3   OH279735   4.739   3.683  14.260  0.8348  0.2896 -0.6137
19415TIP3    H179736   4.679   3.715  14.327 -0.4989  0.8939 -2.0278
19415TIP3    H279737   4.820   3.666  14.306 -0.4071 -0.5316  1.3820
19416TIP3   OH279738   3.981   3.680  12.908  0.1128  0.0651  0.3648
19416TIP3    H179739   4.001   3.597  12.953  0.2699 -0.4025 -0.5499
19416TIP3    H279740   4.067   3.720  12.893  0.1209 -0.1889 -0.2788
19417TIP3   OH279741   6.628   2.710   3.808 -0.4667  0.5195 -0.4067
19417TIP3    H179742   6.650   2.663   3.728 -1.4209 -0.3719 -0.1628
19417TIP3    H279743   6.702   2.769   3.822  1.2318 -1.5381 -0.2261
19418TIP3   OH279744   0.769   6.527  14.810  0.1926 -0.0160 -0.3862
19418TIP3    H179745   0.811   6.587  14.747  1.1838 -0.4514 -0.1590
19418TIP3    H279746   0.720   6.465  14.755 -0.3280  0.6097 -0.6470
19419TIP3   OH279747   0.393   5.668   3.206 -0.5415 -0.2796  1.0104
19419TIP3    H179748   0.308   5.667   3.250 -1.1994  0.4762 -0.1820
19419TIP3    H279749   0.403   5.758   3.175  1.5929  0.1448  2.7637
19420TIP3   OH279750   0.759   1.631  14.476  0.1765  0.0051 -0.4998
19420TIP3    H179751   0.693   1.562  14.469  0.1131  0.1641 -1.8504
19420TIP3    H279752   0.840   1.584  14.495  0.0272 -0.4021 -0.8297
19421TIP3   OH279753   1.746   3.705   0.897  0.0138 -0.1674  0.0141
19421TIP3    H179754   1.813   3.772   0.882  0.5357 -0.6491  0.2017
19421TIP3    H279755   1.775   3.630   0.846 -0.2449 -0.4716  0.3133
19422TIP3   OH279756   5.192   3.651  13.395 -0.1835  0.1795  0.4387
19422TIP3    H179757   5.264   3.613  13.345 -0.6735  1.4379 -1.3308
19422TIP3    H279758   5.187   3.598  13.475  0.3054 -2.2890 -1.0649
19423TIP3   OH279759   3.390   1.485  16.151 -0.5124 -0.0456 -0.2866
19423TIP3    H179760   3.306   1.517  16.119 -0.9379 -0.8870 -0.0337
19423TIP3    H279761   3.451   1.504  16.079 -0.6236  1.7479  0.0296
19424TIP3   OH279762   5.801   6.297  13.967 -0.1068 -0.4490 -0.0126
19424TIP3    H179763   5.757   6.382  13.974  0.4376  0.1274 -2.6731
19424TIP3    H279764   5.781   6.253  14.050 -2.0310  1.4854  0.6358
19425TIP3   OH279765   4.018   0.123  16.565 -0.3038  0.3335 -0.7210
19425TIP3    H179766   3.999   0.197  16.623 -0.0714 -0.7970  0.8607
19425TIP3    H279767   3.966   0.141  16.486 -0.9206  1.7422 -0.0430
19426TIP3   OH279768   5.978   2.594   3.137  0.0492  0.4912  0.2822
19426TIP3    H179769   6.000   2.640   3.056  0.9772 -1.2947 -0.5374
19426TIP3    H279770   5.915   2.528   3.110  2.0640 -1.6332  0.5169
19427TIP3   OH279771   2.543   1.674  13.785  0.1636 -0.3807  0.3987
19427TIP3    H179772   2.505   1.662  13.698 -0.6031 -3.6665  1.0394
19427TIP3    H279773   2.629   1.631  13.779 -0.3017 -1.5248  1.4447
19428TIP3   OH279774   5.047   1.432  15.385 -0.0995 -0.0069 -0.4983
19428TIP3    H179775   5.136   1.442  15.417 -0.2593  0.6801 -0.2354
19428TIP3    H279776   5.028   1.339  15.392  0.1799  0.0094  0.5809
19429TIP3   OH279777   0.382   4.068   5.264 -0.2291  0.2758 -0.2665
19429TIP3    H179778   0.393   4.134   5.196 -0.5093 -1.0914 -1.7016
19429TIP3    H279779   0.471   4.037   5.282 -0.1560  0.6280 -0.0154
19430TIP3   OH279780   0.604   5.208  16.576  0.2902 -0.0206  0.0905
19430TIP3    H179781   0.628   5.259  16.498 -1.2283  2.2439  0.9812
19430TIP3    H279782   0.644   5.256  16.649  0.7519 -1.4715  0.8189
19431TIP3   OH279783   3.773   4.242  16.168  0.4604  0.0290  0.0170
19431TIP3    H179784   3.850   4.231  16.112  0.0097  2.0641 -1.0825
19431TIP3    H279785   3.787   4.327  16.211 -1.0888  0.3749 -0.1020
19432TIP3   OH279786   5.689   4.629  13.654 -0.3760 -0.0888 -0.2750
19432TIP3    H179787   5.783   4.641  13.653 -0.1990 -1.3283 -0.4172
19432TIP3    H279788   5.676   4.539  13.623 -1.6843  0.5592 -1.7899
19433TIP3   OH279789   3.555   5.588  15.790  0.0842 -0.3754  0.6080
19433TIP3    H179790   3.481   5.528  15.795 -0.7770  0.7160  1.5721
19433TIP3    H279791   3.620   5.542  15.736  0.0092 -2.7009  2.3675
19434TIP3   OH279792   1.637   3.027  13.985  0.0263  0.0607  0.6546
19434TIP3    H179793   1.695   3.014  13.910 -1.0521 -0.3280 -0.1313
19434TIP3    H279794   1.639   3.122  14.000 -1.5568  0.4980 -1.3955
19435TIP3   OH279795   1.479   5.263  14.432  0.1449 -0.6394 -0.2572
19435TIP3    H179796   1.483   5.209  14.352 -0.3328  0.7864 -1.2898
19435TIP3    H279797   1.408   5.326  14.415  0.1219 -0.2138  1.2544
19436TIP3   OH279798   3.412   1.156   6.086 -0.0087  0.0144  0.3644
19436TIP3    H179799   3.334   1.200   6.054  0.2945  0.3829  0.1115
19436TIP3    H279800   3.483   1.219   6.071  0.4606 -0.6048 -0.1427
19437TIP3   OH279801   4.781   4.936  16.734 -0.1616 -0.3346 -0.1188
19437TIP3    H179802   4.852   4.983  16.779 -0.1251 -0.1928 -0.3208
19437TIP3    H279803   4.826   4.867  16.685 -0.2320 -0.6938  0.3188
19438TIP3   OH279804   5.273   5.267  13.569  0.2296 -0.0104  0.6163
19438TIP3    H179805   5.196   5.312  13.533  0.6190  1.0101  0.9971
19438TIP3    H279806   5.249   5.251  13.661  0.2349 -0.2438  0.5758
19439TIP3   OH279807   4.781   6.195   2.768  0.3545  0.5353 -0.6389
19439TIP3    H179808   4.803   6.107   2.800  0.4311  0.8407  0.1577
19439TIP3    H279809   4.733   6.179   2.687  0.2399 -0.2522 -0.4244
19440TIP3   OH279810   5.988   4.472  12.385  0.3525 -0.4019 -0.8504
19440TIP3    H179811   5.918   4.415  12.415  0.3416  0.6486  1.2749
19440TIP3    H279812   6.025   4.427  12.309 -2.4862 -1.0625 -1.9660
19441TIP3   OH279813   3.724   1.964  11.839  0.0297 -0.0490  0.1342
19441TIP3    H179814   3.766   2.049  11.852  1.7097 -0.9369  0.8702
19441TIP3    H279815   3.652   1.964  11.901 -0.8882  1.3666 -0.8736
19442TIP3   OH279816   5.799   1.716  12.651  0.0165 -0.7301  0.6106
19442TIP3    H179817   5.774   1.625  12.633 -0.4596 -0.1215 -2.3633
19442TIP3    H279818   5.728   1.768  12.613  0.5866  0.9187  1.7014
19443TIP3   OH279819   0.705   6.380  15.282  0.3612  0.2818  0.3689
19443TIP3    H179820   0.662   6.413  15.203 -0.0512 -0.2439  0.3702
19443TIP3    H279821   0.683   6.287  15.284  0.9821  0.1370  0.7096
19444TIP3   OH279822   1.912   5.618   3.502 -0.0405 -0.2145 -0.7751
19444TIP3    H179823   1.965   5.637   3.425  0.6193 -2.1260 -0.8452
19444TIP3    H279824   1.868   5.536   3.482  1.2430 -1.5459  1.3593
19445TIP3   OH279825   2.089   5.255  14.383  0.2163 -0.1091 -0.2485
19445TIP3    H179826   2.112   5.238  14.291  0.5596 -1.3346  0.0445
19445TIP3    H279827   2.033   5.332  14.379  0.5477  0.0992 -1.4540
19446TIP3   OH279828   2.616   3.182  14.720  0.2068  0.2234 -0.0695
19446TIP3    H179829   2.684   3.147  14.662  0.0328  0.8661 -0.6690
19446TIP3    H279830   2.579   3.105  14.762 -1.4732 -0.5678 -2.7670
19447TIP3   OH279831   2.868   1.001  13.717  0.1772  0.6191 -0.0210
19447TIP3    H179832   2.806   0.933  13.743  0.6469  0.6093  1.1311
19447TIP3    H279833   2.915   0.963  13.643 -0.1166  0.0039  0.0972
19448TIP3   OH279834   2.561   3.610   6.182 -0.0458 -0.0528  0.0678
19448TIP3    H179835   2.486   3.589   6.238 -0.4092 -2.1375 -1.1051
19448TIP3    H279836   2.637   3.585   6.234 -0.2723 -0.1516  0.3584
19449TIP3   OH279837   3.262   3.398   3.808  0.3013  0.5351  0.0507
19449TIP3    H179838   3.263   3.470   3.871  0.0538  0.0431  0.6330
19449TIP3    H279839   3.350   3.398   3.769  0.2093  1.3225 -0.1610
19450TIP3   OH279840   5.953   2.538  11.367  0.2620  0.0850 -0.2487
19450TIP3    H179841   5.907   2.463  11.406 -0.3136  0.4014 -0.3053
19450TIP3    H279842   5.933   2.532  11.274 -0.2262  0.6083 -0.1796
19451TIP3   OH279843   6.063   2.934  14.046 -0.1633  0.6362  0.0924
19451TIP3    H179844   6.028   3.008  13.996 -1.5857 -0.3350 -0.3869
19451TIP3    H279845   6.048   2.957  14.137 -1.3001  0.6248 -0.0767
19452TIP3   OH279846   2.414   5.601   6.514  1.3515 -0.1538 -0.2865
19452TIP3    H179847   2.501   5.566   6.496  1.3642  0.5351 -1.7399
19452TIP3    H279848   2.356   5.525   6.508  1.7742 -0.5177  0.1164
19453TIP3   OH279849   4.351   2.221   3.729 -0.0560 -0.0390  0.0926
19453TIP3    H179850   4.342   2.305   3.684 -0.8196  1.2541  2.4709
19453TIP3    H279851   4.398   2.243   3.810 -2.4290 -1.3789  1.9484
19454TIP3   OH279852   3.586   2.264  16.637 -0.7685  0.2214 -0.3869
19454TIP3    H179853   3.598   2.180  16.593  1.9274  0.2007  0.1980
19454TIP3    H279854   3.660   2.317  16.607 -1.4004  1.7646  0.6491
19455TIP3   OH279855   2.693   3.919   1.137  0.0030 -0.1113 -0.1107
19455TIP3    H179856   2.613   3.972   1.138  0.1061  0.1398 -1.9342
19455TIP3    H279857   2.764   3.982   1.142  0.1194 -0.2878  0.6732
19456TIP3   OH279858   4.121   2.708  16.688  0.0872  0.0513  0.0765
19456TIP3    H179859   4.089   2.633  16.638  2.9949 -0.7271 -0.8483
19456TIP3    H279860   4.128   2.779  16.625  0.2450  0.1676  0.2233
19457TIP3   OH279861   4.502   0.007  10.889  0.0517  0.3231  1.2763
19457TIP3    H179862   4.437   0.074  10.908 -0.6410 -0.1517  0.6348
19457TIP3    H279863   4.578   0.055  10.858 -0.8140  0.7618 -0.2347
19458TIP3   OH279864   6.332   2.869  14.885 -0.3599 -0.5245  0.0159
19458TIP3    H179865   6.263   2.816  14.845 -1.0291  0.0890  0.3311
19458TIP3    H279866   6.413   2.823  14.864 -0.8262 -1.0273 -0.7325
19459TIP3   OH279867   4.212   5.902  11.319 -0.0199 -0.2752  0.8447
19459TIP3    H179868   4.190   5.925  11.409 -2.0108 -0.4506  0.4435
19459TIP3    H279869   4.180   5.812  11.309  0.8121 -0.5040  0.1578
19460TIP3   OH279870   0.123   2.586   3.004 -0.8057 -0.9648 -0.1223
19460TIP3    H179871   0.192   2.636   2.962 -1.3371 -0.0951  0.0100
19460TIP3    H279872   0.050   2.647   3.011 -0.5533 -0.8414  2.6051
19461TIP3   OH279873   5.982   2.941   0.897  0.4187  0.3645 -0.5030
19461TIP3    H179874   5.981   3.006   0.826  0.9781 -0.1548 -0.9960
19461TIP3    H279875   5.925   2.871   0.865 -1.2023  1.1484  0.5622
19462TIP3   OH279876   0.302   5.954   2.382 -0.0096 -0.3862  0.7016
19462TIP3    H179877   0.299   6.035   2.331 -0.1410 -1.7136 -1.4732
19462TIP3    H279878   0.312   5.984   2.473  3.1620  2.0471 -0.2617
19463TIP3   OH279879   6.026   0.852   4.050  0.3789 -0.4451 -0.3561
19463TIP3    H179880   5.979   0.784   4.001  0.8666 -2.2697  1.5663
19463TIP3    H279881   6.113   0.816   4.063  0.6615  0.5530  0.7119
19464TIP3   OH279882   2.821   3.085  14.550 -0.0314  0.3678 -0.7674
19464TIP3    H179883   2.898   3.141  14.551 -0.9203  1.6593 -1.7373
19464TIP3    H279884   2.786   3.093  14.461  0.8895 -3.3001 -1.6480
19465TIP3   OH279885   2.412   0.368   4.162  0.5235  0.6176  0.1280
19465TIP3    H179886   2.327   0.372   4.205  1.3494  0.1927  1.8993
19465TIP3    H279887   2.392   0.360   4.069 -1.3865 -0.7031  0.6042
19466TIP3   OH279888   4.862   0.840  17.352  0.0260 -0.1051  0.5023
19466TIP3    H179889   4.924   0.767  17.349 -0.0163 -0.1375  0.4117
19466TIP3    H279890   4.825   0.844  17.264  0.7208  0.6237  0.2250
19467TIP3   OH279891   5.980   3.791  10.793 -0.2421 -0.3907  0.6803
19467TIP3    H179892   5.892   3.790  10.757 -0.2244 -1.1887  0.6430
19467TIP3    H279893   6.033   3.836  10.727 -0.4908 -0.5398  0.3782
19468TIP3   OH279894   5.844   4.592   1.475  0.6914 -0.0114  0.2721
19468TIP3    H179895   5.839   4.497   1.465  0.6790  0.0998 -1.0758
19468TIP3    H279896   5.934   4.614   1.452  1.0026  0.2214  1.6267
19469TIP3   OH279897   3.872   6.146   4.169  0.4403 -0.4807  0.5396
19469TIP3    H179898   3.958   6.188   4.180  0.6933 -1.0422  0.7443
19469TIP3    H279899   3.835   6.188   4.091  1.5455 -1.2768 -0.4736
19470TIP3   OH279900   0.308   6.562  13.926 -0.5967 -0.4339  0.1422
19470TIP3    H179901   0.339   6.557  14.017 -1.1750 -0.1455  0.3615
19470TIP3    H279902   0.250   6.486  13.916 -0.3654 -0.5837 -0.0482
19471TIP3   OH279903   4.894   1.933  13.181  0.4866 -0.3275 -0.0253
19471TIP3    H179904   4.853   2.005  13.229  0.8243  0.4435 -0.8800
19471TIP3    H279905   4.959   1.898  13.242 -0.3897 -0.6046  0.7843
19472TIP3   OH279906   4.129   4.133   5.245 -0.2641  0.0588 -0.1040
19472TIP3    H179907   4.138   4.088   5.161 -0.6179  0.6209 -0.4552
19472TIP3    H279908   4.218   4.144   5.277 -0.1847 -1.2398  0.1938
19473TIP3   OH279909   4.877   2.135   5.849  0.2618  0.5834 -0.0009
19473TIP3    H179910   4.822   2.061   5.875  1.3751  0.0092  0.8137
19473TIP3    H279911   4.922   2.105   5.769  0.5552  0.4511  0.2115
19474TIP3   OH279912   2.304   0.360  13.711 -0.5154 -0.3899  0.0201
19474TIP3    H179913   2.262   0.299  13.773 -2.0332 -0.2636 -0.8330
19474TIP3    H279914   2.379   0.311  13.677  0.1023 -0.6157  1.6318
19475TIP3   OH279915   6.565   2.812   4.140  0.0629 -0.4140 -0.2199
19475TIP3    H179916   6.537   2.757   4.066  0.2616 -1.8699  0.7486
19475TIP3    H279917   6.656   2.832   4.120  0.0049 -0.4736 -0.5647
19476TIP3   OH279918   4.063   6.369  13.606 -0.0758 -0.2429  0.6185
19476TIP3    H179919   4.137   6.324  13.566  0.2911 -1.6223  2.7019
19476TIP3    H279920   3.986   6.330  13.564  0.3131  0.1759 -0.5258
19477TIP3   OH279921   2.583   1.918   0.041  0.3161 -0.2444  0.1978
19477TIP3    H179922   2.533   1.879   0.113 -0.5081  1.1826  0.4472
19477TIP3    H279923   2.574   1.857  -0.031 -2.3333  0.2038  0.0394
19478TIP3   OH279924   1.369   0.817   2.673  0.1058  0.2736 -0.3701
19478TIP3    H179925   1.365   0.862   2.588 -1.2208  0.0203 -0.4702
19478TIP3    H279926   1.337   0.728   2.654 -2.1992  0.7910  0.7286
19479TIP3   OH279927   1.581   4.620   6.147 -0.1058 -0.1504 -0.1555
19479TIP3    H179928   1.660   4.663   6.113 -0.1749  0.4860  0.4500
19479TIP3    H279929   1.525   4.608   6.071  0.7358 -0.9899 -0.6659
19480TIP3   OH279930   1.359   4.451  13.332 -0.5405  0.0797 -0.3526
19480TIP3    H179931   1.398   4.508  13.265 -1.9824  0.2446 -1.0794
19480TIP3    H279932   1.268   4.441  13.305 -1.0897 -0.0660  1.4581
19481TIP3   OH279933   1.331   2.494   3.400  0.1680  0.0879  0.4575
19481TIP3    H179934   1.276   2.548   3.342  0.1296 -0.6866 -0.2581
19481TIP3    H279935   1.415   2.488   3.355 -0.8946 -3.4763 -1.4737
19482TIP3   OH279936   4.533   5.579   2.782  0.2663 -0.4206 -0.1723
19482TIP3    H179937   4.542   5.533   2.866 -1.0946  0.9373  0.7598
19482TIP3    H279938   4.556   5.513   2.717 -0.1331 -1.9777  1.1820
19483TIP3   OH279939   6.447   2.603  15.651  0.0099 -0.2458 -0.6633
19483TIP3    H179940   6.426   2.563  15.736 -0.3913  1.2221 -0.0458
19483TIP3    H279941   6.543   2.609  15.651  0.0126 -0.2783 -0.3219
19484TIP3   OH279942   6.034   4.865   5.232 -0.6410  0.2387 -0.0800
19484TIP3    H179943   6.128   4.868   5.210 -0.2917 -0.7492  1.1701
19484TIP3    H279944   6.020   4.944   5.284 -0.3274 -0.0155  0.3893
19485TIP3   OH279945   0.018   5.540   2.900 -0.2046  0.5900 -0.5213
19485TIP3    H179946  -0.006   5.580   2.816  0.5791  2.0850 -0.0648
19485TIP3    H279947   0.109   5.566   2.914 -0.4182  0.6340  0.9247
19486TIP3   OH279948   4.094   5.960   6.577  0.5323 -0.2800  0.0040
19486TIP3    H179949   4.102   6.054   6.559 -0.4075 -0.0786  0.5943
19486TIP3    H279950   4.000   5.945   6.589  0.7874 -1.0239  1.3435
19487TIP3   OH279951   0.808   6.124  15.887  0.4198 -0.6229 -0.4586
19487TIP3    H179952   0.744   6.090  15.949 -1.8436  1.3359 -1.5317
19487TIP3    H279953   0.846   6.200  15.931  2.9224 -2.3433  0.5812
19488TIP3   OH279954   0.467   1.288   2.611  0.7088  0.0660  0.1115
19488TIP3    H179955   0.494   1.352   2.676  0.8440  0.6643 -0.5259
19488TIP3    H279956   0.380   1.259   2.641 -0.0855  1.7431 -0.4334
19489TIP3   OH279957   2.657   1.933  14.275 -0.3266 -0.6177  0.6815
19489TIP3    H179958   2.638   2.024  14.300  0.8513 -0.1404 -0.0489
19489TIP3    H279959   2.573   1.889  14.278 -0.9651  0.5679  0.8021
19490TIP3   OH279960   5.765   1.748  15.087 -0.1164 -0.1814 -0.0757
19490TIP3    H179961   5.725   1.695  15.156  0.1743  0.8358  0.9067
19490TIP3    H279962   5.726   1.834  15.097  1.3501  0.5009  0.0916
19491TIP3   OH279963   4.938   6.648  15.213  0.2789 -0.0692 -0.0790
19491TIP3    H179964   4.877   6.646  15.287  0.3606 -1.8198 -0.0133
19491TIP3    H279965   5.012   6.700  15.243 -0.8125  1.3967  0.1304
19492TIP3   OH279966   1.408   6.174   1.091  0.0150  0.1715  0.3700
19492TIP3    H179967   1.419   6.079   1.094  0.9013  0.2738  0.9275
19492TIP3    H279968   1.467   6.203   1.022  1.4752  0.4965  1.6804
19493TIP3   OH279969   5.152   2.913   2.685  0.6924  0.5080  0.1961
19493TIP3    H179970   5.245   2.894   2.673  0.4163 -1.0886  0.3365
19493TIP3    H279971   5.136   2.894   2.778 -0.0158 -0.4818 -0.1076
19494TIP3   OH279972   6.703   3.107  11.608 -0.3437  0.6644  0.4002
19494TIP3    H179973   6.644   3.038  11.581  0.8798  0.1289 -1.0753
19494TIP3    H279974   6.720   3.090  11.700 -0.8939 -0.3548  0.3261
19495TIP3   OH279975   0.063   0.590   3.607  0.5511  0.1236  0.0430
19495TIP3    H179976  -0.016   0.536   3.608  0.7179 -0.1927 -1.5903
19495TIP3    H279977   0.032   0.678   3.630 -0.2663 -0.0266 -0.4248
19496TIP3   OH279978   5.975   3.909   0.160  0.3998 -0.5246 -0.4809
19496TIP3    H179979   6.070   3.912   0.151  0.4999  0.8126  0.6448
19496TIP3    H279980   5.942   3.960   0.087  0.6915  1.1402  0.5016
19497TIP3   OH279981   3.575   5.402   4.218 -0.4210 -0.7196  0.1345
19497TIP3    H179982   3.484   5.413   4.245 -0.2456 -0.8395  0.7794
19497TIP3    H279983   3.626   5.449   4.283 -0.0928  0.7390 -1.1148
19498TIP3   OH279984   4.582   2.040   5.701 -0.2658 -0.4904  0.7994
19498TIP3    H179985   4.580   1.973   5.633  1.5330  1.8400 -1.7834
19498TIP3    H279986   4.510   2.099   5.679 -0.0243 -0.0159  1.2550
19499TIP3   OH279987   0.376   2.681  13.310  0.2085  0.1526  0.1333
19499TIP3    H179988   0.418   2.636  13.237 -1.5520 -0.7318 -0.3744
19499TIP3    H279989   0.394   2.625  13.386  0.0918 -0.1323 -0.0477
19500TIP3   OH279990   1.365   6.035   5.643  0.0250 -0.0521 -0.4248
19500TIP3    H179991   1.307   5.974   5.598  0.4920 -0.7676 -0.0712
19500TIP3    H279992   1.359   6.011   5.735  0.4596  0.2218 -0.3203
19501TIP3   OH279993   0.304   1.177   1.301 -0.5022  0.4748  0.4334
19501TIP3    H179994   0.233   1.115   1.313 -0.9001  0.5427 -1.2686
19501TIP3    H279995   0.380   1.123   1.279 -0.1400  0.4333  1.7490
19502TIP3   OH279996   3.790   5.682  15.199  0.9893 -0.2588 -0.4362
19502TIP3    H179997   3.712   5.655  15.248  0.5216  1.3300 -0.2582
19502TIP3    H279998   3.768   5.664  15.107  0.4056  0.1905 -0.3871
19503TIP3   OH279999   0.962   0.311  14.014 -0.1711  0.1572 -0.2482
19503TIP3    H180000   0.955   0.259  14.094 -0.5851  0.9434  0.2487
19503TIP3    H280001   1.052   0.297  13.984  0.1838  0.2978  0.6916
19504TIP3   OH280002   3.614   2.966  15.850 -0.5926  0.4070  0.0966
19504TIP3    H180003   3.540   2.979  15.909  0.2449  1.3245  0.9695
19504TIP3    H280004   3.581   2.905  15.784 -0.9133 -2.3989  2.6495
19505TIP3   OH280005   1.713   4.983   2.037  0.2071 -0.7015  0.0110
19505TIP3    H180006   1.766   4.941   1.970 -0.1579  0.0416 -0.7691
19505TIP3    H280007   1.624   4.953   2.020 -0.1552  0.7902 -0.9275
19506TIP3   OH280008   4.712   0.059   2.617 -0.2518 -0.5615  0.0258
19506TIP3    H180009   4.724   0.074   2.523  1.0666 -0.4996  0.1936
19506TIP3    H280010   4.798   0.034   2.649 -0.6000 -0.2131  1.2985
19507TIP3   OH280011   1.982   5.197   1.538 -0.8217  0.1371 -0.6964
19507TIP3    H180012   1.919   5.148   1.485 -1.2019  0.4313 -0.5185
19507TIP3    H280013   2.012   5.267   1.481  1.3909 -1.5353 -1.7539
19508TIP3   OH280014   5.776   0.658   1.142 -0.3844 -0.1339 -0.3463
19508TIP3    H180015   5.860   0.621   1.168 -0.8296 -1.7654 -1.1130
19508TIP3    H280016   5.734   0.684   1.224  0.4650 -0.1950  0.1134
19509TIP3   OH280017   3.722   2.867   2.499 -0.1886  0.3074 -0.4116
19509TIP3    H180018   3.744   2.907   2.583 -0.9209  3.0450 -1.3860
19509TIP3    H280019   3.803   2.873   2.448 -0.1139 -0.0943 -0.3400
19510TIP3   OH280020   0.146   0.414   2.818  0.0775  0.1527  0.1022
19510TIP3    H180021   0.235   0.441   2.842 -0.0588  1.8602 -1.1371
19510TIP3    H280022   0.089   0.476   2.863 -0.3248  0.9582 -1.4491
19511TIP3   OH280023   3.757   3.061   8.202 -0.0242 -0.7070  0.3176
19511TIP3    H180024   3.680   3.011   8.232  0.1902 -0.9634  0.4443
19511TIP3    H280025   3.789   3.104   8.282  1.7643 -3.0072  0.9375
19512TIP3   OH280026   0.878   1.001   2.008  0.1502  0.5926 -0.2595
19512TIP3    H180027   0.953   0.957   1.969  1.4599  0.9127  1.7854
19512TIP3    H280028   0.865   1.079   1.953  1.9627  1.0626 -0.0767
19513TIP3   OH280029   1.505   1.520  13.080 -0.1172  0.1181 -0.1471
19513TIP3    H180030   1.481   1.508  12.988  0.3998 -2.7156 -0.0076
19513TIP3    H280031   1.423   1.505  13.128  0.0886 -0.9144 -0.0808
19514TIP3   OH280032   0.975   4.204   3.263  0.4598 -0.1433 -0.0322
19514TIP3    H180033   1.061   4.187   3.302  1.0308 -0.4141 -1.3441
19514TIP3    H280034   0.936   4.118   3.253  1.0747 -0.2646 -1.6663
19515TIP3   OH280035   3.685   5.326   2.782 -0.5548  0.3135 -0.0299
19515TIP3    H180036   3.664   5.416   2.807 -0.1172  0.0236  1.5324
19515TIP3    H280037   3.613   5.273   2.817 -1.1462  0.0978 -1.5109
19516TIP3   OH280038   0.575   0.292   4.750 -0.1772  0.0286  0.4911
19516TIP3    H180039   0.612   0.344   4.821 -0.5295 -0.4481  1.0225
19516TIP3    H280040   0.648   0.238   4.718 -0.2851 -0.5472  1.2069
19517TIP3   OH280041   4.133   6.125   1.414 -0.4660 -0.0878 -0.1700
19517TIP3    H180042   4.144   6.212   1.375  0.0401 -0.2352 -0.3585
19517TIP3    H280043   4.040   6.106   1.405 -0.4240  0.0527 -0.9477
19518TIP3   OH280044   0.986   1.127  13.500 -0.1310  0.1025 -0.4688
19518TIP3    H180045   0.934   1.207  13.501  0.2079  0.3852 -2.2428
19518TIP3    H280046   0.939   1.067  13.558 -0.5308  1.4731  0.6830
19519TIP3   OH280047   0.632   1.154  17.359  0.0019  0.3419 -0.5590
19519TIP3    H180048   0.686   1.198  17.292  1.8741  1.3583  1.4797
19519TIP3    H280049   0.695   1.125  17.425 -1.7273 -1.0187  0.5803
19520TIP3   OH280050   1.007   2.849  12.961  0.2021  0.1161  0.3500
19520TIP3    H180051   0.990   2.933  12.919  1.0390  1.0669  1.8286
19520TIP3    H280052   0.933   2.835  13.019  0.0931 -0.1400  0.1511
19521TIP3   OH280053   3.404   4.610   0.941 -0.2817  0.3893 -0.1626
19521TIP3    H180054   3.428   4.582   0.853  0.5492  0.1808  0.1273
19521TIP3    H280055   3.444   4.546   0.999  1.4072  1.9552  0.4968
19522TIP3   OH280056   4.744   5.073   1.498 -0.1094  0.0283  0.6437
19522TIP3    H180057   4.720   4.987   1.532 -1.8662  0.5211  0.7188
19522TIP3    H280058   4.769   5.057   1.407 -4.3406 -0.1255 -0.6886
19523TIP3   OH280059   2.558   2.786   6.724  0.3789 -0.1774  1.0885
19523TIP3    H180060   2.627   2.763   6.662 -0.8050  2.0642 -1.2666
19523TIP3    H280061   2.511   2.704   6.740 -0.1599 -0.6413 -2.2180
19524TIP3   OH280062   0.353   3.829   3.042 -0.0571 -0.2753 -0.4333
19524TIP3    H180063   0.279   3.858   3.095 -1.1878 -0.3488 -1.8947
19524TIP3    H280064   0.399   3.766   3.097 -2.0610 -1.4993 -0.0773
19525TIP3   OH280065   6.025   1.471   0.217  0.1347  0.0648 -0.5195
19525TIP3    H180066   6.071   1.401   0.172 -0.7138 -0.3992 -0.6887
19525TIP3    H280067   6.053   1.551   0.172  0.6747 -0.2175 -0.6918
19526TIP3   OH280068   4.307   5.249  15.581  0.3692 -0.2913 -0.5265
19526TIP3    H180069   4.248   5.321  15.602 -1.4707 -1.8315 -0.1968
19526TIP3    H280070   4.393   5.280  15.610 -0.9752  0.1565  3.5964
19527TIP3   OH280071   4.267   0.427  11.283  0.1339 -0.4933  0.4817
19527TIP3    H180072   4.274   0.495  11.349  1.6441 -0.0404 -0.0974
19527TIP3    H280073   4.188   0.449  11.234  0.1577  0.3783  0.8144
19528TIP3   OH280074   0.358   6.764  13.279 -1.0249 -0.3717  0.1686
19528TIP3    H180075   0.364   6.700  13.350 -0.6742 -0.8725 -0.3046
19528TIP3    H280076   0.266   6.760  13.250 -1.3408  0.3208  1.0243
19529TIP3   OH280077   6.525   2.992   1.480 -0.0748 -0.2997 -0.2425
19529TIP3    H180078   6.451   3.007   1.422  0.7609 -1.7892 -1.7869
19529TIP3    H280079   6.507   2.906   1.519  0.7545 -0.6181 -0.5366
19530TIP3   OH280080   5.966   0.157  15.972 -0.8407  0.0803  0.4356
19530TIP3    H180081   5.942   0.232  16.026  0.8143  1.4905 -0.6827
19530TIP3    H280082   5.884   0.110  15.959 -2.0806  2.0768  0.6233
19531TIP3   OH280083   1.313   4.748  10.743  0.1494 -0.0151  0.5072
19531TIP3    H180084   1.248   4.679  10.754  1.4728 -1.6384 -1.1874
19531TIP3    H280085   1.388   4.704  10.702  1.2770  2.3339 -0.1189
19532TIP3   OH280086   3.911   4.039   2.792 -0.6322  0.1664 -0.3059
19532TIP3    H180087   3.947   4.050   2.881 -0.4524 -1.2739 -0.1729
19532TIP3    H280088   3.817   4.027   2.806 -0.8077  1.2220 -0.4413
19533TIP3   OH280089   2.795   5.740   3.595  0.1266 -0.9330 -0.1421
19533TIP3    H180090   2.763   5.652   3.573 -0.4839 -0.8004  0.1897
19533TIP3    H280091   2.828   5.732   3.684  0.4030 -0.9086 -0.2414
19534TIP3   OH280092   2.596   5.442   3.106  0.4985  0.1820 -0.2708
19534TIP3    H180093   2.671   5.429   3.047  1.6932  1.6387  0.8705
19534TIP3    H280094   2.557   5.355   3.113  0.8207 -0.2106 -2.5234
19535TIP3   OH280095   5.902   2.535  15.834  0.4158 -0.0405 -0.6585
19535TIP3    H180096   5.815   2.513  15.869  0.4058 -0.1351 -0.7444
19535TIP3    H280097   5.886   2.562  15.744  0.2668  1.5241 -0.1994
19536TIP3   OH280098   3.892   4.781   0.278  0.7155  0.1232 -0.2284
19536TIP3    H180099   3.910   4.708   0.338 -1.2185  1.9189  2.8120
19536TIP3    H280100   3.976   4.825   0.269  1.0175 -0.0135  1.5068
19537TIP3   OH280101   3.316   1.108   6.584  0.4365  0.0352 -0.0853
19537TIP3    H180102   3.300   1.200   6.606  1.1087 -0.1705  1.4164
19537TIP3    H280103   3.378   1.078   6.651  1.3268 -1.1398 -1.3861
19538TIP3   OH280104   1.003   3.173   0.034 -0.0421 -0.1226 -0.6244
19538TIP3    H180105   0.987   3.141  -0.055 -0.7699  0.0464 -0.5621
19538TIP3    H280106   1.069   3.241   0.023  0.6936 -0.8644 -0.8933
19539TIP3   OH280107   5.434   4.669  11.060 -0.0283  0.0401  0.0900
19539TIP3    H180108   5.449   4.756  11.097  1.6010  0.2485 -0.9741
19539TIP3    H280109   5.382   4.685  10.981  0.8448  0.1418 -0.4771
19540TIP3   OH280110   4.495   5.590   1.807 -0.2541  0.5115  0.7541
19540TIP3    H180111   4.445   5.544   1.740  0.1800  1.4997 -0.2897
19540TIP3    H280112   4.549   5.522   1.849 -1.5249 -0.3406  1.0413
19541TIP3   OH280113   2.011   4.051   4.397 -0.3412  0.9217 -0.0140
19541TIP3    H180114   1.932   3.997   4.392  0.7949 -0.7250 -1.4500
19541TIP3    H280115   2.011   4.100   4.316  0.7287 -0.0465 -0.6215
19542TIP3   OH280116   2.599   0.723   3.280  0.6993 -0.1991 -0.0940
19542TIP3    H180117   2.631   0.733   3.369  3.0890  3.7399 -1.1351
19542TIP3    H280118   2.678   0.717   3.226 -0.5633  0.7716 -2.1931
19543TIP3   OH280119   5.931   2.571  17.334  0.2302  0.4777  0.8317
19543TIP3    H180120   5.948   2.493  17.387 -1.0761 -0.9102 -0.6644
19543TIP3    H280121   6.017   2.612  17.323  1.0347 -1.0502  1.2288
19544TIP3   OH280122   4.421   6.418  14.391  0.0134 -0.0489 -0.6709
19544TIP3    H180123   4.359   6.477  14.349  0.3693  0.8699  0.0814
19544TIP3    H280124   4.378   6.391  14.472  0.1812 -0.1987 -0.6312
19545TIP3   OH280125   2.295   0.085   3.047  0.2629  0.1519 -0.1827
19545TIP3    H180126   2.223   0.029   3.076 -0.0728  0.9611  0.6094
19545TIP3    H280127   2.255   0.171   3.032  0.3989 -0.2227 -3.2662
19546TIP3   OH280128   6.626   3.280  15.281  0.1428  0.1410  0.1669
19546TIP3    H180129   6.547   3.230  15.300  0.1295  0.3838  0.7998
19546TIP3    H280130   6.627   3.348  15.349  0.6714  0.3941 -0.0927
19547TIP3   OH280131   1.300   1.736   3.663  0.1773  0.4273  0.3073
19547TIP3    H180132   1.268   1.824   3.642 -1.3807 -0.6490 -2.3186
19547TIP3    H280133   1.263   1.718   3.750  0.0251  2.1139  0.6316
19548TIP3   OH280134   6.640   4.809   4.317 -0.1081  0.4156 -0.1847
19548TIP3    H180135   6.721   4.769   4.287 -0.2317  0.6506 -0.8355
19548TIP3    H280136   6.664   4.852   4.399  0.6217  1.1899 -0.7874
19549TIP3   OH280137   6.674   3.158  12.925 -0.1916  0.3769  0.1278
19549TIP3    H180138   6.638   3.182  13.011  1.0398  1.7399  0.3083
19549TIP3    H280139   6.729   3.082  12.942  0.7075  1.1358  0.7405
19550TIP3   OH280140   0.409   6.300  17.480 -0.1711  0.5262 -0.1777
19550TIP3    H180141   0.412   6.328  17.389  0.0034  3.7708  0.6875
19550TIP3    H280142   0.324   6.256  17.490  0.5746 -1.5649 -2.2256
19551TIP3   OH280143   1.177   3.999   5.490 -0.0108 -0.2956  0.3273
19551TIP3    H180144   1.239   3.929   5.470 -1.5138 -1.4180 -0.6480
19551TIP3    H280145   1.098   3.954   5.521 -0.0787  1.1271  2.4012
19552TIP3   OH280146   3.459   2.832  17.129 -0.3879  0.6258  0.2947
19552TIP3    H180147   3.480   2.820  17.221  0.4256 -0.7136 -0.0318
19552TIP3    H280148   3.444   2.743  17.096  1.4280  0.8562 -1.3069
19553TIP3   OH280149   3.015   0.235  16.501 -0.2139  0.0250 -0.0670
19553TIP3    H180150   2.942   0.293  16.477 -1.2034 -1.0243  0.3027
19553TIP3    H280151   3.006   0.223  16.595  0.0765 -0.5884 -0.1155
19554TIP3   OH280152   5.902   2.646   2.574 -0.1543  0.1401 -0.7955
19554TIP3    H180153   5.909   2.614   2.484 -0.7787  1.4987 -1.3560
19554TIP3    H280154   5.814   2.619   2.602  0.1258 -0.4826 -0.5006
19555TIP3   OH280155   1.639   2.273  16.716 -0.3634  0.0706  0.7524
19555TIP3    H180156   1.549   2.302  16.701 -0.1609  0.2115 -0.3124
19555TIP3    H280157   1.690   2.321  16.651  0.2173 -1.4143  0.0491
19556TIP3   OH280158   4.219   0.436   4.583 -0.0137 -0.1897  0.6117
19556TIP3    H180159   4.176   0.467   4.503  0.2248 -0.6502  0.3052
19556TIP3    H280160   4.247   0.347   4.563  1.2304  0.1480  0.7521
19557TIP3   OH280161   1.581   2.202   4.480 -0.2872 -0.8970 -0.5870
19557TIP3    H180162   1.499   2.247   4.458 -0.8749 -1.5550  0.2166
19557TIP3    H280163   1.647   2.249   4.430 -1.0074  0.2882 -0.4785
19558TIP3   OH280164   2.536   2.307  11.960 -0.7126  0.4228 -0.2392
19558TIP3    H180165   2.482   2.230  11.947  0.3663 -0.2487 -0.9003
19558TIP3    H280166   2.565   2.332  11.872  1.1395 -0.0611  0.1835
19559TIP3   OH280167   4.386   6.373   5.143 -0.1523 -0.1824  0.0548
19559TIP3    H180168   4.295   6.378   5.114 -0.6236 -0.0760  1.4815
19559TIP3    H280169   4.385   6.311   5.217  1.1566 -1.1628 -0.7004
19560TIP3   OH280170   0.415   3.863  12.525 -0.3154  1.0336 -0.1632
19560TIP3    H180171   0.332   3.910  12.521  0.5321  2.5084 -2.2116
19560TIP3    H280172   0.460   3.899  12.602 -0.7931  1.6043 -0.1481
19561TIP3   OH280173   3.962   3.147   4.831  0.3343  0.1405 -0.5232
19561TIP3    H180174   3.956   3.099   4.914  1.3446  0.7505 -0.0886
19561TIP3    H280175   3.894   3.108   4.777 -0.6541  0.0350  0.7407
19562TIP3   OH280176   4.490   5.653  14.729  0.2660  0.1954 -0.3080
19562TIP3    H180177   4.457   5.665  14.818  2.6564  1.2094  0.5488
19562TIP3    H280178   4.412   5.650  14.674 -1.3562 -1.8309  1.9231
19563TIP3   OH280179   2.374   0.253   0.297  0.1753  0.4002  0.3291
19563TIP3    H180180   2.278   0.249   0.301 -0.0375  2.8060 -0.2746
19563TIP3    H280181   2.392   0.306   0.220  2.2389 -3.5768 -2.2354
19564TIP3   OH280182   4.126   0.749   0.858 -0.3903  0.7034  0.6766
19564TIP3    H180183   4.101   0.698   0.935  0.3740  0.3334  0.6922
19564TIP3    H280184   4.084   0.834   0.871 -1.1214  0.3031  0.9861
19565TIP3   OH280185   0.392   6.607  13.481 -0.0553 -0.3471 -0.0792
19565TIP3    H180186   0.375   6.668  13.553  1.1004  0.2207 -0.2611
19565TIP3    H280187   0.480   6.574  13.499  0.6036  0.4470 -1.6821
19566TIP3   OH280188   5.187   6.039  15.487 -0.1460  0.3641  0.2618
19566TIP3    H180189   5.176   5.972  15.420  2.1201 -0.2029  0.3793
19566TIP3    H280190   5.133   6.009  15.560 -0.2397 -0.6107 -0.1889
19567TIP3   OH280191   0.491   3.132   0.526 -0.1487  0.1152  0.4339
19567TIP3    H180192   0.517   3.191   0.455  2.4124 -1.4769 -0.0783
19567TIP3    H280193   0.548   3.157   0.599 -0.6986 -0.1734  0.9644
19568TIP3   OH280194   6.204   2.108  15.459  0.6488 -0.6005  0.4807
19568TIP3    H180195   6.259   2.150  15.525  1.2156 -1.1599  0.3724
19568TIP3    H280196   6.212   2.014  15.477  1.6582 -0.8264 -1.0310
19569TIP3   OH280197   4.240   1.693  13.372  0.1969  0.0435 -0.3521
19569TIP3    H180198   4.277   1.781  13.373 -0.2264  0.2180  0.0571
19569TIP3    H280199   4.177   1.694  13.301 -1.2219  0.6670  0.8674
19570TIP3   OH280200   0.833   1.544   2.471  0.5386 -0.1690 -0.3992
19570TIP3    H180201   0.821   1.450   2.459  1.7064 -0.5765  1.2708
19570TIP3    H280202   0.744   1.579   2.473 -0.0520 -1.6039  1.4036
19571TIP3   OH280203   1.298   5.178   4.266 -0.1796  0.2187 -0.2737
19571TIP3    H180204   1.390   5.199   4.286 -0.9316  0.9195  3.2531
19571TIP3    H280205   1.250   5.258   4.289 -2.1127 -1.7447  3.5729
19572TIP3   OH280206   5.739   5.163  12.940 -0.3007  0.1311  0.2235
19572TIP3    H180207   5.711   5.194  13.027 -1.4634  0.0910 -0.1172
19572TIP3    H280208   5.659   5.166  12.887  0.3118 -0.2264 -0.7399
19573TIP3   OH280209   5.993   3.044   1.457  0.3985  0.5227  0.8016
19573TIP3    H180210   5.962   3.049   1.367  4.5274 -2.0791 -1.0960
19573TIP3    H280211   5.946   2.970   1.495  4.5275 -4.5596 -2.5600
19574TIP3   OH280212   5.592   1.415   3.020  0.2118  0.1089 -0.0894
19574TIP3    H180213   5.634   1.343   3.068  0.6999  0.4835  0.0541
19574TIP3    H280214   5.503   1.417   3.053  0.2857 -0.2341  0.1362
19575TIP3   OH280215   3.098   3.756   1.349 -0.2564 -0.1264  0.2233
19575TIP3    H180216   3.134   3.815   1.415 -0.4401  0.8572 -0.5296
19575TIP3    H280217   3.122   3.797   1.265 -1.2427 -0.5989 -0.3042
19576TIP3   OH280218   6.309   3.699  17.348 -0.8006  0.3888 -0.6706
19576TIP3    H180219   6.232   3.710  17.291  0.1709 -1.8674 -2.5809
19576TIP3    H280220   6.380   3.743  17.302 -0.4885  0.6094  0.0114
19577TIP3   OH280221   4.243   2.973   5.386 -0.0823  0.0813  0.3941
19577TIP3    H180222   4.225   2.922   5.307 -0.3177  0.3752  0.2549
19577TIP3    H280223   4.206   2.921   5.458  0.5466 -0.4126  0.3705
19578TIP3   OH280224   3.660   1.693  17.332  0.1190 -0.4561 -0.3181
19578TIP3    H180225   3.619   1.608  17.343  0.9317 -0.7495  0.5053
19578TIP3    H280226   3.610   1.734  17.261  0.2999 -1.9757 -1.3851
19579TIP3   OH280227   5.917   1.642   3.694  0.2221  0.3765  0.3414
19579TIP3    H180228   5.996   1.592   3.712  0.8130  1.0439 -0.3185
19579TIP3    H280229   5.897   1.623   3.602  1.0765  2.1188 -0.2662
19580TIP3   OH280230   6.081   3.380   1.165  0.2256  0.0990 -0.8018
19580TIP3    H180231   5.993   3.361   1.198  0.1310  0.7767 -0.6394
19580TIP3    H280232   6.139   3.329   1.221  0.1490  1.9805  1.1361
19581TIP3   OH280233   3.333   3.365  15.579 -0.3260  0.0166 -0.3374
19581TIP3    H180234   3.410   3.352  15.634  0.7480 -0.5105 -1.8951
19581TIP3    H280235   3.270   3.407  15.636 -0.7891 -4.0119  2.5177
19582TIP3   OH280236   1.333   0.806   4.227 -0.1341 -0.4569 -0.0921
19582TIP3    H180237   1.390   0.770   4.159  1.4780  1.4142  0.1493
19582TIP3    H280238   1.384   0.878   4.264 -1.6983 -0.2885  1.8879
19583TIP3   OH280239   3.414   0.554   6.024 -0.0281  0.6755 -0.0291
19583TIP3    H180240   3.479   0.546   5.955 -0.8958 -0.3280 -0.7719
19583TIP3    H280241   3.347   0.612   5.988  0.5897  1.9897  0.8637
19584TIP3   OH280242   3.905   6.279  16.300 -0.6803  0.1783 -0.3850
19584TIP3    H180243   3.984   6.238  16.335  0.2234  2.6016  0.6408
19584TIP3    H280244   3.833   6.234  16.344  0.2341 -0.4364  0.5243
19585TIP3   OH280245   6.566   6.378  16.181  0.2265  0.4864 -0.4507
19585TIP3    H180246   6.602   6.301  16.225 -0.7740  0.0735 -0.3090
19585TIP3    H280247   6.501   6.342  16.119 -0.1694  1.2025 -0.4680
19586TIP3   OH280248   6.614   3.750  11.776  0.2326  0.0657  0.0445
19586TIP3    H180249   6.660   3.723  11.856  0.5083 -0.7374 -0.3693
19586TIP3    H280250   6.565   3.672  11.750  0.8603  0.0204 -1.0725
19587TIP3   OH280251   2.752   4.922  13.518 -0.2333  0.0163 -0.0824
19587TIP3    H180252   2.786   4.833  13.506 -0.0505  0.0612  0.1095
19587TIP3    H280253   2.662   4.909  13.548  0.0643 -0.1120  0.7655
19588TIP3   OH280254   6.018   4.413  14.770  0.2305 -0.8408 -0.1597
19588TIP3    H180255   6.101   4.369  14.752 -0.9278 -2.6018 -1.5603
19588TIP3    H280256   5.960   4.386  14.699 -0.7041  2.8570 -1.0301
19589TIP3   OH280257   3.390   2.929  12.946 -0.4064  0.1450  0.1222
19589TIP3    H180258   3.471   2.949  12.992 -0.9501  1.4436  0.5652
19589TIP3    H280259   3.322   2.976  12.994 -1.4219 -0.8190 -0.3026
19590TIP3   OH280260   2.748   3.524  15.926 -0.5317 -0.5727 -0.2617
19590TIP3    H180261   2.788   3.563  16.003 -1.2990 -1.3751  0.5780
19590TIP3    H280262   2.700   3.595  15.884  0.2233 -0.0428 -0.2308
19591TIP3   OH280263   2.364   2.434   1.800 -0.1501 -0.9132  0.0928
19591TIP3    H180264   2.322   2.478   1.873  0.0750 -1.4918  0.5786
19591TIP3    H280265   2.300   2.368   1.772 -0.2796 -0.6230 -0.3027
19592TIP3   OH280266   2.685   0.114  16.377 -0.2012  0.0659  0.3723
19592TIP3    H180267   2.614   0.173  16.349  0.4163  0.2037 -0.9882
19592TIP3    H280268   2.668   0.099  16.469 -1.7424  0.4747  0.1896
19593TIP3   OH280269   5.579   6.570   4.170 -0.2697  0.0085  0.2125
19593TIP3    H180270   5.645   6.530   4.226 -0.7892  0.7877  1.4405
19593TIP3    H280271   5.527   6.624   4.230  0.2845  2.3698 -1.3037
19594TIP3   OH280272   0.789   5.773   3.367  0.0418  0.3231  0.5251
19594TIP3    H180273   0.739   5.778   3.285 -0.1619 -3.5543  0.2224
19594TIP3    H280274   0.724   5.792   3.435 -1.4184 -2.2997  0.0001
19595TIP3   OH280275   3.547   3.337  14.786  0.3564 -0.7404  0.3608
19595TIP3    H180276   3.537   3.289  14.868 -0.0763 -0.8596  0.2439
19595TIP3    H280277   3.593   3.418  14.811  1.1085 -1.2145  0.5547
19596TIP3   OH280278   5.341   2.396  16.768  0.5971 -0.3173 -0.4757
19596TIP3    H180279   5.369   2.393  16.859  3.0091  0.5654 -1.1304
19596TIP3    H280280   5.372   2.313  16.731  1.6228  0.2966 -1.0096
19597TIP3   OH280281   6.341   1.702  11.911  0.1343  0.4837 -0.0449
19597TIP3    H180282   6.260   1.749  11.926  0.7279  1.5953 -0.2219
19597TIP3    H280283   6.313   1.614  11.885 -0.9937  0.7605  0.1798
19598TIP3   OH280284   4.533   2.468   0.271 -0.1513  0.1009 -0.1127
19598TIP3    H180285   4.518   2.561   0.289  2.0275  0.5310 -0.2201
19598TIP3    H280286   4.556   2.430   0.356  1.0098  0.1291 -0.3999
19599TIP3   OH280287   2.882   4.508  12.400 -0.0093  0.3416 -0.3320
19599TIP3    H180288   2.942   4.492  12.474  0.8499  2.0320 -0.6186
19599TIP3    H280289   2.932   4.481  12.323 -0.3630 -0.0762 -0.4168
19600TIP3   OH280290   3.255   4.775   1.514 -0.2054  0.0821  0.1033
19600TIP3    H180291   3.230   4.859   1.552  0.2552  0.6425 -0.8124
19600TIP3    H280292   3.348   4.786   1.492 -0.7051  0.1524 -2.1644
19601TIP3   OH280293   5.707   5.720   1.635 -0.4761  0.3122 -0.3603
19601TIP3    H180294   5.762   5.778   1.583  1.3501 -0.8616  0.1644
19601TIP3    H280295   5.766   5.650   1.664 -2.1544 -0.7795  0.6171
19602TIP3   OH280296   2.670   1.879   6.258 -0.0372  0.0444 -0.5590
19602TIP3    H180297   2.594   1.871   6.199  0.5676 -2.0153 -1.1394
19602TIP3    H280298   2.641   1.842   6.341  0.1591 -0.2376 -0.6145
19603TIP3   OH280299   2.045   5.729   4.320 -0.2037  0.0093  0.1167
19603TIP3    H180300   2.014   5.743   4.230 -2.4581 -1.3023  0.6148
19603TIP3    H280301   2.117   5.666   4.310  0.6053  1.0357 -0.8599
19604TIP3   OH280302   2.804   2.643  15.548  0.5209  0.0879 -0.2815
19604TIP3    H180303   2.762   2.728  15.534  0.4880  0.0764 -0.2527
19604TIP3    H280304   2.744   2.596  15.605  0.2009 -0.2128 -0.8592
19605TIP3   OH280305   3.017   6.013  17.003 -0.5490  0.2449  0.1255
19605TIP3    H180306   2.942   6.033  16.946 -0.2856  0.1261 -0.2694
19605TIP3    H280307   2.985   5.945  17.062 -0.8061  0.3200  0.0746
19606TIP3   OH280308   0.321   1.634  16.128 -0.3651 -0.2694 -0.3456
19606TIP3    H180309   0.307   1.628  16.034  0.5952 -0.8317 -0.4600
19606TIP3    H280310   0.337   1.727  16.145  0.4810 -0.3137 -0.8856
19607TIP3   OH280311   5.104   2.320   3.008  0.1706  0.2556 -0.8214
19607TIP3    H180312   5.081   2.228   3.000  0.1844  0.1925 -0.2150
19607TIP3    H280313   5.060   2.349   3.089  0.3467  0.7184 -0.8870
19608TIP3   OH280314   2.080   2.790  17.044  0.1106 -0.1752  0.3898
19608TIP3    H180315   2.146   2.749  16.989  0.7542 -0.1135  1.1056
19608TIP3    H280316   1.999   2.782  16.994  0.6172 -0.4305 -0.4066
19609TIP3   OH280317   0.847   3.313   5.419  0.8651 -0.1974  0.0619
19609TIP3    H180318   0.807   3.251   5.480  0.4151 -0.1369 -0.1637
19609TIP3    H280319   0.926   3.344   5.463 -0.0431  0.7083  1.1044
19610TIP3   OH280320   3.249   2.607  14.556  0.7071 -0.4753 -0.5853
19610TIP3    H180321   3.312   2.538  14.533  0.8656 -0.9460  1.1250
19610TIP3    H280322   3.251   2.610  14.652 -1.9749 -0.5887 -0.4600
19611TIP3   OH280323   0.766   3.427  14.650  0.0403 -0.1209  0.3786
19611TIP3    H180324   0.801   3.493  14.590 -0.4991  0.6053  0.8564
19611TIP3    H280325   0.824   3.429  14.725 -1.1662  1.3498  1.3392
19612TIP3   OH280326   3.375   5.334  15.799 -0.4967 -0.0976 -0.3000
19612TIP3    H180327   3.324   5.252  15.800 -1.1149  0.2432  1.9682
19612TIP3    H280328   3.321   5.395  15.749 -1.6392 -0.1827  0.7742
19613TIP3   OH280329   0.653   4.067  14.843 -0.1132 -0.6030  0.0164
19613TIP3    H180330   0.563   4.075  14.810 -0.1077  0.0750  0.1583
19613TIP3    H280331   0.648   3.998  14.909 -0.7204  0.0414  0.6603
19614TIP3   OH280332   2.786   1.658   5.561  0.3701  0.6487 -0.2760
19614TIP3    H180333   2.784   1.748   5.593 -2.5659  1.2336 -1.7895
19614TIP3    H280334   2.719   1.613   5.612 -0.2650  0.1166 -1.5342
19615TIP3   OH280335   4.524   4.107   1.793  0.2333  0.6961  0.0246
19615TIP3    H180336   4.596   4.156   1.752 -0.1270 -0.1358 -1.7301
19615TIP3    H280337   4.568   4.043   1.849  0.7906  1.4352  0.4337
19616TIP3   OH280338   3.870   1.261   3.084  0.3887  0.1537  0.5395
19616TIP3    H180339   3.893   1.322   3.013  0.4184 -1.1308 -0.5888
19616TIP3    H280340   3.779   1.236   3.065  1.0050 -1.6822 -0.2023
19617TIP3   OH280341   0.825   5.874   2.757  0.1622 -0.4397 -0.4883
19617TIP3    H180342   0.873   5.849   2.836  0.4861  0.5001 -0.3735
19617TIP3    H280343   0.886   5.931   2.709  0.1303 -1.3239 -1.6281
19618TIP3   OH280344   1.197   5.769  17.352  0.3923 -0.1441 -0.0235
19618TIP3    H180345   1.271   5.824  17.328  0.6307 -1.0263 -1.4165
19618TIP3    H280346   1.152   5.751  17.269 -1.0447 -0.1146  0.7137
19619TIP3   OH280347   0.187   6.207   1.432 -0.4043 -0.2285 -0.3453
19619TIP3    H180348   0.116   6.189   1.494 -3.2385 -2.3591 -3.8060
19619TIP3    H280349   0.178   6.300   1.413 -0.1461  0.2315  1.5463
19620TIP3   OH280350   6.373   6.692  16.126  0.0931  0.5565  0.3813
19620TIP3    H180351   6.369   6.774  16.079 -1.3536  0.8768  1.0084
19620TIP3    H280352   6.454   6.697  16.177  1.1995  0.5821 -1.2989
19621TIP3   OH280353   1.109   6.333  12.714  0.2026 -0.2998  0.1499
19621TIP3    H180354   1.043   6.383  12.666  1.1482  0.7144 -0.1603
19621TIP3    H280355   1.163   6.293  12.646  0.8213  0.1525  0.3565
19622TIP3   OH280356   5.947   3.065  13.690 -0.2173  0.3536  0.0447
19622TIP3    H180357   5.868   3.015  13.671  2.2215 -3.1038 -2.3927
19622TIP3    H280358   5.958   3.122  13.614  0.8487 -1.0981 -0.9506
19623TIP3   OH280359   3.835   2.868  13.259 -0.5503 -0.4237  0.5482
19623TIP3    H180360   3.802   2.920  13.186  3.6538 -1.5606 -2.6221
19623TIP3    H280361   3.881   2.931  13.314 -1.4536  0.1128  0.7014
19624TIP3   OH280362   2.658   6.699   1.472 -0.6285  0.6136 -0.0172
19624TIP3    H180363   2.582   6.675   1.525  0.3194 -0.4836  0.8990
19624TIP3    H280364   2.730   6.708   1.536  0.7187 -1.4538 -1.1479
19625TIP3   OH280365   3.953   4.432  12.413 -0.2897  0.2561  0.4886
19625TIP3    H180366   4.008   4.356  12.434  0.5959  0.8833  0.4637
19625TIP3    H280367   3.875   4.393  12.373  0.8185 -0.5953 -1.0016
19626TIP3   OH280368   0.158   6.397   0.827  0.2281 -0.6292  0.1255
19626TIP3    H180369   0.142   6.454   0.902  1.3642 -3.4450  2.7280
19626TIP3    H280370   0.205   6.452   0.764  0.8955  1.4165  2.2707
19627TIP3   OH280371   6.339   1.116   2.582  0.3610  0.0826 -0.4545
19627TIP3    H180372   6.416   1.173   2.576 -0.0093  0.4865 -1.6376
19627TIP3    H280373   6.372   1.036   2.623  1.5648  0.0204 -1.4856
19628TIP3   OH280374   5.201   6.505   0.035 -0.5497  0.1077  0.5828
19628TIP3    H180375   5.164   6.580  -0.012  0.3396  0.5639  0.5862
19628TIP3    H280376   5.271   6.474  -0.022  0.6436  0.7588  1.6437
19629TIP3   OH280377   6.172   2.166  13.541  0.3319 -0.0731  0.6385
19629TIP3    H180378   6.222   2.100  13.589  0.0746 -0.0960  0.8827
19629TIP3    H280379   6.080   2.145  13.560  0.2622  1.0584  1.6865
19630TIP3   OH280380   5.669   2.686   2.753  0.5304 -0.4501 -0.1513
19630TIP3    H180381   5.698   2.601   2.718  0.6182 -1.1759  1.5962
19630TIP3    H280382   5.625   2.664   2.835 -1.5872  0.9859 -0.7991
19631TIP3   OH280383   4.879   5.348   4.589 -0.1808  0.0567  0.6430
19631TIP3    H180384   4.825   5.427   4.592 -1.2069 -0.6460  1.2334
19631TIP3    H280385   4.924   5.346   4.673 -1.4194 -0.8262  1.3138
19632TIP3   OH280386   5.217   0.968  16.149 -0.0992  0.8883 -0.2927
19632TIP3    H180387   5.132   0.928  16.127 -0.2480  0.2920  1.2621
19632TIP3    H280388   5.277   0.895  16.158  1.0105  1.3746 -2.8265
19633TIP3   OH280389   5.815   4.792   2.576  0.2096 -0.5181  0.4145
19633TIP3    H180390   5.762   4.717   2.605  0.8112 -0.8870  0.5905
19633TIP3    H280391   5.761   4.869   2.596  0.3031 -0.8010  1.8865
19634TIP3   OH280392   4.247   5.549   4.791  0.2717  0.1214  0.2401
19634TIP3    H180393   4.189   5.545   4.715 -0.3716  2.5011  0.5267
19634TIP3    H280394   4.334   5.531   4.755 -0.2691 -0.6952 -0.7048
19635TIP3   OH280395   0.073   2.073   2.910 -0.4135 -0.0642 -0.2462
19635TIP3    H180396  -0.022   2.064   2.916 -0.4193  0.8317  2.3295
19635TIP3    H280397   0.087   2.166   2.895  0.0516 -0.1281 -0.2242
19636TIP3   OH280398   2.263   3.280   3.217  0.0903  0.6102 -0.0440
19636TIP3    H180399   2.249   3.341   3.290 -1.0376 -0.6650  0.8635
19636TIP3    H280400   2.228   3.325   3.141  2.6610  2.6110 -0.1745
19637TIP3   OH280401   4.325   2.126   5.671 -0.0574 -0.4454 -0.8430
19637TIP3    H180402   4.239   2.138   5.710  0.1587 -0.5631 -0.3219
19637TIP3    H280403   4.338   2.031   5.672  0.3979 -0.3854 -0.2045
19638TIP3   OH280404   1.225   1.808  12.335  0.9267 -0.4080  0.4010
19638TIP3    H180405   1.244   1.902  12.336 -2.6675  0.5520 -2.2060
19638TIP3    H280406   1.186   1.791  12.421  0.4856  0.8015  0.4596
19639TIP3   OH280407   1.338   5.129   1.861  0.1898 -0.6871  0.0694
19639TIP3    H180408   1.393   5.207   1.858 -0.1015 -0.3155  2.6119
19639TIP3    H280409   1.399   5.056   1.871  0.4719 -0.9040 -2.4328
19640TIP3   OH280410   3.656   1.913  15.980 -0.7353 -0.3837  0.6015
19640TIP3    H180411   3.654   1.872  15.894  1.4037 -0.1998  0.4136
19640TIP3    H280412   3.566   1.944  15.994 -0.9726  0.2487 -1.8807
19641TIP3   OH280413   0.538   4.094   2.222  0.3815 -0.1597  0.3653
19641TIP3    H180414   0.583   4.011   2.238  0.8938 -0.1817 -1.0528
19641TIP3    H280415   0.607   4.155   2.196 -0.2050  0.2014 -0.4107
19642TIP3   OH280416   0.698   2.874   3.004  0.3008  0.1400 -0.2891
19642TIP3    H180417   0.629   2.897   3.066 -0.8965 -1.3239 -1.0167
19642TIP3    H280418   0.655   2.818   2.939  1.9614 -0.0161 -1.3256
19643TIP3   OH280419   0.419   3.347   2.677 -0.2030 -0.6913 -0.0061
19643TIP3    H180420   0.348   3.356   2.614 -0.7109 -0.6727  0.5657
19643TIP3    H280421   0.382   3.297   2.749 -0.5581  1.8178  1.6564
19644TIP3   OH280422   3.114   1.893   1.640  0.2318 -0.3119 -0.6849
19644TIP3    H180423   3.080   1.982   1.625 -1.9728 -0.4177  2.7193
19644TIP3    H280424   3.039   1.836   1.622  0.6920 -1.2127  0.1863
19645TIP3   OH280425   6.092   4.195  17.269  0.0053  0.2214  0.1771
19645TIP3    H180426   6.022   4.184  17.205  0.7172  0.0605 -0.5775
19645TIP3    H280427   6.157   4.249  17.224  0.1008  0.8896  1.0860
19646TIP3   OH280428   0.397   6.491  14.239  0.4412 -0.3968  0.2309
19646TIP3    H180429   0.491   6.495  14.218  0.6762 -0.5049  1.1894
19646TIP3    H280430   0.386   6.407  14.283  0.3946  0.6189  2.2751
19647TIP3   OH280431   0.450   0.674   5.629 -0.1528 -0.1769  0.8503
19647TIP3    H180432   0.523   0.710   5.578 -0.7350  1.3245  1.0143
19647TIP3    H280433   0.480   0.681   5.720 -1.3371  2.7369  1.1370
19648TIP3   OH280434   5.518   4.207  13.662  0.4109 -0.3885  0.2335
19648TIP3    H180435   5.446   4.154  13.696  0.4928 -0.3399  0.4880
19648TIP3    H280436   5.580   4.144  13.625  0.1337 -0.4151 -0.1902
19649TIP3   OH280437   2.004   2.686   4.128  0.0082 -0.0137 -0.4994
19649TIP3    H180438   2.006   2.694   4.033 -0.5129  0.1798 -0.4978
19649TIP3    H280439   2.018   2.592   4.144  1.1218  0.0985 -0.7179
19650TIP3   OH280440   4.190   1.246   2.455  0.0074 -0.3459  0.2148
19650TIP3    H180441   4.252   1.315   2.475 -0.5607 -0.0692  1.0850
19650TIP3    H280442   4.193   1.237   2.360  0.4650  0.5086  0.1448
19651TIP3   OH280443   5.495   4.906   0.455 -0.4119 -0.2770 -0.3864
19651TIP3    H180444   5.586   4.879   0.471  0.5397  1.4453 -2.3259
19651TIP3    H280445   5.494   4.999   0.477 -1.5716 -0.1743 -0.8150
19652TIP3   OH280446   2.199   1.553  15.375  0.0778  0.6914  0.3266
19652TIP3    H180447   2.191   1.592  15.463  2.4156 -0.6434  1.2230
19652TIP3    H280448   2.123   1.496  15.367 -0.4886  1.2870  1.2211
19653TIP3   OH280449   5.484   2.033  17.062 -0.1459  0.0608  0.6842
19653TIP3    H180450   5.389   2.045  17.064 -0.1448  0.3201 -0.4135
19653TIP3    H280451   5.502   1.969  17.131 -0.9973  0.7739  1.5891
19654TIP3   OH280452   0.693   3.521  16.452 -0.2123  0.0992 -0.8444
19654TIP3    H180453   0.724   3.608  16.428  0.1115  0.2196 -0.0301
19654TIP3    H280454   0.753   3.492  16.520 -1.8496  0.3446  0.7849
19655TIP3   OH280455   0.618   4.172  16.146 -0.2154 -0.1085  0.2507
19655TIP3    H180456   0.578   4.258  16.160  2.0717  1.2546 -0.8981
19655TIP3    H280457   0.627   4.165  16.051  0.8909 -0.9884  0.4001
19656TIP3   OH280458   6.144   2.383   2.178  0.4570 -0.2670  0.3794
19656TIP3    H180459   6.230   2.361   2.212  0.3047 -0.9563  0.3316
19656TIP3    H280460   6.148   2.477   2.162  1.6990 -0.5122 -1.0280
19657TIP3   OH280461   1.577   4.072   5.494  0.3607 -0.1838 -0.2423
19657TIP3    H180462   1.516   4.015   5.541  0.2364 -0.0273 -0.2102
19657TIP3    H280463   1.660   4.025   5.494 -0.0028 -0.8620 -1.1639
19658TIP3   OH280464   2.000   6.495  15.674  0.1148 -0.0386 -0.1649
19658TIP3    H180465   1.931   6.440  15.713 -0.1038  0.8291  0.7123
19658TIP3    H280466   2.076   6.438  15.671 -0.1751 -0.4776  0.4989
19659TIP3   OH280467   3.838   0.216   2.785  0.2223 -0.4865  0.4024
19659TIP3    H180468   3.799   0.294   2.746 -0.9424 -1.5978 -0.7893
19659TIP3    H280469   3.769   0.180   2.841  1.3769  0.2851  2.4191
19660TIP3   OH280470   4.024   2.775   2.555  0.7443  0.3625 -0.1035
19660TIP3    H180471   4.049   2.764   2.647  2.9166 -2.0719 -0.8432
19660TIP3    H280472   3.949   2.716   2.543  1.0559 -0.0421 -0.0842
19661TIP3   OH280473   3.164   3.002  15.061  0.8614 -0.5983  0.3679
19661TIP3    H180474   3.105   2.936  15.098 -0.2865 -1.0001 -1.9970
19661TIP3    H280475   3.232   2.951  15.016  2.1037 -0.1245  1.6344
19662TIP3   OH280476   6.734   5.484   4.916 -0.3160  0.8931 -0.0048
19662TIP3    H180477   6.749   5.427   4.992 -1.6558  1.4703  0.7162
19662TIP3    H280478   6.792   5.449   4.848 -1.2299 -1.4698  0.3479
19663TIP3   OH280479   0.523   3.671   3.432  0.0150 -0.1623  0.3719
19663TIP3    H180480   0.539   3.626   3.515  0.6510  0.4030  0.5631
19663TIP3    H280481   0.497   3.760   3.458  0.8127  0.1981 -0.0390
19664TIP3   OH280482   6.259   0.265  13.782 -0.0533  0.4232 -0.0174
19664TIP3    H180483   6.185   0.226  13.829 -1.0662 -1.0940 -2.6850
19664TIP3    H280484   6.268   0.352  13.820 -1.6075 -0.2315  2.0497
19665TIP3   OH280485   3.860   3.441   3.935 -0.5179  0.7688  0.4080
19665TIP3    H180486   3.767   3.459   3.944 -0.8613 -0.2598 -0.7792
19665TIP3    H280487   3.867   3.345   3.935  0.5780  0.8316  0.8442
19666TIP3   OH280488   4.215   3.568   0.169  0.2521  0.3567 -0.1931
19666TIP3    H180489   4.264   3.492   0.199 -0.5360  0.6851  2.1306
19666TIP3    H280490   4.125   3.549   0.195 -0.0369  1.8543 -0.0542
19667TIP3   OH280491   3.371   0.880  14.686 -0.2732 -0.2066 -0.2243
19667TIP3    H180492   3.348   0.817  14.753 -0.3991 -2.6094 -2.3708
19667TIP3    H280493   3.388   0.827  14.608  0.9953  2.3311 -1.8065
19668TIP3   OH280494   4.090   5.951  17.071  0.5358  0.6370  0.0446
19668TIP3    H180495   4.055   6.040  17.066  1.2828  0.9798  0.5992
19668TIP3    H280496   4.177   5.957  17.032  0.9390  0.3606  0.8576
19669TIP3   OH280497   2.898   0.090   4.574  0.1342  0.2127 -0.1197
19669TIP3    H180498   2.901   0.004   4.618 -0.8807 -0.0739 -0.5754
19669TIP3    H280499   2.983   0.129   4.591  0.1981 -0.4099  1.0731
19670TIP3   OH280500   6.219   4.404   1.107  0.2545 -0.4816 -0.0913
19670TIP3    H180501   6.305   4.430   1.073  1.6530 -2.8636  1.3695
19670TIP3    H280502   6.194   4.475   1.166  2.0265 -0.4799  0.7154
19671TIP3   OH280503   3.358   0.337  12.405  1.2751  0.1548 -0.1235
19671TIP3    H180504   3.300   0.270  12.442  1.0132 -0.5370 -1.6696
19671TIP3    H280505   3.397   0.294  12.329  2.9863  0.9828  0.2471
19672TIP3   OH280506   5.379   5.483  13.947 -0.5148  0.1950  0.1445
19672TIP3    H180507   5.386   5.576  13.925 -1.4677 -0.0187 -1.1855
19672TIP3    H280508   5.294   5.474  13.989 -0.6688 -0.1553 -0.2310
19673TIP3   OH280509   4.073   5.540   4.283 -0.1935 -0.3050 -0.2131
19673TIP3    H180510   4.153   5.514   4.236 -0.4851  0.6958 -1.2959
19673TIP3    H280511   4.002   5.504   4.231 -0.5150  0.5974 -0.4115
19674TIP3   OH280512   0.848   1.980   5.462  0.1064 -0.3438  0.2180
19674TIP3    H180513   0.924   1.925   5.482 -0.2123 -1.1275 -0.6414
19674TIP3    H280514   0.798   1.983   5.543 -0.7286 -2.7338 -0.1344
19675TIP3   OH280515   3.035   5.995   2.845 -0.2908  0.0375 -0.0773
19675TIP3    H180516   3.018   5.913   2.891  1.1853 -0.1363  0.2007
19675TIP3    H280517   2.955   6.047   2.857 -0.9758 -1.0837  0.3173
19676TIP3   OH280518   4.516   6.048  11.683 -0.8220 -0.9902 -0.7499
19676TIP3    H180519   4.452   6.110  11.649 -2.2713 -1.9049  0.1887
19676TIP3    H280520   4.471   6.004  11.755  0.5997 -2.2417 -0.5709
19677TIP3   OH280521   2.957   0.873  13.486  0.1685 -0.4100 -0.1126
19677TIP3    H180522   2.869   0.839  13.472  0.7036 -1.7824 -0.2850
19677TIP3    H280523   3.015   0.799  13.468  1.3944  0.6001 -0.5096
19678TIP3   OH280524   5.846   2.240   3.620  0.6573 -0.4449 -0.7319
19678TIP3    H180525   5.774   2.212   3.677  1.2093 -0.4159 -0.0090
19678TIP3    H280526   5.825   2.201   3.534 -0.0118 -0.7654 -0.4312
19679TIP3   OH280527   6.015   4.326   3.475  0.7194 -0.4184  0.0131
19679TIP3    H180528   6.094   4.272   3.467  0.2996 -1.2306  1.1362
19679TIP3    H280529   6.028   4.375   3.556  0.8250  0.7493 -0.6875
19680TIP3   OH280530   1.912   5.819  14.346  1.1012  0.2778  0.6991
19680TIP3    H180531   1.926   5.725  14.357  2.2756  0.4669  0.9871
19680TIP3    H280532   1.883   5.849  14.432  0.2319  0.1137  0.4760
19681TIP3   OH280533   2.253   5.027  15.386 -0.6270 -0.1566  0.0173
19681TIP3    H180534   2.182   4.966  15.406 -0.8465 -0.2023 -0.8353
19681TIP3    H280535   2.311   5.023  15.462 -0.7196 -1.3117  0.0457
19682TIP3   OH280536   2.177   4.235  11.514 -0.4801 -0.5993 -0.3065
19682TIP3    H180537   2.174   4.315  11.462 -1.2621 -0.1228  0.4327
19682TIP3    H280538   2.190   4.165  11.450 -1.8928 -0.0796 -1.2134
19683TIP3   OH280539   6.123   2.491   1.027 -0.4275  0.3719 -0.0541
19683TIP3    H180540   6.103   2.576   1.064 -0.4282  0.0790  0.6336
19683TIP3    H280541   6.207   2.467   1.066 -0.4739  0.0113 -0.1714
19684TIP3   OH280542   3.224   1.884  15.656 -0.1146  0.0957  0.1193
19684TIP3    H180543   3.248   1.964  15.609 -0.0740  0.6055  0.9982
19684TIP3    H280544   3.288   1.819  15.625 -0.1442  0.3986 -0.5944
19685TIP3   OH280545   0.960   4.240  11.843 -0.1524  0.1260 -0.4331
19685TIP3    H180546   0.897   4.212  11.776 -1.7803 -0.9965  1.4338
19685TIP3    H280547   0.964   4.335  11.834  0.1143 -0.0310 -2.4384
19686TIP3   OH280548   1.204   4.874   3.782 -0.0357  0.2716 -0.8392
19686TIP3    H180549   1.129   4.923   3.750  0.3121  1.1136 -0.4032
19686TIP3    H280550   1.209   4.896   3.875 -1.4361 -2.6374  0.0536
19687TIP3   OH280551   6.368   3.474  13.159  0.3513 -0.3661 -0.1752
19687TIP3    H180552   6.393   3.499  13.070  2.1063 -0.4511  0.2528
19687TIP3    H280553   6.431   3.406  13.183 -0.4153 -0.7036  0.9450
19688TIP3   OH280554   4.718   1.028  12.278  0.3465  0.5920 -0.2149
19688TIP3    H180555   4.649   1.057  12.219  0.1551 -2.3444 -1.5818
19688TIP3    H280556   4.797   1.070  12.246  0.0351 -0.0391 -1.8750
19689TIP3   OH280557   5.261   6.726  10.661 -0.1713 -0.0439 -0.2802
19689TIP3    H180558   5.279   6.741  10.568  0.2690  1.2394  0.0026
19689TIP3    H280559   5.317   6.788  10.707  0.5522 -1.5043  0.9056
19690TIP3   OH280560   6.390   5.418  12.535  0.4832  0.3270  0.2527
19690TIP3    H180561   6.386   5.374  12.451  1.2626 -1.1254  0.9399
19690TIP3    H280562   6.456   5.486  12.523 -2.2983  2.9555 -1.4835
19691TIP3   OH280563   2.908   2.269  14.668  0.6199 -0.2379 -0.4724
19691TIP3    H180564   2.855   2.248  14.590  0.7604  1.5981 -1.1347
19691TIP3    H280565   2.881   2.359  14.690 -0.0104 -0.9894  2.1329
19692TIP3   OH280566   5.405   1.525  13.853  0.0705  0.1235  0.4248
19692TIP3    H180567   5.385   1.529  13.759 -0.2638 -0.5778  0.4589
19692TIP3    H280568   5.495   1.556  13.859  0.7635 -1.5736 -0.3788
19693TIP3   OH280569   3.226   3.507  11.139 -0.0534 -0.0351  0.5369
19693TIP3    H180570   3.246   3.596  11.169  0.9196 -0.1241  0.1846
19693TIP3    H280571   3.180   3.467  11.212 -0.8407  0.8798  0.5586
19694TIP3   OH280572   5.279   2.733  16.787  0.5303 -0.0756  0.0787
19694TIP3    H180573   5.191   2.700  16.808  0.7304 -0.5217  0.2290
19694TIP3    H280574   5.301   2.690  16.705  0.2320  0.7589 -0.4518
19695TIP3   OH280575   6.371   3.212  15.416  0.0077 -0.5760  0.4350
19695TIP3    H180576   6.391   3.174  15.502  1.1317  0.4109  0.6452
19695TIP3    H280577   6.278   3.234  15.420  0.0671 -0.4654  1.4269
19696TIP3   OH280578   2.921   6.509  17.349  0.1195 -0.2456 -0.2171
19696TIP3    H180579   2.827   6.527  17.347  0.2931  0.6281 -1.1521
19696TIP3    H280580   2.938   6.463  17.266  0.6389  0.2913 -0.4134
19697TIP3   OH280581   2.598   4.528   1.590 -0.1562 -0.4030 -0.0981
19697TIP3    H180582   2.579   4.608   1.541  0.6542  0.2636  0.6598
19697TIP3    H280583   2.517   4.508   1.636 -0.3803 -0.0645 -0.3386
19698TIP3   OH280584   2.365   5.075  16.737 -0.5543 -0.5549 -0.4123
19698TIP3    H180585   2.363   5.135  16.662 -1.4134 -0.6533 -0.4779
19698TIP3    H280586   2.458   5.065  16.757 -0.3695  0.3900 -0.7326
19699TIP3   OH280587   6.521   0.150   2.677  0.7606  0.0876  0.4828
19699TIP3    H180588   6.557   0.097   2.747  0.3972  0.1343  0.7107
19699TIP3    H280589   6.427   0.130   2.678  0.5830  0.8933  0.7168
19700TIP3   OH280590   3.722   2.376  13.872  0.2193  0.5139  0.4260
19700TIP3    H180591   3.812   2.346  13.882 -0.2748 -0.9617  0.6796
19700TIP3    H280592   3.708   2.433  13.947  1.0702  1.1133  0.1438
19701TIP3   OH280593   6.075   6.181  13.047  0.1722 -0.1404 -0.7339
19701TIP3    H180594   6.127   6.121  13.101  0.5726  1.0018  0.1919
19701TIP3    H280595   5.985   6.167  13.076  0.4423  0.8901  0.7162
19702TIP3   OH280596   4.052   6.232  10.709  0.3652  0.4031 -0.1672
19702TIP3    H180597   3.979   6.280  10.671 -0.9244 -0.6911  0.8272
19702TIP3    H280598   4.044   6.245  10.803 -0.1932 -1.9044  0.1676
19703TIP3   OH280599   3.406   4.205  17.271 -0.1142 -0.7666  0.0468
19703TIP3    H180600   3.338   4.177  17.334 -0.1861 -0.0378  0.3013
19703TIP3    H280601   3.358   4.256  17.206  0.2630  0.2267  0.5330
19704TIP3   OH280602   3.697   0.251  17.462 -0.3278 -0.3466 -0.2886
19704TIP3    H180603   3.748   0.187  17.512 -0.0749 -0.7647 -1.0632
19704TIP3    H280604   3.673   0.204  17.382 -1.5090  0.0109 -0.1560
19705TIP3   OH280605   1.497   3.153   3.655  0.1877  0.2932 -0.0872
19705TIP3    H180606   1.510   3.079   3.715 -0.1766  0.3981  0.1254
19705TIP3    H280607   1.501   3.230   3.711  1.8415  0.5310 -0.4966
19706TIP3   OH280608   2.007   5.298  15.994  0.2883 -0.1619  0.0805
19706TIP3    H180609   2.075   5.233  15.976 -0.8433 -1.6635  1.0043
19706TIP3    H280610   1.927   5.247  16.008 -1.1504  1.5552 -1.3122
19707TIP3   OH280611   0.665   2.118  12.470  0.6719 -0.2288  0.4098
19707TIP3    H180612   0.738   2.056  12.458  0.4001 -0.4479 -0.1532
19707TIP3    H280613   0.699   2.182  12.532 -0.1254 -2.6668  3.6046
19708TIP3   OH280614   5.765   1.228  13.613 -0.1258  0.6084  0.3072
19708TIP3    H180615   5.743   1.242  13.706  0.6243 -1.1099  0.7866
19708TIP3    H280616   5.828   1.155  13.614 -0.1971  0.4757 -1.5704
19709TIP3   OH280617   6.374   3.162   2.745  0.0240 -0.5401  0.6536
19709TIP3    H180618   6.450   3.111   2.773  0.2540  0.3414  1.6831
19709TIP3    H280619   6.316   3.098   2.703  1.4986 -1.1632 -0.5262
19710TIP3   OH280620   0.837   5.839   5.936 -0.5116  0.0844 -0.4634
19710TIP3    H180621   0.760   5.868   5.886 -0.2693 -1.8457 -2.0768
19710TIP3    H280622   0.805   5.766   5.989 -0.0469  0.0668 -0.1997
19711TIP3   OH280623   5.100   5.797  12.504  0.1419 -0.4382 -0.2210
19711TIP3    H180624   5.116   5.797  12.409 -1.7712 -3.1234 -0.6571
19711TIP3    H280625   5.115   5.707  12.531 -0.7610 -0.0443  1.7627
19712TIP3   OH280626   2.464   2.082  16.538  0.3370  0.1149  0.6387
19712TIP3    H180627   2.463   2.077  16.634 -2.2859  0.4180  0.6789
19712TIP3    H280628   2.465   1.990  16.510  2.9059 -0.0099  0.8551
19713TIP3   OH280629   5.350   0.715  11.806  0.5579 -0.1119  0.7752
19713TIP3    H180630   5.403   0.793  11.791  1.8196 -0.4354  3.1166
19713TIP3    H280631   5.408   0.641  11.786  0.4207 -0.4579  1.6033
19714TIP3   OH280632   1.432   4.884  14.494  0.2199  0.4994 -0.5123
19714TIP3    H180633   1.394   4.875  14.406  2.8100  1.0323 -1.7711
19714TIP3    H280634   1.515   4.930  14.480  2.0043 -1.7268  1.8619
19715TIP3   OH280635   5.375   3.277   3.229  0.2701 -0.8981 -0.0640
19715TIP3    H180636   5.444   3.275   3.296  0.6860 -0.8576 -0.4811
19715TIP3    H280637   5.394   3.356   3.178 -0.6804 -0.3433  0.4246
19716TIP3   OH280638   3.808   4.450  14.736  0.0109 -0.6019  0.4492
19716TIP3    H180639   3.823   4.385  14.668 -1.0879 -0.2931 -0.0995
19716TIP3    H280640   3.835   4.533  14.697 -0.1931 -0.4884  0.5466
19717TIP3   OH280641   3.594   5.594   2.767 -0.2452 -0.3153  0.0753
19717TIP3    H180642   3.577   5.659   2.835 -0.4087  0.3742 -0.6235
19717TIP3    H280643   3.513   5.542   2.764 -0.1240 -0.5382  0.6136
19718TIP3   OH280644   0.185   2.538   3.366  0.2054 -0.4630  0.5126
19718TIP3    H180645   0.261   2.481   3.378  0.4543 -0.0644  0.8292
19718TIP3    H280646   0.198   2.577   3.280  0.5010 -0.1794  0.6860
19719TIP3   OH280647   2.679   6.308  14.398 -0.3621 -0.1432  0.1968
19719TIP3    H180648   2.622   6.357  14.458  0.2664  1.3215 -0.3363
19719TIP3    H280649   2.663   6.349  14.313 -0.7936 -1.7888 -0.5421
19720TIP3   OH280650   2.807   0.169   2.616 -0.0343  0.1147  0.0054
19720TIP3    H180651   2.712   0.159   2.613 -0.0769  0.4640  0.0545
19720TIP3    H280652   2.838   0.094   2.666 -0.2095 -0.4298 -0.6920
19721TIP3   OH280653   2.142   5.097   5.167  0.1039 -0.0325 -0.1101
19721TIP3    H180654   2.152   5.002   5.172 -0.3117 -0.0533  0.3419
19721TIP3    H280655   2.185   5.121   5.085 -0.7890 -0.7514 -0.8212
19722TIP3   OH280656   5.245   4.417   0.656 -0.4579 -0.0657  0.6489
19722TIP3    H180657   5.273   4.500   0.695 -1.0441  0.6524 -0.4217
19722TIP3    H280658   5.188   4.442   0.583  0.1654 -1.3759 -0.3340
19723TIP3   OH280659   0.161   3.473   3.814 -0.3300 -0.1211 -0.3298
19723TIP3    H180660   0.232   3.525   3.851 -0.4895  1.7390 -2.4554
19723TIP3    H280661   0.087   3.490   3.873  0.2907 -0.0224  0.4496
19724TIP3   OH280662   4.932   5.713  15.396 -0.1379 -0.2029 -0.1400
19724TIP3    H180663   4.967   5.642  15.450  0.2524  0.9550  1.2068
19724TIP3    H280664   5.003   5.738  15.338  0.1733 -0.0520  0.3001
19725TIP3   OH280665   5.271   5.258  13.106  0.3544 -0.2312 -0.0488
19725TIP3    H180666   5.224   5.341  13.113 -2.2351 -1.3925 -1.8457
19725TIP3    H280667   5.226   5.200  13.168  0.4235 -0.9275 -0.6246
19726TIP3   OH280668   0.626   1.495  17.128 -0.6610 -0.3431  1.3572
19726TIP3    H180669   0.573   1.421  17.098 -2.4522  1.3585  0.1125
19726TIP3    H280670   0.581   1.525  17.207 -1.5890  1.0737  0.3277
19727TIP3   OH280671   2.783   0.939   4.530  0.6542 -0.2037 -0.5757
19727TIP3    H180672   2.843   1.013   4.541 -1.0841  1.2273 -0.1102
19727TIP3    H280673   2.824   0.867   4.577  2.1315  0.6333 -0.5339
19728TIP3   OH280674   5.691   5.027   2.661 -0.1743  0.3322  0.0431
19728TIP3    H180675   5.620   4.995   2.717  0.5920 -2.5634 -0.4717
19728TIP3    H280676   5.721   5.107   2.703 -1.4750 -0.2202  2.1683
19729TIP3   OH280677   4.170   5.512  17.189  0.0249  0.2023 -0.3137
19729TIP3    H180678   4.081   5.478  17.185 -0.0914  0.6128 -2.6594
19729TIP3    H280679   4.165   5.597  17.146  1.9467 -0.8526 -2.8780
19730TIP3   OH280680   4.349   6.096  13.699 -0.1738 -0.4244 -0.8709
19730TIP3    H180681   4.292   6.036  13.651 -0.6603 -0.2938 -0.4669
19730TIP3    H280682   4.438   6.066  13.679 -0.4142 -2.0227  0.2422
19731TIP3   OH280683   1.181   6.370  15.372  0.0659 -0.4872 -0.0517
19731TIP3    H180684   1.097   6.324  15.377  1.0444 -2.2211  2.7508
19731TIP3    H280685   1.219   6.342  15.289 -2.3123  0.8632 -1.7221
19732TIP3   OH280686   3.257   4.003  15.841  0.5999 -0.4075 -0.1505
19732TIP3    H180687   3.179   3.948  15.835 -0.4008  0.9234  0.1316
19732TIP3    H280688   3.261   4.048  15.756  2.7939 -2.6123 -1.3351
19733TIP3   OH280689   4.711   5.991   0.906  0.4641  0.1268 -0.4771
19733TIP3    H180690   4.724   6.065   0.847  0.0169  1.6916  1.2804
19733TIP3    H280691   4.707   6.030   0.993  0.4301 -2.0093  0.5557
19734TIP3   OH280692   0.749   6.662   2.812 -0.0285  0.0898  0.3224
19734TIP3    H180693   0.778   6.673   2.722 -1.9539  1.7874 -0.1704
19734TIP3    H280694   0.817   6.704   2.865  0.1175  0.9447 -0.5177
19735TIP3   OH280695   2.538   5.443   0.294  0.2014  0.5917 -0.2434
19735TIP3    H180696   2.500   5.500   0.362 -1.2320  0.6795 -1.0727
19735TIP3    H280697   2.580   5.373   0.343 -1.7270  0.0646  0.7741
19736TIP3   OH280698   6.278   1.109  17.131  0.0795 -0.2578 -0.1992
19736TIP3    H180699   6.251   1.196  17.101 -1.1488 -0.0524  1.4125
19736TIP3    H280700   6.209   1.050  17.100 -0.8713 -0.1325  1.5834
19737TIP3   OH280701   5.260   0.158  12.271  0.0169 -0.0277  0.3377
19737TIP3    H180702   5.201   0.140  12.198  0.7995  1.8639 -0.8311
19737TIP3    H280703   5.205   0.153  12.349 -1.8445  2.2112 -0.7561
19738TIP3   OH280704   1.431   5.250   2.461 -0.4688  1.4494 -0.0184
19738TIP3    H180705   1.436   5.250   2.557 -1.8250  2.3338  0.0767
19738TIP3    H280706   1.521   5.266   2.433  0.3806 -0.9413  1.0299
19739TIP3   OH280707   2.639   0.223  14.177  0.1331 -0.2926 -0.7340
19739TIP3    H180708   2.713   0.273  14.142  0.1359 -0.5150 -1.0469
19739TIP3    H280709   2.645   0.234  14.272 -0.7844  1.6317 -0.8485
19740TIP3   OH280710   0.994   1.669   0.017 -0.4409 -0.3549  0.2534
19740TIP3    H180711   1.087   1.684   0.033 -0.1015 -2.5627  0.6978
19740TIP3    H280712   0.951   1.690   0.100 -0.1276 -0.8077  0.5334
19741TIP3   OH280713   1.666   5.569  13.715 -0.1640  0.0564 -0.2591
19741TIP3    H180714   1.750   5.574  13.669 -0.0243 -0.7910 -0.1196
19741TIP3    H280715   1.680   5.616  13.797  0.5301 -0.9957  0.2550
19742TIP3   OH280716   4.623   6.196  16.304 -0.2783 -0.1287 -0.4741
19742TIP3    H180717   4.631   6.278  16.353 -0.8956 -1.3817  1.9071
19742TIP3    H280718   4.533   6.196  16.272 -0.4239 -0.0673 -0.0723
19743TIP3   OH280719   4.511   4.574   3.343 -0.6431 -0.1920  0.1848
19743TIP3    H180720   4.504   4.520   3.422 -2.6434  1.9613  1.6306
19743TIP3    H280721   4.443   4.640   3.354  0.5603  1.5980 -2.2653
19744TIP3   OH280722   0.419   6.049  16.040  0.2237  0.0591  0.1155
19744TIP3    H180723   0.419   6.111  15.968  0.3295  0.9832  0.8878
19744TIP3    H280724   0.403   6.103  16.118 -0.8089 -1.0400  0.6838
19745TIP3   OH280725   0.570   0.472  11.137 -0.2504  0.2635 -0.2703
19745TIP3    H180726   0.612   0.400  11.089  0.7153  1.1355 -0.7681
19745TIP3    H280727   0.643   0.515  11.182 -0.8763  0.7064  0.3257
19746TIP3   OH280728   3.971   1.014   1.703 -0.1736 -0.3524 -0.0208
19746TIP3    H180729   3.991   0.971   1.620  1.8100 -0.8561  0.6533
19746TIP3    H280730   3.902   0.961   1.742 -0.5459 -0.5815 -0.9744
19747TIP3   OH280731   4.513   1.149   0.611  0.3162  0.8004 -0.2085
19747TIP3    H180732   4.506   1.096   0.690 -1.5167 -0.0765 -0.9112
19747TIP3    H280733   4.606   1.170   0.605  0.8195 -0.8381  1.0651
19748TIP3   OH280734   1.940   2.502  11.413  0.0879  0.2983 -0.0173
19748TIP3    H180735   1.866   2.447  11.435 -0.7903  1.9133  1.3262
19748TIP3    H280736   1.960   2.481  11.322 -1.6060 -0.6368 -0.2117
19749TIP3   OH280737   0.665   1.851   0.450  0.1082  0.1459  0.0877
19749TIP3    H180738   0.715   1.823   0.373 -0.6775 -0.7227 -0.1227
19749TIP3    H280739   0.717   1.922   0.488  0.9873 -0.0616 -0.6976
19750TIP3   OH280740   5.331   0.145   3.435  0.1446  0.5531  0.3935
19750TIP3    H180741   5.425   0.131   3.429  0.1747  1.3711 -1.5238
19750TIP3    H280742   5.305   0.096   3.513  2.1466  0.3665  1.0040
19751TIP3   OH280743   2.370   0.162  16.691  0.0446  0.2486  0.1517
19751TIP3    H180744   2.397   0.226  16.757  3.5947 -1.4510  0.5625
19751TIP3    H280745   2.373   0.210  16.608  0.8681  1.0438  0.6292
19752TIP3   OH280746   3.083   4.696   4.336 -0.4557  0.7816 -0.7227
19752TIP3    H180747   3.054   4.678   4.426  0.2713  0.4395 -0.5506
19752TIP3    H280748   3.003   4.724   4.291 -0.8631  0.8006 -0.0152
19753TIP3   OH280749   3.599   6.484  11.078  0.4663  0.1104 -0.9888
19753TIP3    H180750   3.558   6.509  10.995  1.1876  1.3490 -0.9935
19753TIP3    H280751   3.662   6.553  11.095  2.6879 -1.7656 -1.0539
19754TIP3   OH280752   0.497   3.673   2.522  0.1467 -0.0577  0.0324
19754TIP3    H180753   0.576   3.646   2.570 -0.1952 -1.0049  0.0922
19754TIP3    H280754   0.524   3.674   2.430  0.8476  1.9151  0.2105
19755TIP3   OH280755   1.479   2.655   3.707 -0.6243  0.2476 -0.8165
19755TIP3    H180756   1.501   2.573   3.662  1.2354  0.9869 -1.3357
19755TIP3    H280757   1.412   2.695   3.652 -0.0778  0.0247 -1.6595
19756TIP3   OH280758   5.352   2.989   5.703  0.1319  0.1068 -0.0107
19756TIP3    H180759   5.306   3.073   5.701  0.8937  0.7392  3.1017
19756TIP3    H280760   5.333   2.949   5.618 -2.3252  2.3054 -0.6392
19757TIP3   OH280761   4.820   0.095   3.129 -0.4858  0.2978 -0.6192
19757TIP3    H180762   4.733   0.058   3.113 -0.4037 -0.9025  1.4386
19757TIP3    H280763   4.856   0.042   3.200  1.0503  2.1520  0.0687
19758TIP3   OH280764   1.671   2.747  13.938  0.3392 -0.1678 -0.1598
19758TIP3    H180765   1.651   2.835  13.972 -0.6333 -0.5628  0.3419
19758TIP3    H280766   1.730   2.709  14.003  1.6539  0.5066 -0.9401
19759TIP3   OH280767   1.007   0.504   4.979  0.3052 -0.7127  0.2531
19759TIP3    H180768   1.077   0.446   5.010  1.9619  1.4016  0.6571
19759TIP3    H280769   0.999   0.571   5.047 -0.9329  0.0612 -0.6145
19760TIP3   OH280770   3.281   4.239   5.246 -0.5965 -0.1154 -0.1608
19760TIP3    H180771   3.239   4.248   5.160 -0.3092 -1.6462 -0.4972
19760TIP3    H280772   3.316   4.150   5.246 -0.3784 -0.0583  1.4602
19761TIP3   OH280773   4.795   4.495  13.850 -0.6011  0.2283 -0.1027
19761TIP3    H180774   4.835   4.581  13.865 -1.5868  0.6122  0.4097
19761TIP3    H280775   4.813   4.446  13.931  0.2584 -0.1922 -0.5242
19762TIP3   OH280776   2.631   1.394  17.349 -0.4251 -0.2619 -0.5769
19762TIP3    H180777   2.685   1.342  17.290 -1.3418 -1.7916 -0.1270
19762TIP3    H280778   2.552   1.341  17.363 -0.3020  0.0720  1.9182
19763TIP3   OH280779   3.377   4.145  16.036  0.4972  0.2729  0.0330
19763TIP3    H180780   3.329   4.102  15.966  0.4931  0.9470 -0.3899
19763TIP3    H280781   3.452   4.186  15.993  1.6016 -0.9519  0.7107
19764TIP3   OH280782   3.738   2.714   2.771 -0.5121 -0.5680 -0.9526
19764TIP3    H180783   3.713   2.662   2.847  1.9522  0.3433  0.5775
19764TIP3    H280784   3.780   2.651   2.712  1.9697 -0.5511  0.6485
19765TIP3   OH280785   4.368   2.036   2.112  0.5727  0.3877 -0.1984
19765TIP3    H180786   4.446   2.091   2.117 -0.4372  1.9088 -0.6750
19765TIP3    H280787   4.374   1.992   2.027  2.2289 -1.6267  0.8695
19766TIP3   OH280788   5.583   2.886  15.762  0.6517  0.0521  0.2862
19766TIP3    H180789   5.619   2.807  15.723  0.7536 -0.1231  0.7307
19766TIP3    H280790   5.615   2.957  15.706  0.3449 -0.2369 -0.2658
19767TIP3   OH280791   3.989   6.372  11.498 -0.3388 -0.3641 -0.8046
19767TIP3    H180792   3.989   6.293  11.445  1.0157  0.3406 -1.9202
19767TIP3    H280793   3.942   6.436  11.445 -0.4963 -0.1214 -0.3790
19768TIP3   OH280794   4.106   0.995   5.206  0.2128  0.6550  0.5573
19768TIP3    H180795   4.146   0.909   5.196 -0.6207  0.2466  0.6650
19768TIP3    H280796   4.084   1.001   5.299 -2.1721 -0.1502  0.1114
19769TIP3   OH280797   5.593   5.603   6.415  0.3897  0.5139  0.5826
19769TIP3    H180798   5.549   5.566   6.491 -1.0165  0.6010 -0.1510
19769TIP3    H280799   5.641   5.530   6.377  2.6407  0.8581  2.5328
19770TIP3   OH280800   0.378   0.230   6.896  0.2493 -0.3025  0.1658
19770TIP3    H180801   0.312   0.162   6.888  0.6788 -0.8968  1.3926
19770TIP3    H280802   0.329   0.312   6.886 -0.3944 -0.7572 -0.5445
19771TIP3   OH280803   4.839   4.043   1.152 -0.4341 -0.1554 -0.0718
19771TIP3    H180804   4.752   4.006   1.168 -0.7761  0.5261 -0.3209
19771TIP3    H280805   4.823   4.135   1.134  0.2645 -0.1883 -0.9405
19772TIP3   OH280806   3.029   4.447  15.448 -0.2317 -0.7062  0.2937
19772TIP3    H180807   3.040   4.401  15.532 -0.0515 -2.3421 -0.5923
19772TIP3    H280808   2.943   4.489  15.456  1.0497  1.7754  2.4608
19773TIP3   OH280809   5.654   1.991  15.184 -0.0442  0.1932 -0.0053
19773TIP3    H180810   5.625   2.082  15.196 -0.1502  0.1612 -0.0164
19773TIP3    H280811   5.677   1.962  15.272  4.4809  1.6952 -0.4395
19774TIP3   OH280812   1.834   1.282  17.447 -0.0423  0.4844 -0.1959
19774TIP3    H180813   1.839   1.214  17.379  2.0235  0.5738 -0.2105
19774TIP3    H280814   1.780   1.243  17.515  0.9734 -1.1689 -0.2664
19775TIP3   OH280815   3.963   2.775  12.571 -0.5177  0.8792 -0.3223
19775TIP3    H180816   3.935   2.828  12.645 -0.1819  0.1036  0.3789
19775TIP3    H280817   3.926   2.819  12.494  0.8917  2.9287  0.0736
19776TIP3   OH280818   0.769   2.907  12.737 -0.1004 -0.1159  0.5092
19776TIP3    H180819   0.816   2.971  12.790 -1.1691  1.0704  0.0774
19776TIP3    H280820   0.721   2.853  12.800  1.7364 -1.3233  0.9535
19777TIP3   OH280821   5.925   5.822  16.087 -0.5861  0.0288  0.0849
19777TIP3    H180822   5.966   5.843  16.171 -0.3203 -0.8707  0.1886
19777TIP3    H280823   5.848   5.879  16.083 -1.5920 -1.1413  1.7529
19778TIP3   OH280824   1.858   3.994   3.565 -0.7823 -0.1304  0.0322
19778TIP3    H180825   1.836   3.943   3.643 -1.6633 -0.8466 -0.6621
19778TIP3    H280826   1.774   4.016   3.527 -0.3987  1.4670  0.0555
19779TIP3   OH280827   3.523   5.067   2.008 -0.8104 -0.4047  0.0816
19779TIP3    H180828   3.469   5.055   2.086  1.7056  2.5199  2.5190
19779TIP3    H280829   3.483   5.141   1.962 -0.7179 -0.3469  0.0941
19780TIP3   OH280830   1.664   3.322  13.069  0.3703  0.7102  0.4966
19780TIP3    H180831   1.617   3.262  13.011 -0.3923  1.9007 -0.1636
19780TIP3    H280832   1.596   3.357  13.127  0.6295  1.6273  0.2614
19781TIP3   OH280833   3.019   3.816   5.165  0.0603 -0.3418 -0.1961
19781TIP3    H180834   2.949   3.765   5.206  0.2378 -2.9284 -2.8051
19781TIP3    H280835   2.973   3.889   5.123 -0.3039  1.3045  2.7803
19782TIP3   OH280836   2.011   1.292   0.747 -0.2652  0.6693 -0.0610
19782TIP3    H180837   1.931   1.342   0.729 -0.1447  0.9316  0.1219
19782TIP3    H280838   2.070   1.315   0.675 -1.0056 -0.9811 -1.2565
19783TIP3   OH280839   2.912   4.577   5.271 -0.1024  0.3939  0.1717
19783TIP3    H180840   2.852   4.505   5.289  0.8867 -0.7915 -1.0160
19783TIP3    H280841   2.985   4.565   5.332  0.6160 -0.3363 -0.8009
19784TIP3   OH280842   3.829   3.974   0.583  0.5773 -0.3162  0.0136
19784TIP3    H180843   3.825   4.069   0.594  1.9124 -0.1017 -1.1409
19784TIP3    H280844   3.766   3.956   0.513  2.0700  0.0623 -1.4875
19785TIP3   OH280845   2.131   5.273  14.857 -0.0720 -0.4460 -0.3351
19785TIP3    H180846   2.111   5.186  14.823 -2.2113 -0.1927  0.1429
19785TIP3    H280847   2.058   5.294  14.916  0.2781  1.7437 -0.5748
19786TIP3   OH280848   2.692   4.478  14.208 -0.6888 -0.1656  0.4006
19786TIP3    H180849   2.765   4.537  14.187 -2.2141  1.0295 -1.9717
19786TIP3    H280850   2.621   4.537  14.232 -2.5825 -0.8043 -2.9974
19787TIP3   OH280851   3.217   3.077   8.691 -0.4362  0.0169  0.2384
19787TIP3    H180852   3.268   3.002   8.661 -0.2553  1.4904 -3.7867
19787TIP3    H280853   3.191   3.055   8.781 -0.9046 -5.0946 -0.8543
19788TIP3   OH280854   4.099   4.071  15.407 -0.1145  0.2659 -0.3330
19788TIP3    H180855   4.021   4.107  15.365 -0.1755 -0.2130 -0.6443
19788TIP3    H280856   4.161   4.059  15.336  0.2158  0.5630 -0.0981
19789TIP3   OH280857   3.218   2.353  12.373  0.3404  0.2835  0.2588
19789TIP3    H180858   3.163   2.408  12.317  0.8790 -0.4291 -1.0373
19789TIP3    H280859   3.305   2.394  12.369  0.5075 -0.0802  0.1138
19790TIP3   OH280860   4.449   6.313   3.988  0.7043 -0.1366  0.0386
19790TIP3    H180861   4.415   6.264   3.914 -0.3106 -0.6275  0.7975
19790TIP3    H280862   4.536   6.277   4.003 -0.2543 -2.2225  0.9771
19791TIP3   OH280863   5.062   2.871   2.951  0.1615 -0.3800  0.1112
19791TIP3    H180864   5.014   2.949   2.924  0.1442 -0.4333 -0.0133
19791TIP3    H280865   4.994   2.804   2.963  0.1051 -0.1885  0.8936
19792TIP3   OH280866   1.378   0.337  12.423 -0.0995 -0.1876  0.0412
19792TIP3    H180867   1.328   0.320  12.343  0.7056  2.0183 -1.0214
19792TIP3    H280868   1.323   0.398  12.473 -1.2237 -2.5610  1.9364
19793TIP3   OH280869   0.065   1.279  17.389 -0.0630 -0.2126 -0.4497
19793TIP3    H180870   0.154   1.304  17.364  0.2087 -0.5204  0.1827
19793TIP3    H280871   0.070   1.185  17.406 -0.2643 -0.0519  0.5819
19794TIP3   OH280872   3.376   3.187  14.400  0.1666  0.4165  0.2436
19794TIP3    H180873   3.463   3.147  14.403 -0.0169 -0.2002 -1.4591
19794TIP3    H280874   3.331   3.153  14.477  0.7016 -1.0661 -0.0691
19795TIP3   OH280875   3.195   1.779   1.287 -0.2989  0.7775  0.1504
19795TIP3    H180876   3.257   1.787   1.360 -0.1268  1.7361 -0.0895
19795TIP3    H280877   3.166   1.869   1.271 -0.8947  0.4760 -0.4858
19796TIP3   OH280878   5.209   3.431   3.538  0.3326  0.1415  0.1540
19796TIP3    H180879   5.172   3.371   3.603 -1.5779  2.0279  0.9144
19796TIP3    H280880   5.274   3.378   3.491 -1.4530 -2.6115  0.5429
19797TIP3   OH280881   6.242   1.361   2.521  0.5534 -0.0195 -0.8029
19797TIP3    H180882   6.324   1.382   2.477  0.7625 -0.2376 -0.5229
19797TIP3    H280883   6.254   1.271   2.553  1.1358  0.7543  1.3191
19798TIP3   OH280884   6.589   2.176   4.201 -0.7155  0.0919 -0.6792
19798TIP3    H180885   6.638   2.228   4.264 -1.4381 -1.3571  1.1898
19798TIP3    H280886   6.655   2.144   4.139  0.5492 -0.8472  1.0777
19799TIP3   OH280887   0.693   3.174  17.487 -0.4412  0.0080  0.5443
19799TIP3    H180888   0.657   3.152  17.401 -2.0575 -2.0841  1.6505
19799TIP3    H280889   0.787   3.177  17.474 -0.6560 -0.1913 -1.3023
19800TIP3   OH280890   0.805   0.173   6.323  0.3949  0.2805  0.0461
19800TIP3    H180891   0.850   0.223   6.391  1.1050  0.8324 -0.8153
19800TIP3    H280892   0.858   0.094   6.313  1.2692  0.9786 -1.0422
19801TIP3   OH280893   0.926   6.266   4.085  0.7851  0.5445  0.1147
19801TIP3    H180894   0.906   6.178   4.117  0.8936  0.5143  0.1027
19801TIP3    H280895   0.848   6.317   4.103  0.2271  0.1330 -1.0240
19802TIP3   OH280896   3.484   0.794   5.827 -0.0336  0.1331 -0.3534
19802TIP3    H180897   3.478   0.847   5.748  0.7569  0.7410 -0.0177
19802TIP3    H280898   3.396   0.757   5.838 -0.3094  0.5337 -1.1672
19803TIP3   OH280899   1.555   0.433   5.216 -0.2452 -0.4403 -0.4772
19803TIP3    H180900   1.524   0.417   5.305 -0.1753 -0.3502 -0.4374
19803TIP3    H280901   1.567   0.527   5.211 -1.5030 -0.2812 -0.9891
19804TIP3   OH280902   6.056   3.510   5.641 -0.2697 -0.1677  0.1824
19804TIP3    H180903   5.966   3.484   5.662 -0.9527  2.1102  0.4442
19804TIP3    H280904   6.059   3.511   5.545 -1.3308  1.9664  0.1087
19805TIP3   OH280905   5.042   5.964  15.699 -0.4377  0.2524 -0.7957
19805TIP3    H180906   5.018   6.040  15.752  0.2500  0.3157 -0.5751
19805TIP3    H280907   4.982   5.895  15.728  1.7818 -0.5953  2.1895
19806TIP3   OH280908   5.281   2.782  17.061  0.0330 -0.5210  0.4434
19806TIP3    H180909   5.254   2.874  17.057 -1.7008 -0.9980  0.3701
19806TIP3    H280910   5.312   2.763  16.973  0.2915 -0.0521  0.4260
19807TIP3   OH280911   0.683   1.224  10.997 -0.5325 -0.0928  0.2778
19807TIP3    H180912   0.761   1.260  10.953  0.4283  0.0856  2.0192
19807TIP3    H280913   0.613   1.234  10.933  0.3367  2.1162 -0.4201
19808TIP3   OH280914   6.314   5.321   1.489 -0.6600 -0.7831 -0.3297
19808TIP3    H180915   6.351   5.329   1.401  0.8485  0.3854  0.3606
19808TIP3    H280916   6.374   5.264   1.536 -1.3503 -1.2494  0.0146
19809TIP3   OH280917   4.415   2.372  11.536 -0.1781 -0.2742  0.0480
19809TIP3    H180918   4.454   2.449  11.495 -1.0318  0.5009  0.6538
19809TIP3    H280919   4.390   2.401  11.624  3.8925 -2.4924  2.2616
19810TIP3   OH280920   4.956   4.176  13.072 -0.1368  0.0241  0.1468
19810TIP3    H180921   4.901   4.252  13.052 -0.9136 -0.5893 -0.1268
19810TIP3    H280922   4.932   4.153  13.162 -0.5077 -0.3788 -0.0490
19811TIP3   OH280923   6.567   3.574   0.534  0.0262  0.7174 -0.0347
19811TIP3    H180924   6.613   3.644   0.579 -0.5097  0.3520  1.1111
19811TIP3    H280925   6.586   3.495   0.585  2.3609 -0.4521 -2.4543
19812TIP3   OH280926   1.476   3.827   5.976  0.0674  0.0131  0.2364
19812TIP3    H180927   1.440   3.783   6.053 -0.1979 -0.2691 -0.0471
19812TIP3    H280928   1.529   3.760   5.933  0.6600  0.3273  0.4675
19813TIP3   OH280929   1.562   6.464   1.141 -0.1402 -0.7971 -0.2647
19813TIP3    H180930   1.607   6.394   1.093  0.5701 -0.8344  0.4362
19813TIP3    H280931   1.541   6.425   1.226  1.2361  0.1403  0.5460
19814TIP3   OH280932   5.594   2.385   1.249  0.2915  0.6633 -0.2183
19814TIP3    H180933   5.504   2.398   1.222  0.4046 -1.0148 -1.5927
19814TIP3    H280934   5.591   2.313   1.312  0.5161  1.6582  0.9556
19815TIP3   OH280935   4.110   4.966  14.819 -0.0359  0.3313  0.3164
19815TIP3    H180936   4.121   4.952  14.913 -0.6888 -0.5347  0.2741
19815TIP3    H280937   4.033   4.914  14.795  0.0425  0.6424 -0.6746
19816TIP3   OH280938   0.540   3.302   4.875  0.4951 -0.4451  0.2573
19816TIP3    H180939   0.503   3.367   4.936  0.4722  0.0350 -0.2604
19816TIP3    H280940   0.598   3.353   4.818  0.4460 -0.8757 -0.1829
19817TIP3   OH280941   5.770   3.231  14.075 -0.6488  0.0666  0.5500
19817TIP3    H180942   5.826   3.161  14.109 -0.2778 -0.1421 -0.4519
19817TIP3    H280943   5.767   3.296  14.145  0.0123 -0.3828  1.0096
19818TIP3   OH280944   3.207   6.080   5.640  0.3395  0.0501  0.0558
19818TIP3    H180945   3.164   5.995   5.640  1.3774 -0.4835  0.0612
19818TIP3    H280946   3.159   6.131   5.705 -0.3041 -0.5146  0.0361
19819TIP3   OH280947   4.169   5.614   5.554  0.6749 -0.2887 -0.2980
19819TIP3    H180948   4.222   5.689   5.581  0.9749 -0.5609 -0.1168
19819TIP3    H280949   4.103   5.606   5.623  0.3101  0.1432 -0.6024
19820TIP3   OH280950   4.882   3.102   1.291 -0.0727 -0.3666  0.4408
19820TIP3    H180951   4.817   3.117   1.222  0.6766 -0.6779 -0.3458
19820TIP3    H280952   4.965   3.129   1.252  0.4937 -1.3845  0.8990
19821TIP3   OH280953   3.288   4.172  11.441 -0.1114  0.1814 -0.5653
19821TIP3    H180954   3.251   4.106  11.499  0.0811  0.0366 -0.6064
19821TIP3    H280955   3.363   4.129  11.400  0.9382  0.9170  0.5432
19822TIP3   OH280956   4.910   2.323  12.499 -0.5703 -0.0728  0.0753
19822TIP3    H180957   5.002   2.350  12.500 -0.8614  1.2731  3.3797
19822TIP3    H280958   4.910   2.240  12.450  2.4259 -0.2498  0.1767
19823TIP3   OH280959   5.250   4.461   5.514 -0.1832 -0.2628 -0.3209
19823TIP3    H180960   5.319   4.498   5.569 -0.5713  1.1226 -0.7124
19823TIP3    H280961   5.257   4.509   5.431 -1.2363 -0.4961 -0.5646
19824TIP3   OH280962   1.386   1.539   6.789  0.0388  0.1951  0.5300
19824TIP3    H180963   1.343   1.456   6.768 -0.1299  0.2185  0.7805
19824TIP3    H280964   1.355   1.561   6.877 -0.4242  0.8432  0.2158
19825TIP3   OH280965   3.560   4.100  10.739 -0.6386 -0.0722  0.2402
19825TIP3    H180966   3.584   4.146  10.659  1.1645 -0.3537  0.5766
19825TIP3    H280967   3.513   4.022  10.710 -3.0523  1.4871 -0.3723
19826TIP3   OH280968   6.440   3.343  12.056 -0.6055  0.1477 -0.3175
19826TIP3    H180969   6.363   3.400  12.049 -0.0972  1.1736  1.6757
19826TIP3    H280970   6.411   3.270  12.109 -0.0783  0.8575  0.9900
19827TIP3   OH280971   4.948   2.875  13.041 -0.0724 -0.6952 -0.4529
19827TIP3    H180972   4.930   2.915  12.956 -0.5398 -0.6077 -0.3161
19827TIP3    H280973   4.893   2.797  13.043 -0.0566 -0.7016 -0.2358
19828TIP3   OH280974   1.421   0.275   1.080 -0.1738  0.5595 -0.1768
19828TIP3    H180975   1.423   0.287   0.986 -3.1622  0.1567 -0.3933
19828TIP3    H280976   1.365   0.198   1.093  0.3876  0.4386  1.9103
19829TIP3   OH280977   3.811   1.058  17.231 -0.0170 -0.3308  0.1774
19829TIP3    H180978   3.815   1.153  17.247  0.2883 -0.1825 -0.7304
19829TIP3    H280979   3.734   1.046  17.177 -0.3451 -0.6746  0.7147
19830TIP3   OH280980   3.273   3.180   0.410 -0.0799  0.2783  0.1142
19830TIP3    H180981   3.287   3.153   0.319 -0.1342  0.2808  0.1051
19830TIP3    H280982   3.201   3.242   0.405 -0.8508 -0.5808  0.2943
19831TIP3   OH280983   3.176   6.204   6.483 -0.2658  0.2650  0.4423
19831TIP3    H180984   3.129   6.143   6.539 -2.0219  1.4720  0.3403
19831TIP3    H280985   3.175   6.287   6.531  0.1875  0.7653 -0.3814
19832TIP3   OH280986   4.650   3.944   5.289  0.0379 -0.5235  0.5912
19832TIP3    H180987   4.741   3.929   5.313  1.3267 -0.2716 -3.5235
19832TIP3    H280988   4.612   3.857   5.278  0.2911 -0.6365  0.6200
19833TIP3   OH280989   3.213   6.044  14.226 -0.0841 -0.7072  0.0203
19833TIP3    H180990   3.174   6.130  14.243 -0.8994 -1.1745  0.6159
19833TIP3    H280991   3.300   6.063  14.191 -0.5592  0.3631 -0.6210
19834TIP3   OH280992   1.627   3.746  11.384  0.2754  0.1041 -0.0502
19834TIP3    H180993   1.553   3.685  11.386 -0.2743  0.7486  1.5710
19834TIP3    H280994   1.699   3.696  11.346 -0.6266 -0.9982 -0.3404
19835TIP3   OH280995   0.054   0.023   1.033 -0.2732 -0.3929  0.4126
19835TIP3    H180996   0.122  -0.042   1.017 -0.6418 -0.6343 -0.2008
19835TIP3    H280997   0.042   0.068   0.949 -1.0879 -0.5630  0.4247
19836TIP3   OH280998   3.215   5.167  17.099  0.4385  0.0725  0.4061
19836TIP3    H180999   3.144   5.103  17.106  1.6691 -1.5994 -1.2656
19836TIP3    H281000   3.294   5.114  17.096  1.7192  1.8420  1.3329
19837TIP3   OH281001   2.341   4.290  14.670 -0.2880 -0.6400  0.0475
19837TIP3    H181002   2.410   4.269  14.607 -1.4608 -1.0947 -1.1348
19837TIP3    H281003   2.294   4.363  14.631 -0.5757 -0.4343  0.7630
19838TIP3   OH281004   0.487   5.638  17.269  0.6746 -0.0713 -0.0608
19838TIP3    H181005   0.429   5.563  17.258 -1.6508  1.5838  0.3721
19838TIP3    H281006   0.492   5.652  17.363  0.6010  0.6798 -0.1608
19839TIP3   OH281007   5.466   4.565  12.693 -0.1170  0.4889 -0.1925
19839TIP3    H181008   5.405   4.506  12.737 -2.5076  1.9901 -1.2896
19839TIP3    H281009   5.493   4.518  12.614 -2.2288  0.8393 -1.2106
19840TIP3   OH281010   4.722   3.365   3.972  0.3153 -0.5318 -0.0781
19840TIP3    H181011   4.808   3.402   3.991  1.2943 -2.1358 -1.1559
19840TIP3    H281012   4.686   3.341   4.058  1.7196 -1.4728  0.2754
19841TIP3   OH281013   0.914   0.700  16.973  0.4326  0.2413  0.2395
19841TIP3    H181014   0.942   0.676  16.884 -2.2388  1.3630 -0.9990
19841TIP3    H281015   0.939   0.625  17.027  1.7843 -0.6454 -1.5042
19842TIP3   OH281016   0.846   1.960  15.049 -0.0349 -0.1295 -0.0422
19842TIP3    H181017   0.924   2.007  15.018  1.1792 -2.5291 -0.8995
19842TIP3    H281018   0.872   1.924  15.134 -0.3587 -0.5667 -0.1240
19843TIP3   OH281019   4.468   2.574  14.140 -0.0097  0.4750 -0.6105
19843TIP3    H181020   4.416   2.499  14.111  0.8538 -0.4697  0.2074
19843TIP3    H281021   4.518   2.600  14.062  0.0629 -0.1339 -0.7715
19844TIP3   OH281022   2.123   5.937   2.501 -0.0865  0.0308  0.1138
19844TIP3    H181023   2.066   5.859   2.501 -1.1023  0.7481  0.1503
19844TIP3    H281024   2.182   5.923   2.575 -1.1232 -0.1204  0.9363
19845TIP3   OH281025   2.187   0.261   5.928 -0.6217 -0.0556  0.0725
19845TIP3    H181026   2.264   0.293   5.973  1.7445 -3.9884 -0.6723
19845TIP3    H281027   2.198   0.289   5.837 -0.8528  0.5900  0.2405
19846TIP3   OH281028   6.549   2.170  16.384  0.4401 -0.3774 -0.6060
19846TIP3    H181029   6.528   2.085  16.345  0.4694 -0.5316 -0.2866
19846TIP3    H281030   6.475   2.226  16.361 -2.0300 -1.7172  3.1291
19847TIP3   OH281031   5.311   5.107  11.570  0.5961 -0.1244  0.1817
19847TIP3    H181032   5.401   5.125  11.597  0.4344  0.5175  0.3247
19847TIP3    H281033   5.277   5.048  11.638  0.8012 -0.0830  0.3205
19848TIP3   OH281034   4.643   5.340   1.186 -0.4923 -0.1944  0.3115
19848TIP3    H181035   4.623   5.247   1.198 -1.7019  0.1155  0.8681
19848TIP3    H281036   4.585   5.368   1.116 -0.1600  0.1596  0.1742
19849TIP3   OH281037   5.651   0.980  15.129  0.3043 -0.1091  0.0347
19849TIP3    H181038   5.572   1.023  15.096  0.9887  1.4215  0.3286
19849TIP3    H281039   5.699   0.955  15.051  0.2812  0.3851 -0.1387
19850TIP3   OH281040   1.572   3.915   0.593 -0.0763  0.2206  0.5050
19850TIP3    H181041   1.651   3.861   0.591 -0.6753 -0.7007 -1.3292
19850TIP3    H281042   1.513   3.869   0.654 -0.7279 -1.5374 -1.3268
19851TIP3   OH281043   5.491   4.134  15.920 -0.6503 -0.0008  0.0392
19851TIP3    H181044   5.466   4.092  16.002  1.7980  0.9569  1.3769
19851TIP3    H281045   5.580   4.166  15.935 -0.8751  2.0607 -2.2750
19852TIP3   OH281046   4.958   2.559  11.558  0.0514  0.0264  0.0379
19852TIP3    H181047   4.880   2.515  11.594  0.7186 -0.2252  1.2335
19852TIP3    H281048   4.938   2.653  11.566 -0.5312 -0.0366 -0.6006
19853TIP3   OH281049   0.217   3.097   6.153  0.1316 -0.2411 -0.5048
19853TIP3    H181050   0.241   3.123   6.064  1.0484 -0.6378 -0.3803
19853TIP3    H281051   0.265   3.016   6.168 -0.7283 -0.6687  0.0260
19854TIP3   OH281052   5.682   5.681   4.970 -0.3383 -0.1448  0.4089
19854TIP3    H181053   5.595   5.647   4.989 -0.6983  1.3620  1.6865
19854TIP3    H281054   5.666   5.761   4.919  0.2756  0.2101  0.7505
19855TIP3   OH281055   3.105   5.347   1.924  0.5356 -0.2531  0.1918
19855TIP3    H181056   3.050   5.276   1.958 -3.2682  2.3918  0.2227
19855TIP3    H281057   3.111   5.330   1.830  1.4720 -1.6394  0.4751
19856TIP3   OH281058   5.095   1.749   3.042 -0.1931  0.3452  0.2887
19856TIP3    H181059   5.128   1.827   2.998  0.7864 -0.7380 -0.9807
19856TIP3    H281060   5.003   1.743   3.016 -0.5864  1.6318  1.2697
19857TIP3   OH281061   4.411   2.916   4.253 -0.6028  0.3226 -0.1169
19857TIP3    H181062   4.347   2.964   4.201 -0.6107 -0.6306 -1.0306
19857TIP3    H281063   4.487   2.905   4.195 -0.4844 -0.4831  0.1674
19858TIP3   OH281064   5.049   5.503  16.155  0.1302  0.4386  0.2508
19858TIP3    H181065   5.143   5.488  16.160  0.0628  0.3096  1.3332
19858TIP3    H281066   5.030   5.563  16.226 -0.3826  1.7363 -0.9281
19859TIP3   OH281067   2.150   0.321   3.111 -0.0362  0.2154  0.5361
19859TIP3    H181068   2.100   0.323   3.030  0.7441 -0.2637  0.0284
19859TIP3    H281069   2.107   0.385   3.168  0.1489  1.4687 -0.6878
19860TIP3   OH281070   2.885   0.162  13.320 -0.4114 -0.0059  0.1669
19860TIP3    H181071   2.888   0.090  13.257 -1.5241  0.5663 -0.5869
19860TIP3    H281072   2.976   0.186  13.334 -0.1311  0.9417 -2.5495
19861TIP3   OH281073   3.605   4.984   0.016 -0.1594  0.0352 -0.0584
19861TIP3    H181074   3.693   5.007  -0.013 -0.5894 -0.5062 -1.9487
19861TIP3    H281075   3.560   4.957  -0.064 -2.2760  0.9690  0.7473
19862TIP3   OH281076   5.886   2.630   2.301 -0.2279  0.5277  0.0966
19862TIP3    H181077   5.919   2.542   2.285 -1.4114  0.0491  0.2363
19862TIP3    H281078   5.946   2.687   2.253 -0.0592 -0.4173 -0.8405
19863TIP3   OH281079   0.608   2.818  15.603 -0.1960 -0.3043 -0.6747
19863TIP3    H181080   0.553   2.886  15.641 -0.2018 -0.2472 -0.7852
19863TIP3    H281081   0.645   2.858  15.525  0.0838 -0.3069 -0.5471
19864TIP3   OH281082   1.360   5.097  12.742  0.2950 -0.2569 -0.0019
19864TIP3    H181083   1.419   5.023  12.750  1.2739  0.3367 -1.3813
19864TIP3    H281084   1.327   5.111  12.831 -0.0067 -2.3718  0.2674
19865TIP3   OH281085   0.923   6.022  11.574 -0.1825 -0.3200 -0.4890
19865TIP3    H181086   0.917   5.962  11.649 -1.3121  2.7005  2.0856
19865TIP3    H281087   0.902   5.968  11.498  0.4618 -3.4734  1.3875
19866TIP3   OH281088   5.794   5.991  17.288  0.4852 -0.5877 -0.2644
19866TIP3    H181089   5.790   5.982  17.193  2.3440 -1.0558 -0.3575
19866TIP3    H281090   5.753   5.911  17.321  2.2519 -1.7602 -0.7707
19867TIP3   OH281091   3.733   3.502  15.086  0.4298  0.8450 -0.0613
19867TIP3    H181092   3.718   3.459  15.170 -0.2673  0.6940 -0.2573
19867TIP3    H281093   3.684   3.584  15.092  0.5107  0.9082 -0.2611
19868TIP3   OH281094   3.427   1.749  16.438 -0.6541 -0.4466 -0.7402
19868TIP3    H181095   3.504   1.757  16.494 -0.2208 -1.5235 -1.1490
19868TIP3    H281096   3.384   1.834  16.443  0.8945  0.3761 -0.9992
19869TIP3   OH281097   0.496   0.589  15.098  0.2627  0.3604 -0.3058
19869TIP3    H181098   0.579   0.544  15.082 -1.1862 -1.8764 -2.3807
19869TIP3    H281099   0.472   0.565  15.187  1.1846 -0.1392 -0.1807
19870TIP3   OH281100   6.053   4.901  12.532 -0.6284 -0.7286  0.4340
19870TIP3    H181101   5.979   4.891  12.471 -1.2089  2.1716  0.5351
19870TIP3    H281102   6.109   4.966  12.491 -0.4198  0.4147  2.4325
19871TIP3   OH281103   6.225   5.855   3.781  0.9357 -0.5264 -0.2947
19871TIP3    H181104   6.219   5.820   3.692  1.4049  2.3822 -1.5614
19871TIP3    H281105   6.220   5.950   3.770  0.5438 -0.0927  2.8502
19872TIP3   OH281106   0.921   0.727  12.909 -0.5547  0.1132  0.0629
19872TIP3    H181107   1.015   0.740  12.902 -0.5516  0.0108 -0.0892
19872TIP3    H281108   0.908   0.633  12.891 -0.7561  0.2616 -0.5992
19873TIP3   OH281109   5.143   1.631  11.435  0.5090  0.1500 -0.3413
19873TIP3    H181110   5.072   1.590  11.384 -1.6322 -0.2221  2.6780
19873TIP3    H281111   5.164   1.711  11.386 -1.0087 -0.4290 -2.0796
19874TIP3   OH281112   2.252   6.106   0.854 -0.4184  0.7184 -0.0012
19874TIP3    H181113   2.157   6.116   0.858 -0.6550 -1.1931  0.0536
19874TIP3    H281114   2.267   6.011   0.860  1.4493  0.9039 -0.9458
19875TIP3   OH281115   0.832   6.618   5.293 -0.1633  0.0936  0.5691
19875TIP3    H181116   0.755   6.573   5.259  0.5453 -1.0400  0.4053
19875TIP3    H281117   0.817   6.621   5.388 -0.4802  0.0161  0.5249
19876TIP3   OH281118   4.034   5.792   1.581 -0.3716 -0.0272  0.3907
19876TIP3    H181119   4.023   5.697   1.590 -1.4866 -0.1344 -1.5110
19876TIP3    H281120   4.076   5.819   1.663 -0.4870 -2.0756  1.1966
19877TIP3   OH281121   1.298   5.878  11.570  0.2383  0.4488 -0.0363
19877TIP3    H181122   1.280   5.841  11.657  1.9198 -0.7275 -0.1246
19877TIP3    H281123   1.289   5.973  11.582  1.2455  0.3864  1.6764
19878TIP3   OH281124   1.208   1.795  10.815  0.3045  0.4696  0.0163
19878TIP3    H181125   1.180   1.878  10.775 -0.6977 -1.3726 -3.4818
19878TIP3    H281126   1.293   1.776  10.775  0.6884 -0.0847  1.0399
19879TIP3   OH281127   5.908   1.020  15.193 -0.3425 -0.7380  0.3137
19879TIP3    H181128   5.813   1.008  15.199 -0.6108  0.6119 -0.7990
19879TIP3    H281129   5.944   0.958  15.256 -1.9794 -1.0026  1.0298
19880TIP3   OH281130   4.535   3.056  15.591 -0.3929 -0.0912  0.1825
19880TIP3    H181131   4.596   3.077  15.662  0.2218 -0.2669 -0.2785
19880TIP3    H281132   4.481   2.984  15.625  0.7473 -1.0541  0.0339
19881TIP3   OH281133   1.108   1.678   0.404 -0.5414 -0.0712  0.0812
19881TIP3    H181134   1.116   1.773   0.390  0.7617 -0.3104 -0.9811
19881TIP3    H281135   1.087   1.670   0.497  0.4081  1.2183  0.4382
19882TIP3   OH281136   6.760   0.185  15.222  0.9014  0.0306 -0.4065
19882TIP3    H181137   6.823   0.152  15.287 -0.9287 -0.9548  0.9720
19882TIP3    H281138   6.753   0.278  15.241  1.7126  0.0867 -0.3701
19883TIP3   OH281139   0.187   0.615  14.632  0.6936  0.4199  0.0026
19883TIP3    H181140   0.201   0.562  14.711  0.4589 -0.3126 -0.4296
19883TIP3    H281141   0.273   0.650  14.610  0.6978  0.8951  0.7680
19884TIP3   OH281142   4.595   0.912   3.409  0.1564  0.2579  0.0490
19884TIP3    H181143   4.563   0.861   3.483  0.8778  0.0786  0.2536
19884TIP3    H281144   4.517   0.933   3.358 -0.1039 -1.5422 -0.3465
19885TIP3   OH281145   6.129   5.785  15.433 -0.2231 -0.2324 -0.7031
19885TIP3    H181146   6.204   5.817  15.483 -0.1424 -0.0764 -0.9236
19885TIP3    H281147   6.115   5.851  15.365 -0.3783 -0.4071 -0.8441
19886TIP3   OH281148   6.040   5.902   2.747 -0.6933 -0.4558 -0.1082
19886TIP3    H181149   6.119   5.934   2.705 -2.2486  0.6299 -2.3703
19886TIP3    H281150   6.071   5.861   2.828  2.2508 -0.9346 -1.3641
19887TIP3   OH281151   2.865   5.297   4.033  0.2349 -0.1628  0.2212
19887TIP3    H181152   2.876   5.311   3.940 -1.6608 -3.7487 -0.7567
19887TIP3    H281153   2.952   5.274   4.065  0.8239  0.6597 -0.7615
19888TIP3   OH281154   1.336   1.030   1.997 -0.0716  0.7751 -0.9325
19888TIP3    H181155   1.313   0.942   1.965 -0.5098  0.7187 -0.4900
19888TIP3    H281156   1.360   1.079   1.919 -0.7155  0.5243 -1.3024
19889TIP3   OH281157   0.210   5.559  14.132 -0.5934  0.5014  0.1031
19889TIP3    H181158   0.191   5.617  14.059 -2.2519  1.0178  0.9109
19889TIP3    H281159   0.276   5.498  14.097 -1.5319  0.5535 -1.8944
19890TIP3   OH281160   5.790   1.389  17.251  0.2354  0.2173  0.2120
19890TIP3    H181161   5.795   1.424  17.162  1.4216  0.8544  0.5069
19890TIP3    H281162   5.828   1.458  17.306 -1.5179  0.3305  1.3812
19891TIP3   OH281163   5.855   6.277   1.147  0.6883 -0.0964 -0.0754
19891TIP3    H181164   5.815   6.314   1.225  1.0208 -0.9872  0.5317
19891TIP3    H281165   5.874   6.186   1.170  0.6432 -0.4214 -1.2469
19892TIP3   OH281166   2.006   0.340  12.840 -0.8771 -0.6156  0.3178
19892TIP3    H181167   2.032   0.326  12.749 -0.4446  1.0395  0.1526
19892TIP3    H281168   1.919   0.300  12.847 -2.6272  2.3898 -1.8993
19893TIP3   OH281169   0.780   1.024  12.268 -0.1777  0.1959 -0.1124
19893TIP3    H181170   0.775   0.935  12.301 -1.0827  0.6485  1.0470
19893TIP3    H281171   0.692   1.060  12.283 -0.0052  1.0878 -1.1288
19894TIP3   OH281172   5.142   1.645  14.279  0.0557  0.2169  0.1163
19894TIP3    H181173   5.223   1.595  14.275 -1.0945 -2.0348  2.2126
19894TIP3    H281174   5.167   1.729  14.319  1.6644  0.5300 -1.4426
19895TIP3   OH281175   5.199   1.036   5.846 -0.4705 -0.7828 -0.3538
19895TIP3    H181176   5.232   1.044   5.756  0.3167  1.5914  0.0925
19895TIP3    H281177   5.117   1.084   5.846 -2.0429 -3.2850 -0.4474
19896TIP3   OH281178   2.870   5.423   1.674  0.2904  0.2190 -0.0313
19896TIP3    H181179   2.931   5.496   1.673  1.0000 -0.2671 -2.9926
19896TIP3    H281180   2.925   5.347   1.695  0.3717  0.0344 -0.8723
19897TIP3   OH281181   3.702   0.121   4.197 -0.5895  0.3671 -1.1437
19897TIP3    H181182   3.629   0.138   4.137 -0.1558  2.3165 -1.1833
19897TIP3    H281183   3.743   0.207   4.210  1.0893 -0.5106 -0.3265
19898TIP3   OH281184   0.587   6.489   2.950  0.2693 -0.2210  0.5168
19898TIP3    H181185   0.650   6.538   2.897  0.2433 -1.0533 -0.3090
19898TIP3    H281186   0.641   6.444   3.015  0.4750 -0.4877  0.1657
19899TIP3   OH281187   0.078   6.277   5.228 -0.0844 -0.1557  0.4535
19899TIP3    H181188   0.109   6.232   5.307 -0.1728  0.1419  0.6600
19899TIP3    H281189   0.074   6.369   5.253  2.1291  0.2922 -0.6024
19900TIP3   OH281190   4.327   6.211  11.597 -0.3811 -0.5204 -0.1955
19900TIP3    H181191   4.305   6.296  11.633  1.0993  0.2513 -0.9884
19900TIP3    H281192   4.320   6.222  11.502  0.8116 -0.9416 -0.3632
19901TIP3   OH281193   0.144   1.201   4.232 -0.5134 -0.6326  0.2708
19901TIP3    H181194   0.085   1.276   4.227  0.6846  0.3625  0.4637
19901TIP3    H281195   0.182   1.194   4.144 -0.3205 -0.7398  0.3612
19902TIP3   OH281196   3.544   4.435   0.298  0.2619  0.1558  0.2155
19902TIP3    H181197   3.559   4.509   0.239  1.1636  0.5262  0.8801
19902TIP3    H281198   3.545   4.358   0.242 -1.2049  0.6761 -0.5695
19903TIP3   OH281199   0.581   1.429  14.978 -0.1169 -0.3182 -0.1136
19903TIP3    H181200   0.546   1.513  14.949  1.3019  0.5248  0.5151
19903TIP3    H281201   0.670   1.448  15.007 -0.7307 -1.4605  2.8943
19904TIP3   OH281202   5.489   6.094  15.799 -0.1075  0.3612 -0.1847
19904TIP3    H181203   5.559   6.084  15.863  0.0355 -0.1243 -0.4105
19904TIP3    H281204   5.529   6.144  15.728  0.0713 -0.0799 -0.3988
19905TIP3   OH281205   3.332   4.080   2.047  0.2036 -0.1248 -0.1985
19905TIP3    H181206   3.285   4.009   2.092 -1.2524 -0.2437 -1.8218
19905TIP3    H281207   3.298   4.079   1.958  0.7428  2.1197 -0.4814
19906TIP3   OH281208   0.342   1.050   4.350  0.1882  0.0966  0.7372
19906TIP3    H181209   0.412   1.109   4.377  0.2555  0.1464  0.4546
19906TIP3    H281210   0.287   1.103   4.293  1.7268 -0.8067 -1.7728
19907TIP3   OH281211   5.135   3.867  11.148 -0.0938 -0.1702 -0.4813
19907TIP3    H181212   5.069   3.920  11.103 -1.6784 -0.0582  1.8185
19907TIP3    H281213   5.123   3.779  11.112 -0.4601  0.1543 -1.1772
19908TIP3   OH281214   5.671   6.510   5.300 -0.5362  0.5386 -0.1324
19908TIP3    H181215   5.666   6.605   5.291 -2.9587  0.3294 -2.4722
19908TIP3    H281216   5.721   6.481   5.224 -0.7520 -0.1231 -0.0281
19909TIP3   OH281217   3.937   1.542  13.149 -0.4773 -0.0763 -0.0000
19909TIP3    H181218   3.889   1.495  13.217 -0.0644  0.0480  0.3808
19909TIP3    H281219   3.917   1.634  13.165  0.7628  0.0692  0.8628
19910TIP3   OH281220   2.099   5.579   3.723 -0.0877 -0.1670  0.2423
19910TIP3    H181221   2.037   5.595   3.652  1.2951 -1.4260 -1.3437
19910TIP3    H281222   2.123   5.667   3.754  0.5008  0.5518 -2.0063
19911TIP3   OH281223   2.189   5.907  11.846  0.0532  0.7626  0.3629
19911TIP3    H181224   2.261   5.905  11.909 -0.3722  1.0905  0.8557
19911TIP3    H281225   2.164   5.999  11.840  0.3678  0.8017 -0.6072
19912TIP3   OH281226   4.508   3.226  16.809 -0.1124  0.6140 -0.5069
19912TIP3    H181227   4.568   3.262  16.744  0.8155 -0.2068 -0.1254
19912TIP3    H281228   4.499   3.295  16.875  0.8484  0.5509 -0.2956
19913TIP3   OH281229   6.142   1.423  13.974  0.2499  0.6674  0.1736
19913TIP3    H181230   6.164   1.331  13.992  0.3602  0.5912 -0.3555
19913TIP3    H281231   6.102   1.454  14.056 -0.0507  0.0686  0.2568
19914TIP3   OH281232   2.431   3.228  15.808 -0.2771  0.2979 -0.6025
19914TIP3    H181233   2.476   3.172  15.872 -1.4102  1.5230  1.4014
19914TIP3    H281234   2.355   3.176  15.782 -0.3268  0.1459 -0.1773
19915TIP3   OH281235   5.244   4.762   4.132 -0.4032  0.0516  0.0142
19915TIP3    H181236   5.228   4.773   4.038 -0.1327  1.4574  0.1183
19915TIP3    H281237   5.185   4.691   4.158  1.0075 -1.8353 -1.6139
19916TIP3   OH281238   5.137   5.386  14.691 -0.5914 -0.4715  0.1317
19916TIP3    H181239   5.218   5.376  14.742 -0.4912 -0.6535 -0.0650
19916TIP3    H281240   5.157   5.457  14.629 -0.5893 -0.5031  0.0961
19917TIP3   OH281241   4.270   3.109  13.996  0.2312  0.0137 -0.0206
19917TIP3    H181242   4.249   3.195  13.958  1.0317 -0.1832 -0.9670
19917TIP3    H281243   4.362   3.095  13.972  0.5328 -0.4812  1.3567
19918TIP3   OH281244   6.041   1.784  16.617 -0.0834 -0.1479 -0.3048
19918TIP3    H181245   6.092   1.726  16.560  1.7841 -0.4638  1.5412
19918TIP3    H281246   6.064   1.872  16.589  0.5836 -0.3043 -0.2755
19919TIP3   OH281247   3.164   1.882  12.429 -0.2495  0.5608 -0.0684
19919TIP3    H181248   3.140   1.802  12.476  0.5139  0.3049 -0.0960
19919TIP3    H281249   3.118   1.952  12.475  1.4562  0.4819  1.9011
19920TIP3   OH281250   5.524   0.395  14.654 -0.1109 -0.5094 -0.2274
19920TIP3    H181251   5.618   0.379  14.661 -0.0594  0.1462  0.7422
19920TIP3    H281252   5.517   0.471  14.597  0.0742  0.6844  1.3034
19921TIP3   OH281253   1.419   3.314  13.991  0.2879  0.1568 -0.4765
19921TIP3    H181254   1.389   3.398  14.025 -1.1257  0.3466 -2.0545
19921TIP3    H281255   1.453   3.334  13.904  0.2356 -0.8436 -0.7443
19922TIP3   OH281256   5.888   0.506  17.289 -0.1805  0.2699  0.3013
19922TIP3    H181257   5.879   0.543  17.377 -0.6104  0.4975  0.1655
19922TIP3    H281258   5.964   0.550  17.251  1.3722 -1.3956  1.3337
19923TIP3   OH281259   4.173   6.232   2.789 -0.4902 -0.3135  0.2887
19923TIP3    H181260   4.202   6.189   2.869 -1.1227  0.1398  0.7759
19923TIP3    H281261   4.190   6.325   2.804 -0.7476 -0.2105 -0.0389
19924TIP3   OH281262   5.329   6.070   0.989  0.3109  0.0582 -0.3375
19924TIP3    H181263   5.383   6.131   0.939  1.1522 -0.3167  0.0998
19924TIP3    H281264   5.269   6.032   0.924  2.2162 -1.3629 -1.3578
19925TIP3   OH281265   4.240   6.489  12.185  0.0931 -0.5660 -0.3271
19925TIP3    H181266   4.309   6.472  12.249  1.0247 -0.2677 -1.2187
19925TIP3    H281267   4.161   6.497  12.237  0.7877 -0.5312  0.7655
19926TIP3   OH281268   3.083   5.583  12.833 -0.1800 -0.5413  0.4953
19926TIP3    H181269   3.067   5.635  12.754  0.5766 -2.5728 -1.0605
19926TIP3    H281270   2.996   5.561  12.865 -0.4928 -0.2051 -0.1014
19927TIP3   OH281271   5.852   4.999  15.502  0.0093  0.1132  0.4416
19927TIP3    H181272   5.803   5.055  15.562  1.3712  0.6669  1.0864
19927TIP3    H281273   5.906   5.059  15.452  0.4309 -0.5176  0.1227
19928TIP3   OH281274   0.693   4.511  13.383 -0.4314  0.1447  0.1209
19928TIP3    H181275   0.749   4.496  13.459 -1.4872  0.3118  0.9616
19928TIP3    H281276   0.715   4.599  13.353 -0.3761  0.2817  0.5618
19929TIP3   OH281277   2.700   3.741   5.545 -0.1846 -0.1162 -0.8422
19929TIP3    H181278   2.786   3.705   5.569 -0.9488 -2.7903 -1.7625
19929TIP3    H281279   2.647   3.730   5.624  0.4686  2.4068  0.0445
19930TIP3   OH281280   5.252   0.903  10.929 -0.2280 -0.5211 -0.5825
19930TIP3    H181281   5.179   0.845  10.950  0.2847 -1.6528 -1.7285
19930TIP3    H281282   5.314   0.846  10.883  0.8210  0.6971 -0.7254
19931TIP3   OH281283   4.498   0.592  17.188 -0.1886  0.6714  0.1963
19931TIP3    H181284   4.484   0.508  17.232 -2.1621  0.2820 -1.0264
19931TIP3    H281285   4.551   0.571  17.112 -0.5212  0.5492 -0.0054
19932TIP3   OH281286   3.711   1.045   2.023 -0.6048  0.2596  0.6040
19932TIP3    H181287   3.619   1.037   2.049 -0.6794 -1.2278 -0.0074
19932TIP3    H281288   3.738   0.955   2.002  0.9032  0.7118  0.4730
19933TIP3   OH281289   3.393   3.957   4.924 -0.2693  0.1814 -0.3713
19933TIP3    H181290   3.317   3.900   4.931 -0.2042 -0.0142 -1.1042
19933TIP3    H281291   3.359   4.046   4.931 -0.2010  0.0571  2.2629
19934TIP3   OH281292   5.120   5.167   2.857  0.0582 -0.6123  0.1586
19934TIP3    H181293   5.036   5.149   2.815  0.3098 -0.9278 -0.2274
19934TIP3    H281294   5.141   5.257   2.832  1.0443 -1.3509 -1.9207
19935TIP3   OH281295   1.930   0.986  15.515  0.3244  0.1259  0.3710
19935TIP3    H181296   1.910   0.902  15.555 -0.2772 -0.2618 -0.6908
19935TIP3    H281297   1.971   0.964  15.431  2.0803  0.9115  0.9800
19936TIP3   OH281298   6.762   4.247   5.967  0.8641 -0.3368 -0.7328
19936TIP3    H181299   6.745   4.210   6.054  1.9257  0.8226 -0.0088
19936TIP3    H281300   6.728   4.336   5.972  2.7315  0.4226 -0.8214
19937TIP3   OH281301   6.418   2.334  13.665  0.7663  0.5203 -0.6926
19937TIP3    H181302   6.344   2.279  13.641 -0.3789  1.3877  0.6475
19937TIP3    H281303   6.417   2.406  13.602  1.8145 -0.5387 -1.9870
19938TIP3   OH281304   1.503   6.439   4.900  0.1638  0.3938  0.0311
19938TIP3    H181305   1.482   6.392   4.819  0.3810 -1.7269  1.1344
19938TIP3    H281306   1.558   6.512   4.872  1.3828 -1.0884 -1.6302
19939TIP3   OH281307   0.553   6.594   3.915  0.4224  0.1715  0.0276
19939TIP3    H181308   0.630   6.594   3.859 -0.5821 -0.0418 -1.4003
19939TIP3    H281309   0.487   6.545   3.866 -0.4514 -0.1427  1.4636
19940TIP3   OH281310   3.794   2.024   0.391 -0.1557  0.0633  0.1675
19940TIP3    H181311   3.869   2.015   0.333  0.6390  0.7139  1.0584
19940TIP3    H281312   3.720   2.045   0.334  0.2820 -0.8177 -0.7435
19941TIP3   OH281313   6.131   2.363  14.373 -0.2709 -0.1546 -0.6163
19941TIP3    H181314   6.169   2.374  14.460 -2.0127 -1.7005  0.4176
19941TIP3    H281315   6.087   2.446  14.356  0.2967  0.2532 -0.1518
19942TIP3   OH281316   1.010   5.834  16.334 -0.4728  0.5833 -0.4469
19942TIP3    H181317   0.974   5.899  16.395  0.1747  0.6581 -0.1350
19942TIP3    H281318   1.088   5.800  16.378 -1.0078 -0.6933 -0.4269
19943TIP3   OH281319   6.594   4.031  10.962 -0.5047  0.4727 -0.2775
19943TIP3    H181320   6.677   4.035  10.913  0.2797  0.5302  0.9977
19943TIP3    H281321   6.585   3.939  10.987  0.2701  0.8022  1.3383
19944TIP3   OH281322   4.898   1.765  11.648 -0.2569  0.0834  0.2060
19944TIP3    H181323   4.910   1.739  11.739  1.4374  0.2793  0.0827
19944TIP3    H281324   4.929   1.690  11.597  0.4116  0.6045 -0.1774
19945TIP3   OH281325   5.957   2.323  17.455  0.0347  0.0730 -0.6565
19945TIP3    H181326   5.892   2.266  17.497 -0.2088  1.0464  0.3436
19945TIP3    H281327   6.005   2.265  17.396  0.0894 -1.2872  0.6424
19946TIP3   OH281328   4.417   2.589   4.145 -0.3170  0.2699  0.0656
19946TIP3    H181329   4.382   2.500   4.149 -1.8849  0.8504  0.0718
19946TIP3    H281330   4.462   2.602   4.228  2.4836 -1.4720 -1.0495
19947TIP3   OH281331   2.495   0.827   4.703  0.5961  0.5623  0.2363
19947TIP3    H181332   2.571   0.770   4.713 -0.5688 -1.0091  0.5763
19947TIP3    H281333   2.428   0.772   4.661 -0.2141  2.0387 -0.5357
19948TIP3   OH281334   2.847   5.435  17.326  0.1523  0.2764  0.4430
19948TIP3    H181335   2.922   5.377  17.335  0.2334  0.1703 -0.7920
19948TIP3    H281336   2.879   5.509  17.275  0.9474  3.1006  4.5187
19949TIP3   OH281337   0.940   0.030  11.691 -0.5073  0.0350  0.4644
19949TIP3    H181338   1.004   0.100  11.674  0.7915 -1.0123  0.9025
19949TIP3    H281339   0.988  -0.035  11.742 -1.8967 -0.8620  0.6807
19950TIP3   OH281340   1.453   3.088  15.561  0.6347  0.3612 -0.3722
19950TIP3    H181341   1.541   3.078  15.597 -0.2223 -1.8979  1.3238
19950TIP3    H281342   1.416   3.162  15.609  0.7739 -0.3010  0.7951
19951TIP3   OH281343   1.509   2.628   0.423 -0.2005 -0.3133  0.3516
19951TIP3    H181344   1.435   2.673   0.383 -1.2785 -1.6402  0.7812
19951TIP3    H281345   1.560   2.698   0.465 -2.8299  0.4195  2.6825
19952TIP3   OH281346   2.798   6.206  13.469  0.0885 -0.1787  0.3892
19952TIP3    H181347   2.713   6.233  13.504 -0.4616 -1.9337  0.5061
19952TIP3    H281348   2.786   6.204  13.374 -0.0526 -0.5917  0.4156
19953TIP3   OH281349   0.035   1.615   3.568 -0.5321  0.4264  0.0549
19953TIP3    H181350   0.069   1.648   3.651 -2.1562  1.3419  0.3913
19953TIP3    H281351   0.112   1.611   3.511  0.5714  0.0291  1.4978
19954TIP3   OH281352   4.555   2.353  14.858 -0.5765  0.6011  0.1314
19954TIP3    H181353   4.572   2.281  14.798 -2.6656  0.1158  0.0485
19954TIP3    H281354   4.569   2.315  14.945  1.8717  1.1429  0.0256
19955TIP3   OH281355   0.705   5.941   0.663 -0.1467 -0.2242 -0.4688
19955TIP3    H181356   0.745   5.954   0.577 -0.2830 -0.5571 -0.5873
19955TIP3    H281357   0.713   6.025   0.707 -0.4800  0.0823 -0.9805
19956TIP3   OH281358   3.547   1.940  14.854  0.0919  0.5136 -0.2511
19956TIP3    H181359   3.638   1.970  14.861  0.1555  0.8627 -2.0780
19956TIP3    H281360   3.503   1.978  14.930  1.2168  1.2830  0.0373
19957TIP3   OH281361   3.004   2.295  13.740 -0.3978  0.3717  0.0733
19957TIP3    H181362   2.961   2.337  13.814 -0.6272 -0.5832  0.4925
19957TIP3    H281363   2.958   2.329  13.663 -1.3027  0.0539  0.4623
19958TIP3   OH281364   5.001   5.470   1.649 -0.1212  0.3403  0.1856
19958TIP3    H181365   4.912   5.442   1.629 -0.0108 -0.4079  0.7331
19958TIP3    H281366   5.057   5.402   1.613  0.2627  0.9888 -0.4848
19959TIP3   OH281367   4.418   3.799   2.151 -0.2817 -0.1272  0.3811
19959TIP3    H181368   4.326   3.821   2.143 -0.5172 -0.9539  0.6886
19959TIP3    H281369   4.419   3.706   2.171  0.6331 -0.2023  0.0731
19960TIP3   OH281370   6.399   2.623   4.309  0.3825  0.1843  0.4319
19960TIP3    H181371   6.407   2.546   4.365 -0.8037 -1.2158 -1.2100
19960TIP3    H281372   6.441   2.597   4.226  2.5122  2.3553  0.7047
19961TIP3   OH281373   6.346   0.006   3.435  0.2522  0.1056  0.3193
19961TIP3    H181374   6.358  -0.012   3.342 -0.2511  1.2874  0.0056
19961TIP3    H281375   6.430   0.042   3.463  0.9161 -1.6350  0.7103
19962TIP3   OH281376   2.317   3.650  11.854  0.6455 -0.3050 -0.5125
19962TIP3    H181377   2.396   3.696  11.884  1.0445 -0.7659 -0.8619
19962TIP3    H281378   2.338   3.557  11.861  0.9547 -0.4473 -2.7304
19963TIP3   OH281379   5.988   1.568  14.483  0.5731 -0.5806  0.1966
19963TIP3    H181380   6.065   1.572  14.539 -0.3442  1.1444  1.4297
19963TIP3    H281381   5.949   1.655  14.490 -2.1782 -1.7513  0.6503
19964TIP3   OH281382   5.313   5.735   3.177  0.6467 -0.3841  0.4979
19964TIP3    H181383   5.383   5.798   3.196 -0.7919  0.7852  2.1487
19964TIP3    H281384   5.333   5.660   3.233  0.5125 -0.0092  1.0474
19965TIP3   OH281385   0.708   5.680   6.149 -0.0314 -0.2235  0.0919
19965TIP3    H181386   0.678   5.687   6.239  1.1882 -0.1081  0.5047
19965TIP3    H281387   0.632   5.648   6.100 -1.2102  1.2931  0.8522
19966TIP3   OH281388   5.233   2.614  15.879 -0.4256 -0.0857 -0.3394
19966TIP3    H181389   5.278   2.638  15.797 -2.0001 -0.6286 -1.4029
19966TIP3    H281390   5.304   2.586  15.937  1.0508  2.7624 -0.5518
19967TIP3   OH281391   1.700   2.146   5.764 -0.5848 -0.0864 -0.5957
19967TIP3    H181392   1.692   2.097   5.683  1.3485  0.3356 -1.0834
19967TIP3    H281393   1.653   2.228   5.747 -1.3361 -0.5543 -0.7990
19968TIP3   OH281394   5.341   2.493   4.587 -0.0134 -0.1698  0.2297
19968TIP3    H181395   5.287   2.570   4.570  0.2310  0.1387  0.7973
19968TIP3    H281396   5.368   2.462   4.501 -1.9154 -0.9438 -0.1411
19969TIP3   OH281397   3.475   3.123   2.734  0.1070 -0.3622  0.7828
19969TIP3    H181398   3.436   3.037   2.715 -1.1554  0.4543 -0.5216
19969TIP3    H281399   3.513   3.113   2.821 -0.0483 -2.2278  0.6900
19970TIP3   OH281400   0.220   2.162  13.857  0.0978 -0.2386 -0.5548
19970TIP3    H181401   0.203   2.151  13.951  0.4550 -1.4090 -0.6133
19970TIP3    H281402   0.234   2.256  13.846 -0.5052 -0.0184  0.4697
19971TIP3   OH281403   3.449   3.055   0.975  1.4955  0.1016  0.2008
19971TIP3    H181404   3.393   2.978   0.966  1.3580  0.3295 -1.1284
19971TIP3    H281405   3.409   3.106   1.045 -0.3488  0.5358 -1.0780
19972TIP3   OH281406   1.488   0.311   0.590 -0.0234  0.2942 -0.1205
19972TIP3    H181407   1.564   0.255   0.585  0.2959  0.4548  1.9597
19972TIP3    H281408   1.517   0.395   0.554  0.5540  0.1247 -0.0558
19973TIP3   OH281409   1.234   4.308   3.827  0.0385  0.1659  0.3337
19973TIP3    H181410   1.246   4.397   3.797 -0.9331  0.9193  2.0099
19973TIP3    H281411   1.321   4.269   3.826  0.3463  0.8349 -1.2032
19974TIP3   OH281412   6.361   6.255  12.561 -0.0007 -0.0653 -0.4967
19974TIP3    H181413   6.341   6.347  12.579 -0.4226 -0.2700  0.1119
19974TIP3    H281414   6.448   6.241  12.597  1.5838  0.9605 -3.5819
19975TIP3   OH281415   5.950   1.712  12.324  0.2376  1.2159  0.1717
19975TIP3    H181416   5.906   1.795  12.306 -1.4792  0.3600  0.1989
19975TIP3    H281417   5.944   1.664  12.241  0.6019  0.8660  0.3479
19976TIP3   OH281418   5.913   4.374   1.325 -0.1576 -0.1677  0.1694
19976TIP3    H181419   5.881   4.288   1.295 -0.1975 -0.3421  0.7004
19976TIP3    H281420   6.008   4.366   1.322 -0.0511 -1.3513  3.1934
19977TIP3   OH281421   0.656   0.370  12.309  0.3410  0.1410  0.4537
19977TIP3    H181422   0.628   0.456  12.279 -1.2171 -0.6979 -0.6126
19977TIP3    H281423   0.703   0.333  12.234 -0.6908 -0.6822  0.2015
19978TIP3   OH281424   0.375   2.521   1.327  0.3415  0.0575  0.4446
19978TIP3    H181425   0.377   2.513   1.232 -1.7543 -1.0017  0.4116
19978TIP3    H281426   0.281   2.524   1.348  0.7757  1.0623  2.4229
19979TIP3   OH281427   2.236   4.509  12.282 -1.2235  0.3535  0.5096
19979TIP3    H181428   2.145   4.490  12.259 -0.9203 -1.4909  0.6458
19979TIP3    H281429   2.240   4.495  12.376 -0.4764 -1.2161  0.2814
19980TIP3   OH281430   5.851   3.207  11.037 -0.2628 -0.1125  0.3005
19980TIP3    H181431   5.930   3.235  10.991 -0.3938 -0.0720  0.0981
19980TIP3    H281432   5.883   3.158  11.112  0.0186  1.7112  1.4230
19981TIP3   OH281433   4.105   5.941   4.344  0.2924 -0.1763 -0.0044
19981TIP3    H181434   4.028   5.968   4.294 -0.8760 -0.3778  1.5987
19981TIP3    H281435   4.145   6.023   4.372 -0.1669 -0.0694  0.3513
19982TIP3   OH281436   1.804   0.576  14.299 -0.5479  0.0819 -0.2805
19982TIP3    H181437   1.870   0.589  14.367 -0.7385 -1.0219  0.1277
19982TIP3    H281438   1.734   0.527  14.342 -1.2953  0.5790 -0.9095
19983TIP3   OH281439   5.461   6.334   4.958  0.3836  0.1295  0.1395
19983TIP3    H181440   5.458   6.300   4.869  0.3755  0.1846  0.1186
19983TIP3    H281441   5.552   6.364   4.970  0.9349 -1.7059  0.8340
19984TIP3   OH281442   3.615   2.807  12.274  0.4102  0.1960 -0.1320
19984TIP3    H181443   3.562   2.856  12.337  1.0987 -0.8291  1.2968
19984TIP3    H281444   3.560   2.803  12.195 -1.2840 -0.0933  1.0043
19985TIP3   OH281445   1.108   0.920   6.557 -0.2526  0.4552 -0.0019
19985TIP3    H181446   1.099   0.828   6.580  0.0883 -0.1046 -1.9781
19985TIP3    H281447   1.028   0.961   6.591  0.2493 -0.2319  2.1973
19986TIP3   OH281448   0.805   5.484   6.815 -0.4360  0.3617  0.6505
19986TIP3    H181449   0.748   5.482   6.738 -0.5779  0.6166  0.7508
19986TIP3    H281450   0.816   5.577   6.835  1.9241  0.4598 -0.7798
19987TIP3   OH281451   3.798   6.177   2.199 -0.1106 -0.6274 -0.5738
19987TIP3    H181452   3.855   6.119   2.250 -0.4676  0.6674  1.4463
19987TIP3    H281453   3.740   6.118   2.151  1.1668 -1.9409 -0.5691
19988TIP3   OH281454   2.652   3.336  15.249  0.2687 -0.1151  0.2219
19988TIP3    H181455   2.598   3.414  15.266  0.2180  0.4590 -2.1876
19988TIP3    H281456   2.603   3.288  15.183  0.1452 -2.4495  1.8866
19989TIP3   OH281457   2.563   1.849  13.468 -0.3218  0.6400 -0.5587
19989TIP3    H181458   2.631   1.827  13.531 -0.3579 -0.8568 -1.0011
19989TIP3    H281459   2.531   1.935  13.496  0.9981  0.8811  0.2861
19990TIP3   OH281460   3.537   4.269  15.048  0.3292  0.3591  0.3133
19990TIP3    H181461   3.620   4.311  15.028  1.4925 -1.4229  1.1169
19990TIP3    H281462   3.499   4.322  15.118  0.5597  1.4104 -0.3332
19991TIP3   OH281463   4.205   6.113   3.950  0.6495  0.7681 -0.0131
19991TIP3    H181464   4.141   6.164   3.900  1.3657  1.1000 -0.5979
19991TIP3    H281465   4.211   6.159   4.034 -0.7289  0.0747  0.5116
19992TIP3   OH281466   0.732   1.305  15.377  0.3711 -0.2132  0.1683
19992TIP3    H181467   0.692   1.219  15.365  2.7832 -1.7854  2.1875
19992TIP3    H281468   0.798   1.310  15.309  1.1570 -0.6315  0.8756
19993TIP3   OH281469   5.769   6.273   4.584 -0.8036 -0.4256  0.7396
19993TIP3    H181470   5.801   6.335   4.650 -0.9704  0.1414  0.2948
19993TIP3    H281471   5.847   6.250   4.533 -0.8083 -0.3079  0.6804
19994TIP3   OH281472   5.713   6.109  14.153 -0.6521 -0.1964  0.4111
19994TIP3    H181473   5.622   6.081  14.166 -0.8840  0.0455 -0.6213
19994TIP3    H281474   5.759   6.029  14.129 -0.5957 -0.3044  0.8567
19995TIP3   OH281475   3.205   4.446  11.841  0.6041  0.3061 -0.4339
19995TIP3    H181476   3.284   4.393  11.847 -0.4638 -1.2780  0.5969
19995TIP3    H281477   3.201   4.492  11.924  0.5760  0.5719 -0.5835
19996TIP3   OH281478   1.533   2.547  14.897  0.4916  0.4339  0.4730
19996TIP3    H181479   1.563   2.621  14.844 -2.7127  1.4454 -0.1520
19996TIP3    H281480   1.590   2.547  14.974  1.7632  2.3576 -0.4088
19997TIP3   OH281481   3.995   4.905   2.469 -0.0651 -0.3911  0.6041
19997TIP3    H181482   4.064   4.948   2.418 -1.4467  1.8238  0.4516
19997TIP3    H281483   3.942   4.860   2.404  0.5970 -1.1831  0.6009
19998TIP3   OH281484   3.807   2.340  16.525 -0.8965 -0.3580 -0.3573
19998TIP3    H181485   3.879   2.388  16.484  0.0275 -0.1197  1.4295
19998TIP3    H281486   3.850   2.272  16.577 -2.0540 -1.2591 -0.5537
19999TIP3   OH281487   6.504   2.217  16.669  0.2074 -0.1240 -0.2966
19999TIP3    H181488   6.553   2.190  16.591  0.2526 -1.6969  0.2288
19999TIP3    H281489   6.479   2.307  16.652  1.1863 -0.0739 -1.6399
20000TIP3   OH281490   2.159   6.510   5.734 -0.2103  0.1728 -0.4284
20000TIP3    H181491   2.133   6.503   5.826  0.1623  1.2400 -0.2302
20000TIP3    H281492   2.087   6.556   5.692  0.5729  1.6823 -0.2008
20001TIP3   OH281493   4.836   0.737  11.360  0.0494 -0.4444 -0.2219
20001TIP3    H181494   4.888   0.661  11.334 -0.2015 -0.9418  0.6907
20001TIP3    H281495   4.900   0.804  11.383  0.2762 -0.1280 -1.6881
20002TIP3   OH281496   4.974   5.701  16.338  0.4628 -0.0150 -0.0901
20002TIP3    H181497   4.928   5.682  16.419  0.8516  1.9038  0.6416
20002TIP3    H281498   5.027   5.779  16.358 -0.9797  1.8099 -2.7139
20003TIP3   OH281499   2.606   1.587   3.881 -0.6578 -0.3619 -0.4773
20003TIP3    H181500   2.556   1.661   3.847  0.8262  0.2376 -1.4340
20003TIP3    H281501   2.546   1.543   3.941 -1.5635  1.6323  0.1522
20004TIP3   OH281502   6.649   6.554   4.636  0.4066 -0.4281  0.3131
20004TIP3    H181503   6.655   6.507   4.720 -0.0596 -0.9482  0.0642
20004TIP3    H281504   6.731   6.534   4.591 -0.5922 -2.7158 -0.6495
20005TIP3   OH281505   1.979   5.889  12.327 -0.8508  0.3856 -0.4089
20005TIP3    H181506   1.922   5.965  12.336  0.9745  1.9617 -1.2339
20005TIP3    H281507   2.031   5.908  12.248 -0.7629 -2.0438 -1.0238
20006TIP3   OH281508   3.086   3.474   5.947 -0.3239 -0.3196  0.3925
20006TIP3    H181509   3.174   3.484   5.912 -0.5446  0.1589 -0.0401
20006TIP3    H281510   3.072   3.379   5.950  0.4141 -0.4209  1.0137
20007TIP3   OH281511   5.660   5.301   1.512  0.0067  0.3918  0.4999
20007TIP3    H181512   5.597   5.347   1.568 -0.1114 -0.2813  0.9407
20007TIP3    H281513   5.632   5.209   1.516 -0.1285  0.3599 -0.8455
20008TIP3   OH281514   6.565   1.810   1.773  0.4872 -0.1120 -0.5391
20008TIP3    H181515   6.597   1.806   1.864 -1.3156  0.5799  0.1809
20008TIP3    H281516   6.582   1.899   1.745 -0.5930  0.2266 -0.1926
20009TIP3   OH281517   1.688   1.180  10.905  0.6857 -0.2792 -0.2243
20009TIP3    H181518   1.606   1.136  10.927 -0.0131  0.8677 -0.4808
20009TIP3    H281519   1.680   1.267  10.944  0.9135  0.5668 -2.0013
20010TIP3   OH281520   1.086   5.941  12.404  0.5776 -0.0273 -0.1135
20010TIP3    H181521   1.137   5.861  12.391 -0.2493 -0.9440  1.8963
20010TIP3    H281522   1.007   5.912  12.449 -0.4972  1.7314 -0.7696
20011TIP3   OH281523   5.654   1.569   2.789  0.3206 -0.0902 -0.6581
20011TIP3    H181524   5.673   1.545   2.880 -1.2492 -0.5065 -0.4090
20011TIP3    H281525   5.622   1.660   2.795 -2.0213 -0.8601 -0.4316
20012TIP3   OH281526   4.329   3.545   2.280 -0.4020  0.3146 -0.0843
20012TIP3    H181527   4.289   3.606   2.342 -0.3836  0.9525 -0.6950
20012TIP3    H281528   4.352   3.469   2.333 -1.1059  0.5307  0.5442
20013TIP3   OH281529   5.766   6.659   1.309 -0.3256  0.1207  0.3210
20013TIP3    H181530   5.694   6.610   1.349  0.7005 -0.2951  1.7556
20013TIP3    H281531   5.842   6.602   1.317  1.1865  2.2637  3.1541
20014TIP3   OH281532   0.719   1.519   1.762 -1.0811 -0.3242  0.1258
20014TIP3    H181533   0.791   1.490   1.819  1.7907 -0.5676 -3.2762
20014TIP3    H281534   0.671   1.439   1.742  0.6324 -1.0748 -1.2189
20015TIP3   OH281535   2.653   5.647   6.977  0.0430 -0.0056  0.6429
20015TIP3    H181536   2.599   5.715   7.019 -1.1924 -0.1483 -0.6320
20015TIP3    H281537   2.599   5.568   6.979  0.4302 -0.3071 -0.1383
20016TIP3   OH281538   5.273   1.672  14.865  0.1816 -0.1902 -0.7228
20016TIP3    H181539   5.276   1.767  14.857  1.5957  0.1001  2.0908
20016TIP3    H281540   5.182   1.649  14.843  0.4311  1.4004 -4.0399
20017TIP3   OH281541   1.811   4.128   2.116  0.0570  0.1478 -0.2135
20017TIP3    H181542   1.734   4.085   2.078  0.3073 -2.1172  1.6188
20017TIP3    H281543   1.777   4.208   2.156 -0.3285  2.2790 -4.2578
20018TIP3   OH281544   6.426   0.610   5.091  0.1569 -0.2994  0.6855
20018TIP3    H181545   6.515   0.581   5.108  1.3705  1.7055 -1.6825
20018TIP3    H281546   6.388   0.541   5.037  0.6238 -0.6945  0.8602
20019TIP3   OH281547   2.945   3.375   2.237 -0.1708  0.0289  0.0337
20019TIP3    H181548   2.981   3.329   2.161 -1.2105  0.2461 -0.6266
20019TIP3    H281549   2.942   3.310   2.306  1.1423 -0.0781  0.0075
20020TIP3   OH281550   2.032   0.276   4.961  0.1591 -0.3224  0.0484
20020TIP3    H181551   1.983   0.199   4.932  1.2053 -1.2831  0.7292
20020TIP3    H281552   2.079   0.246   5.039 -0.4928  1.4091  1.1784
20021TIP3   OH281553   6.204   1.863   2.168  0.2455  0.3075 -0.0519
20021TIP3    H181554   6.264   1.880   2.240  0.8791  1.4726 -0.8289
20021TIP3    H281555   6.121   1.901   2.197 -0.4586 -2.1629  1.4368
20022TIP3   OH281556   4.959   6.744   2.716  0.5941 -0.3481 -0.8500
20022TIP3    H181557   5.035   6.787   2.677  1.2309 -3.4220 -3.4089
20022TIP3    H281558   4.986   6.723   2.805  0.9871  2.4312 -0.2059
20023TIP3   OH281559   4.273   1.319   0.930  0.3716 -0.1118 -0.0380
20023TIP3    H181560   4.356   1.276   0.908  0.1248 -0.5739 -0.0848
20023TIP3    H281561   4.295   1.381   1.000  0.6826 -0.5180  0.2250
20024TIP3   OH281562   1.455   2.833   0.660 -0.0553 -0.1615 -0.5653
20024TIP3    H181563   1.414   2.748   0.643 -1.7987  0.6434 -0.6679
20024TIP3    H281564   1.390   2.881   0.711  0.8836  1.1178 -0.5186
20025TIP3   OH281565   2.216   6.738   0.345 -0.2911  0.4040  0.3987
20025TIP3    H181566   2.181   6.821   0.377  0.7119  0.4189  1.5275
20025TIP3    H281567   2.280   6.712   0.411  0.9935 -0.1845 -1.0204
20026TIP3   OH281568   6.078   1.422   1.530 -0.6759  0.3172 -0.2789
20026TIP3    H181569   5.996   1.470   1.541 -1.3354 -0.8345 -0.0607
20026TIP3    H281570   6.099   1.430   1.437 -1.6573 -0.3392 -0.5701
20027TIP3   OH281571   1.807   6.198   0.075 -0.2308 -0.1000 -0.5949
20027TIP3    H181572   1.884   6.255   0.083 -0.0835 -0.4280  0.5853
20027TIP3    H281573   1.758   6.214   0.156 -1.3235 -0.0255 -1.2529
20028TIP3   OH281574   3.684   4.940  12.636 -0.3673 -0.1107 -0.2105
20028TIP3    H181575   3.660   5.027  12.603 -2.0078  0.0543  1.2509
20028TIP3    H281576   3.653   4.880  12.568  0.8759  0.4253 -1.2835
20029TIP3   OH281577   2.654   4.546  15.267 -0.4043  0.2540  0.2533
20029TIP3    H181578   2.649   4.635  15.302  0.1427  0.1523  0.6111
20029TIP3    H281579   2.638   4.556  15.174 -3.4753  0.3533  0.6850
20030TIP3   OH281580   0.556   1.037   1.232 -0.1469  0.2193  0.1555
20030TIP3    H181581   0.592   0.968   1.289  0.3004  2.3534  2.6357
20030TIP3    H281582   0.632   1.069   1.183 -0.4599 -1.3405 -1.4746
20031TIP3   OH281583   1.552   4.582  10.690  0.0939  0.3442  0.0320
20031TIP3    H181584   1.552   4.574  10.785 -1.1612 -2.8639 -0.1174
20031TIP3    H281585   1.644   4.574  10.666  0.3330  0.2851  0.9282
20032TIP3   OH281586   0.213   1.297  11.256 -0.2443  0.3742 -0.2026
20032TIP3    H181587   0.267   1.372  11.280  1.3092 -0.1067 -1.9927
20032TIP3    H281588   0.265   1.221  11.283 -0.7510 -0.0903 -0.5112
20033TIP3   OH281589   5.840   3.858   5.177 -1.0894 -0.0302 -0.2334
20033TIP3    H181590   5.766   3.816   5.133 -0.8868  1.7062 -2.4195
20033TIP3    H281591   5.799   3.922   5.235 -1.3308 -0.5556  0.1816
20034TIP3   OH281592   3.006   3.775  17.327 -0.1266 -0.5149  0.0099
20034TIP3    H181593   3.095   3.749  17.349 -0.2776 -0.2554  0.9849
20034TIP3    H281594   3.016   3.855  17.275  0.1994  0.0888  0.9649
20035TIP3   OH281595   6.174   6.186  12.349  0.3749  0.5598  0.5354
20035TIP3    H181596   6.171   6.282  12.356  1.4704  0.7014 -0.5484
20035TIP3    H281597   6.266   6.164  12.363  0.4967 -0.1314 -1.1580
20036TIP3   OH281598   2.442   5.843   1.989 -0.5564  0.0498 -0.0337
20036TIP3    H181599   2.393   5.921   2.015 -0.0029 -0.0565  1.4082
20036TIP3    H281600   2.484   5.812   2.070  0.6139 -0.7687 -0.9132
20037TIP3   OH281601   6.737   6.036  17.026 -0.0281 -0.5845 -0.3020
20037TIP3    H181602   6.691   6.048  17.109 -0.2670  0.5936 -0.5846
20037TIP3    H281603   6.672   6.060  16.959  0.1151 -1.6652 -0.8434
20038TIP3   OH281604   4.018   6.645  14.417  0.1491  1.0056 -0.4508
20038TIP3    H181605   3.937   6.679  14.379  0.1972  1.2918 -0.3036
20038TIP3    H281606   3.993   6.619  14.506 -0.3945 -1.3587 -1.2278
20039TIP3   OH281607   2.062   2.676  15.500  0.1611  0.1967 -0.0822
20039TIP3    H181608   2.122   2.604  15.481  0.4473  0.5809 -0.6577
20039TIP3    H281609   2.069   2.689  15.595  1.1037  0.3443 -0.1703
20040TIP3   OH281610   3.018   5.690   0.232  0.7745 -0.0768 -0.1548
20040TIP3    H181611   3.051   5.632   0.164  1.1676 -1.4905  1.1977
20040TIP3    H281612   2.929   5.661   0.248  0.9844 -0.3584  0.5530
20041TIP3   OH281613   2.751   3.031  12.126 -0.3749 -0.2323 -0.5379
20041TIP3    H181614   2.763   2.943  12.163  0.2669  0.0765  0.0188
20041TIP3    H281615   2.660   3.053  12.146 -0.2632 -0.3915  0.1861
20042TIP3   OH281616   4.232   3.282   6.299 -0.0287 -0.0977  0.2339
20042TIP3    H181617   4.161   3.316   6.354  0.1122  0.3489  0.1440
20042TIP3    H281618   4.312   3.319   6.336  0.0041  0.9214 -0.7709
20043TIP3   OH281619   4.480   1.035  16.092  0.0417 -0.5237  0.0575
20043TIP3    H181620   4.531   1.103  16.137 -2.6899  1.0347  1.0707
20043TIP3    H281621   4.466   0.968  16.158 -2.0514  0.7071  0.9733
20044TIP3   OH281622   6.427   5.115  12.388 -0.5568  0.2316 -0.1945
20044TIP3    H181623   6.364   5.136  12.457  0.6165  0.8520  0.7462
20044TIP3    H281624   6.433   5.194  12.336 -1.0024 -0.0371 -0.6596
20045TIP3   OH281625   5.924   2.319   1.147  0.3125  0.6097 -0.0807
20045TIP3    H181626   5.978   2.369   1.086  1.2152 -0.2089  0.0269
20045TIP3    H281627   5.955   2.229   1.139 -1.0551  0.1045 -0.0186
20046TIP3   OH281628   3.654   6.642   4.291 -0.1254  0.4051  0.2671
20046TIP3    H181629   3.638   6.583   4.217  0.5840 -0.7655  1.0144
20046TIP3    H281630   3.646   6.730   4.254  1.3775 -0.1268 -1.4786
20047TIP3   OH281631   3.383   6.402   2.415  0.1455 -0.0215 -0.0790
20047TIP3    H181632   3.392   6.307   2.425 -0.0684  0.1434  2.4563
20047TIP3    H281633   3.337   6.430   2.494  0.0351  2.1903 -0.8471
20048TIP3   OH281634   2.112   3.548  17.321  0.0927 -0.0844  0.2553
20048TIP3    H181635   2.036   3.550  17.263  0.0432 -2.5087  0.1045
20048TIP3    H281636   2.172   3.614  17.286 -1.6376  1.4126 -0.0153
20049TIP3   OH281637   1.040   1.867   4.257 -0.6291 -0.0025 -0.1052
20049TIP3    H181638   1.131   1.839   4.266 -0.8916 -0.5690  0.9858
20049TIP3    H281639   1.025   1.869   4.163  0.8776  1.3352 -0.3517
20050TIP3   OH281640   3.825   6.684  11.909 -0.1773 -0.2209  0.5052
20050TIP3    H181641   3.885   6.655  11.841  0.2742 -1.5664  1.4486
20050TIP3    H281642   3.760   6.614  11.917  0.2565 -0.4816  2.0204
20051TIP3   OH281643   3.694   0.954   3.508  0.2414 -0.3552 -0.1045
20051TIP3    H181644   3.680   0.860   3.497  0.7017 -0.2950 -1.4624
20051TIP3    H281645   3.741   0.962   3.591  1.3547 -1.4548 -0.5954
20052TIP3   OH281646   5.483   0.998  14.729 -0.6628 -0.0964  0.4105
20052TIP3    H181647   5.532   1.068  14.772  0.3937 -0.7394  0.3058
20052TIP3    H281648   5.537   0.920  14.743 -1.1877 -0.6479 -0.5564
20053TIP3   OH281649   6.432   5.242   5.119  0.0182 -0.1113  0.1317
20053TIP3    H181650   6.525   5.229   5.135 -0.1247 -1.0786  0.2406
20053TIP3    H281651   6.413   5.187   5.042 -0.3691  0.4199 -0.1583
20054TIP3   OH281652   5.514   1.953  13.807 -0.0099  0.1743 -0.0545
20054TIP3    H181653   5.498   2.039  13.767 -1.1473 -0.1435 -0.2904
20054TIP3    H281654   5.556   1.974  13.891  0.4647  0.9245 -0.4613
20055TIP3   OH281655   6.276   4.744  13.758 -0.2386 -0.1917  0.3782
20055TIP3    H181656   6.345   4.710  13.701 -1.9881 -1.4651 -1.1355
20055TIP3    H281657   6.274   4.838  13.740  1.3078 -0.0745  0.7332
20056TIP3   OH281658   3.048   3.107  17.205 -0.6292  0.0471 -0.6502
20056TIP3    H181659   3.115   3.043  17.227  1.7651  1.9137 -2.0799
20056TIP3    H281660   3.055   3.174  17.273 -2.2858 -0.5347  0.1480
20057TIP3   OH281661   4.655   1.893   3.989  0.5424  0.8946 -0.2130
20057TIP3    H181662   4.655   1.850   3.903 -0.3554  1.6895 -0.6253
20057TIP3    H281663   4.744   1.878   4.023  0.6879 -0.0491 -0.9513
20058TIP3   OH281664   2.897   1.040  17.399 -0.3415  0.2413 -0.4836
20058TIP3    H181665   2.951   0.990  17.460 -0.3448  0.4233 -0.3303
20058TIP3    H281666   2.950   1.117  17.377 -1.1548  1.2466  0.9061
20059TIP3   OH281667   6.151   6.022  14.223  0.1283 -0.1240  0.4586
20059TIP3    H181668   6.104   5.970  14.289 -0.7774  0.5326  0.3598
20059TIP3    H281669   6.087   6.088  14.195  1.2495  1.0923  0.6371
20060TIP3   OH281670   3.734   1.734   3.079 -0.1357 -0.1499 -0.1769
20060TIP3    H181671   3.822   1.709   3.051 -0.1019 -0.1358 -0.0852
20060TIP3    H281672   3.738   1.829   3.090  0.8078 -0.4636  3.0921
20061TIP3   OH281673   4.101   5.102  13.453  0.5725  0.3303 -0.3767
20061TIP3    H181674   4.149   5.065  13.379 -1.3688 -1.1194 -0.9892
20061TIP3    H281675   4.151   5.074  13.531  1.1552 -0.4375 -1.0103
20062TIP3   OH281676   1.928   0.864  13.399 -0.2751 -0.3294 -0.4149
20062TIP3    H181677   1.943   0.842  13.307 -0.3508 -1.9988 -0.0681
20062TIP3    H281678   1.970   0.792  13.447  2.1189  1.8277  0.9708
20063TIP3   OH281679   1.891   2.789   4.347 -0.4737  0.5982 -0.0145
20063TIP3    H181680   1.924   2.753   4.265 -1.5651  2.9842 -1.6002
20063TIP3    H281681   1.797   2.799   4.333 -0.4405  2.6345  0.8310
20064TIP3   OH281682   0.027   0.296  15.743 -0.3173 -0.7438 -0.5495
20064TIP3    H181683  -0.003   0.240  15.671 -1.5323 -0.1910 -0.4988
20064TIP3    H281684   0.030   0.238  15.819  1.0244 -1.3460 -1.0333
20065TIP3   OH281685   1.935   0.862   3.742 -0.5090 -0.0779  0.3209
20065TIP3    H181686   1.880   0.938   3.725 -1.1081 -0.5093  0.2808
20065TIP3    H281687   1.874   0.792   3.766 -0.3496 -1.4486 -2.7107
20066TIP3   OH281688   5.332   2.840   1.203  0.1416 -0.1173 -0.1170
20066TIP3    H181689   5.253   2.829   1.150  0.2517 -2.3714  0.0972
20066TIP3    H281690   5.357   2.751   1.229  1.5842  0.6984  1.5459
20067TIP3   OH281691   6.151   1.690  13.246  0.1591  0.2860 -0.3379
20067TIP3    H181692   6.200   1.741  13.182 -0.2333  1.7789  0.5182
20067TIP3    H281693   6.207   1.687  13.323 -0.7629  1.4125  0.4050
20068TIP3   OH281694   6.209   0.615   1.061 -0.1179 -0.1331  0.2509
20068TIP3    H181695   6.225   0.685   1.124 -0.0706  0.4155 -0.3515
20068TIP3    H281696   6.174   0.660   0.984  0.9361 -0.6350 -0.5460
20069TIP3   OH281697   2.963   0.819   5.109 -0.0091  0.1347  0.0613
20069TIP3    H181698   2.998   0.771   5.184  1.0581  0.7366 -0.0449
20069TIP3    H281699   2.930   0.751   5.050  1.7944 -0.5082 -0.2465
20070TIP3   OH281700   5.765   3.301  14.488  0.7214  0.3267  0.2200
20070TIP3    H181701   5.859   3.300  14.504  0.4558  0.9122  1.9176
20070TIP3    H281702   5.725   3.283  14.573 -0.6946 -1.7298 -0.7895
20071TIP3   OH281703   0.921   2.386   2.935  0.1217  0.0053  0.1849
20071TIP3    H181704   0.856   2.381   3.005 -0.5952  0.2110 -0.4488
20071TIP3    H281705   0.930   2.296   2.904 -0.6491  0.1247 -0.4160
20072TIP3   OH281706   6.209   0.093   3.010  0.4402  0.3552  0.8083
20072TIP3    H181707   6.205   0.038   2.932  2.3054 -0.5322  1.2829
20072TIP3    H281708   6.118   0.120   3.026 -0.4368 -2.0241  0.1723
20073TIP3   OH281709   6.388   2.926  11.206 -0.3195  0.1058  0.2020
20073TIP3    H181710   6.409   2.857  11.269  1.0512  1.0923  0.8659
20073TIP3    H281711   6.463   2.931  11.148  0.4796  2.2337  1.2937
20074TIP3   OH281712   3.882   3.037  13.866 -0.1327 -0.3538 -0.3175
20074TIP3    H181713   3.849   2.956  13.904  2.0886 -0.7234  1.0394
20074TIP3    H281714   3.957   3.010  13.812  0.5997  0.7445  0.0942
20075TIP3   OH281715   4.214   1.301   3.741  0.1755 -0.3371 -0.1308
20075TIP3    H181716   4.247   1.294   3.830  0.6462 -1.0710 -0.3573
20075TIP3    H281717   4.245   1.386   3.710 -0.9167  0.4115  0.7672
20076TIP3   OH281718   3.974   3.404  17.353 -0.1744  0.5412 -0.1812
20076TIP3    H181719   3.922   3.432  17.428  0.3406 -1.6510  1.0715
20076TIP3    H281720   3.920   3.338  17.310  1.6534 -2.2200  1.4805
20077TIP3   OH281721   1.999   0.222  14.168  0.0179  0.1634 -0.4893
20077TIP3    H181722   1.997   0.147  14.228 -0.4380 -0.0233 -0.7360
20077TIP3    H281723   2.070   0.202  14.108  0.8666  0.6235  0.3279
20078TIP3   OH281724   1.052   0.502   3.258  0.1136 -0.1077 -0.6816
20078TIP3    H181725   1.122   0.505   3.323  0.0348 -0.1252 -0.5945
20078TIP3    H281726   0.989   0.568   3.288 -0.5980 -1.0817  0.0435
20079TIP3   OH281727   4.787   2.510  10.204  0.2163  0.0105  0.1471
20079TIP3    H181728   4.708   2.497  10.257 -0.3148  1.0877 -0.3616
20079TIP3    H281729   4.851   2.450  10.243 -0.7768 -0.7336  0.6953
20080TIP3   OH281730   0.238   4.795   1.622  0.6085 -0.0183  0.3864
20080TIP3    H181731   0.281   4.826   1.543 -0.2200 -1.8303 -0.8349
20080TIP3    H281732   0.188   4.718   1.594 -0.3130 -0.2680  2.5196
20081TIP3   OH281733   2.257   4.259  17.361 -0.6205 -0.1476 -0.1593
20081TIP3    H181734   2.287   4.319  17.430 -0.8626 -1.1510  0.8488
20081TIP3    H281735   2.229   4.181  17.408 -0.1225 -1.1439 -1.4526
20082TIP3   OH281736   3.820   5.127  13.303  0.1974  0.2785  0.4419
20082TIP3    H181737   3.847   5.110  13.393 -1.5513  1.5197  1.2661
20082TIP3    H281738   3.821   5.041  13.261 -0.6100 -0.6143  2.1478
20083TIP3   OH281739   5.337   1.889   0.678  0.2733  0.5271 -0.0281
20083TIP3    H181740   5.266   1.932   0.726  0.1570 -0.7117  0.9606
20083TIP3    H281741   5.416   1.915   0.725  0.3879  1.0938 -0.5225
20084TIP3   OH281742   5.940   2.152  16.218  0.2232 -0.0457  0.1829
20084TIP3    H181743   5.960   2.068  16.177  0.2221  1.2656 -2.7986
20084TIP3    H281744   6.018   2.205  16.204 -0.9571  1.4629 -1.1116
20085TIP3   OH281745   0.434   3.049   4.763 -0.3097 -0.2019 -0.4618
20085TIP3    H181746   0.461   3.119   4.823  0.7071 -1.1607  0.2332
20085TIP3    H281747   0.361   3.087   4.714  0.3883  1.4413 -0.3042
20086TIP3   OH281748   2.706   0.687  11.536 -0.1732  0.2558  0.2731
20086TIP3    H181749   2.728   0.773  11.570  0.7142 -0.2252  0.9637
20086TIP3    H281750   2.680   0.636  11.612 -1.3715  0.0890 -0.2176
20087TIP3   OH281751   5.814   0.381   0.608  0.1979 -0.3110 -0.0855
20087TIP3    H181752   5.754   0.439   0.561  0.2818 -0.5443 -0.4872
20087TIP3    H281753   5.783   0.293   0.588 -0.7656 -0.4064  1.6281
20088TIP3   OH281754   5.960   2.610  11.765 -0.4413 -0.8840  0.1244
20088TIP3    H181755   5.947   2.623  11.859 -2.1915 -0.3366 -0.1640
20088TIP3    H281756   5.922   2.524  11.747 -0.4045 -0.8473 -0.1350
20089TIP3   OH281757   4.477   5.679  14.279 -0.2724  0.3426  0.6343
20089TIP3    H181758   4.477   5.767  14.317 -0.7684  1.0078 -0.8221
20089TIP3    H281759   4.515   5.691  14.192  0.3027 -1.0285  0.6727
20090TIP3   OH281760   1.203   6.425   6.292 -0.0364  0.5540  0.1220
20090TIP3    H181761   1.221   6.494   6.356 -0.5560 -0.9614  2.0024
20090TIP3    H281762   1.110   6.406   6.303 -0.0865  0.1224 -0.9632
20091TIP3   OH281763   2.972   4.008   5.505  0.2232  0.4952  0.0273
20091TIP3    H181764   3.020   4.089   5.485  2.0628 -0.7054 -0.6742
20091TIP3    H281765   2.948   3.973   5.420  3.1803 -1.7891 -0.0157
20092TIP3   OH281766   4.979   3.950  13.602 -0.1841 -0.0778 -0.8050
20092TIP3    H181767   4.913   3.930  13.669 -0.0396 -0.8845 -0.8966
20092TIP3    H281768   5.018   4.032  13.631 -1.6629  0.7604 -1.0786
20093TIP3   OH281769   2.010   3.173  12.868 -0.2418 -0.7417 -0.2770
20093TIP3    H181770   1.918   3.151  12.887 -0.0001 -1.6533 -0.1237
20093TIP3    H281771   2.047   3.092  12.832  0.9178 -0.8591  1.1036
20094TIP3   OH281772   2.792   4.486   2.451  0.0332  0.5323 -0.2201
20094TIP3    H181773   2.789   4.421   2.521 -2.1405  0.9883  0.1930
20094TIP3    H281774   2.877   4.528   2.460  0.0914  0.0784  1.6956
20095TIP3   OH281775   5.546   4.724  13.863 -0.0197  0.4213  0.4210
20095TIP3    H181776   5.600   4.800  13.882 -0.3806  0.7615  0.0791
20095TIP3    H281777   5.594   4.677  13.794  0.2969  0.2298  0.7642
20096TIP3   OH281778   1.496   1.787  10.834  0.3644  0.5448  0.0572
20096TIP3    H181779   1.545   1.822  10.760  0.1473 -1.3864 -1.0859
20096TIP3    H281780   1.560   1.737  10.885  0.2134  0.6254  0.3300
20097TIP3   OH281781   6.522   5.970   3.185  0.0979  0.1765 -0.0900
20097TIP3    H181782   6.608   5.955   3.148  0.3590 -0.1563  0.6305
20097TIP3    H281783   6.539   5.999   3.275 -0.5527 -1.4429  0.5886
20098TIP3   OH281784   5.976   1.874  15.821 -0.1806 -0.6879 -0.4462
20098TIP3    H181785   5.939   1.860  15.734 -0.7695 -2.5991  0.0545
20098TIP3    H281786   6.035   1.800  15.834  0.8907  0.2645  0.2943
20099TIP3   OH281787   0.069   5.942   5.589 -0.2386  0.0744 -0.2940
20099TIP3    H181788   0.021   5.865   5.558  1.6416 -0.3963 -2.3114
20099TIP3    H281789   0.004   6.012   5.590 -1.8623 -1.3595  1.0121
20100TIP3   OH281790   2.384   0.648  13.475  0.2876 -0.1652 -0.0756
20100TIP3    H181791   2.356   0.733  13.510  1.8443  0.1174  0.5694
20100TIP3    H281792   2.435   0.608  13.546  0.7372 -1.0345 -0.8595
20101TIP3   OH281793   2.938   2.186   0.508 -0.1332 -0.5611 -0.9782
20101TIP3    H181794   2.872   2.123   0.536 -0.8534  1.2035  1.6446
20101TIP3    H281795   2.892   2.270   0.508  2.1837  0.8773  1.8335
20102TIP3   OH281796   3.576   3.397   8.362  0.0625 -0.4211  0.3663
20102TIP3    H181797   3.509   3.331   8.346  0.8500 -1.1772  0.0988
20102TIP3    H281798   3.544   3.448   8.436  0.0582 -1.9482  1.4401
20103TIP3   OH281799   6.104   2.817  14.384  0.9140  0.4578  0.2819
20103TIP3    H181800   6.039   2.878  14.417 -0.7845 -0.5929 -0.9435
20103TIP3    H281801   6.131   2.766  14.461 -1.2942 -0.4654  0.5114
20104TIP3   OH281802   3.313   5.544  16.748  0.3680  0.9497  0.2266
20104TIP3    H181803   3.299   5.460  16.791 -0.0198  0.3077 -1.0994
20104TIP3    H281804   3.401   5.570  16.774  0.9014 -0.3815 -0.1938
20105TIP3   OH281805   4.069   2.774   4.323  0.0613 -0.3936 -0.6574
20105TIP3    H181806   4.131   2.720   4.372 -0.6118 -1.7275 -1.2183
20105TIP3    H281807   3.984   2.731   4.335 -0.4938  0.5239 -1.1548
20106TIP3   OH281808   2.479   4.129  14.405  0.1531 -0.4613  0.1254
20106TIP3    H181809   2.402   4.151  14.353  0.3711 -0.5975 -0.2552
20106TIP3    H281810   2.551   4.176  14.364  0.2418 -0.1634  0.6073
20107TIP3   OH281811   6.328   3.550   1.050 -0.1389 -0.2704  0.4078
20107TIP3    H181812   6.253   3.585   1.001  0.3644  0.1949 -0.0444
20107TIP3    H281813   6.299   3.549   1.141 -0.6536  0.0152  0.2532
20108TIP3   OH281814   4.456   0.516   0.444 -0.1455  0.5541  0.9586
20108TIP3    H181815   4.503   0.546   0.521  0.2738 -0.8678  1.2892
20108TIP3    H281816   4.371   0.487   0.477  0.2731 -0.6694  1.0214
20109TIP3   OH281817   3.649   5.873  12.206 -0.0268  1.1347 -0.3414
20109TIP3    H181818   3.697   5.898  12.127  0.0499  0.3258 -0.5595
20109TIP3    H281819   3.561   5.909  12.193 -0.3937 -0.0331 -1.3892
20110TIP3   OH281820   2.011   5.392   2.708 -0.0176  0.5707 -0.1227
20110TIP3    H181821   1.978   5.355   2.790  0.8783 -1.3818 -0.5924
20110TIP3    H281822   2.106   5.380   2.713  0.0125 -0.0460 -1.6477
20111TIP3   OH281823   1.280   6.570   2.789  0.1388  0.4560 -0.2297
20111TIP3    H181824   1.257   6.650   2.743  2.0923 -0.4363 -2.9870
20111TIP3    H281825   1.375   6.575   2.802  0.0223 -0.5486  1.3294
20112TIP3   OH281826   5.557   0.352  15.519  0.3709 -0.3664 -0.2485
20112TIP3    H181827   5.607   0.273  15.500 -0.1897 -0.5156 -1.1972
20112TIP3    H281828   5.509   0.332  15.600  1.3978 -0.4153  0.3622
20113TIP3   OH281829   3.495   0.130  16.739  0.2529  0.4093  0.0615
20113TIP3    H181830   3.532   0.142  16.826  0.8859  2.9052 -0.4693
20113TIP3    H281831   3.546   0.058  16.701  1.1482  0.4603  1.1127
20114TIP3   OH281832   5.224   3.750   4.561 -0.3905  0.3601 -0.3823
20114TIP3    H181833   5.171   3.761   4.482 -0.7654 -0.6587 -0.2933
20114TIP3    H281834   5.173   3.691   4.616  0.7649 -0.5425 -0.2292
20115TIP3   OH281835   2.625   3.681   4.169 -0.3022 -0.7641  0.0934
20115TIP3    H181836   2.572   3.705   4.245  0.7731  1.3628  0.2513
20115TIP3    H281837   2.587   3.599   4.138 -1.0738 -1.4559  2.6221
20116TIP3   OH281838   6.091   1.876  11.942  0.1461  0.0179 -0.0996
20116TIP3    H181839   6.123   1.906  12.027 -1.8320 -1.3792  1.1957
20116TIP3    H281840   6.020   1.937  11.920 -1.1641 -1.1958  0.6055
20117TIP3   OH281841   5.967   4.786  17.372  0.3968 -0.1763 -0.7358
20117TIP3    H181842   6.015   4.773  17.454 -0.0252 -0.9223 -0.5972
20117TIP3    H281843   5.945   4.698  17.343  0.3633  0.0947 -1.5475
20118TIP3   OH281844   1.357   2.558   4.706 -0.1595  0.6380  0.7601
20118TIP3    H181845   1.366   2.653   4.694  1.1062  0.5582  0.9758
20118TIP3    H281846   1.445   2.523   4.693 -0.8057 -0.6480 -0.4156
20119TIP3   OH281847   6.076   5.962   4.391  0.2001  0.9375 -0.0379
20119TIP3    H181848   6.157   5.928   4.352  0.9866  2.6297  0.0611
20119TIP3    H281849   6.053   5.897   4.458  0.1788 -0.7411 -1.5933
20120TIP3   OH281850   0.816   4.775   1.899  0.5512  0.2972  0.2784
20120TIP3    H181851   0.790   4.687   1.873  1.1164  0.7940 -2.2323
20120TIP3    H281852   0.911   4.776   1.890  0.5240  1.2265  0.0117
20121TIP3   OH281853   3.481   2.725   2.068 -0.0064  0.4152  0.1186
20121TIP3    H181854   3.467   2.804   2.119 -1.3908 -0.3968  1.0715
20121TIP3    H281855   3.533   2.669   2.125  0.2312  0.3024 -0.2065
20122TIP3   OH281856   3.135   5.546  14.195  0.2436  0.3978  0.3807
20122TIP3    H181857   3.146   5.634  14.160 -1.1376 -0.2383 -1.7996
20122TIP3    H281858   3.041   5.529  14.190  0.1988 -0.5087  2.6764
20123TIP3   OH281859   0.110   4.149  16.535 -0.2903  0.2868 -0.3407
20123TIP3    H181860   0.043   4.209  16.502 -1.3903 -0.1208  1.0421
20123TIP3    H281861   0.188   4.203  16.546 -0.5700  0.9168 -1.3473
20124TIP3   OH281862   2.153   4.461   3.642  0.4333 -0.8932  0.2702
20124TIP3    H181863   2.179   4.371   3.621 -0.7533 -1.9685  2.8482
20124TIP3    H281864   2.226   4.497   3.692  0.7185 -0.5928 -0.3632
20125TIP3   OH281865   3.673   3.495   0.392  0.0251  0.0944 -0.1690
20125TIP3    H181866   3.731   3.431   0.350  0.7441 -0.5010  1.6016
20125TIP3    H281867   3.719   3.518   0.473 -1.6133  0.6087  0.6469
20126TIP3   OH281868   3.453   6.477  15.755 -0.0772 -0.3330  0.9823
20126TIP3    H181869   3.436   6.382  15.753 -0.1310 -0.3479  1.7846
20126TIP3    H281870   3.435   6.502  15.846  1.0072  0.2429  1.0507
20127TIP3   OH281871   4.151   2.612  12.711 -0.3989  0.2582  0.1546
20127TIP3    H181872   4.131   2.530  12.667 -0.7907 -0.2554  1.2480
20127TIP3    H281873   4.084   2.673  12.680 -1.0890 -0.2868  0.5515
20128TIP3   OH281874   6.587   5.238   2.693  0.3662  0.6227  0.1481
20128TIP3    H181875   6.532   5.313   2.718  0.3707  0.7706 -0.2893
20128TIP3    H281876   6.675   5.274   2.690  0.2700  0.7919 -0.8495
20129TIP3   OH281877   0.644   5.184   1.086  0.1200 -0.1237 -0.0836
20129TIP3    H181878   0.576   5.250   1.101  0.7596  0.6125 -0.3002
20129TIP3    H281879   0.688   5.214   1.006 -0.1213 -1.2877 -0.6646
20130TIP3   OH281880   5.935   1.455   2.235 -0.5071  0.1496  0.6849
20130TIP3    H181881   5.982   1.372   2.229  0.4030  0.6182  1.1411
20130TIP3    H281882   5.858   1.443   2.179 -1.7857 -1.8885  2.7107
20131TIP3   OH281883   3.220   4.539   1.860  0.5975  0.0746 -0.3161
20131TIP3    H181884   3.156   4.566   1.795 -0.9402 -0.5948  0.8305
20131TIP3    H281885   3.247   4.451   1.832 -1.1147 -0.7990  0.6267
20132TIP3   OH281886   6.008   2.866   3.484 -0.4038 -0.1696 -0.2294
20132TIP3    H181887   5.974   2.857   3.573  0.6626  0.0431  0.2154
20132TIP3    H281888   5.946   2.924   3.441  0.9173  2.7162  1.4580
20133TIP3   OH281889   1.283   2.767   5.390 -0.3135 -0.0117 -0.0965
20133TIP3    H181890   1.319   2.678   5.384  0.0138  0.1845 -1.4830
20133TIP3    H281891   1.299   2.794   5.481 -0.4882 -1.3886  0.3634
20134TIP3   OH281892   5.028   5.520   1.907 -0.9248 -0.1571 -0.3896
20134TIP3    H181893   5.000   5.524   1.815  0.2171 -0.7117 -0.7846
20134TIP3    H281894   5.081   5.440   1.912  0.5797  0.8302  0.2897
20135TIP3   OH281895   6.694   4.715  12.265  0.3086  0.1948 -0.1690
20135TIP3    H181896   6.602   4.742  12.264  0.8347  2.0791 -0.2422
20135TIP3    H281897   6.694   4.635  12.318 -0.7934  2.5017  3.7213
20136TIP3   OH281898   0.119   6.147   3.177  0.2996  0.3068 -0.4140
20136TIP3    H181899   0.187   6.151   3.110  0.1582 -0.1287 -0.5903
20136TIP3    H281900   0.063   6.074   3.150  0.3107  0.0438  0.2468
20137TIP3   OH281901   1.088   1.174   0.776 -0.6064  0.0266 -0.3642
20137TIP3    H181902   1.005   1.140   0.810  0.0241 -0.6520  0.5168
20137TIP3    H281903   1.142   1.097   0.764  0.4289  0.6030  0.5029
20138TIP3   OH281904   1.128   3.824   0.303  0.2350 -0.7116  0.1034
20138TIP3    H181905   1.101   3.733   0.315  1.7566 -1.1894  0.0550
20138TIP3    H281906   1.046   3.874   0.307 -0.4625 -1.9137  1.6615
20139TIP3   OH281907   4.073   0.759   5.661 -0.2393  0.1876 -0.3767
20139TIP3    H181908   4.120   0.701   5.600 -3.0124 -1.6026 -0.9827
20139TIP3    H281909   4.001   0.796   5.610 -1.2426  0.5197  1.1967
20140TIP3   OH281910   0.696   0.106  12.426  0.9345  0.6239 -0.0209
20140TIP3    H181911   0.678   0.191  12.386 -0.5676  0.8244  0.9836
20140TIP3    H281912   0.718   0.049  12.353 -0.1556  1.3530 -0.9526
20141TIP3   OH281913   4.609   4.576  15.486  0.5749 -0.3100 -0.0333
20141TIP3    H181914   4.600   4.658  15.437  2.2787  1.2514  2.0332
20141TIP3    H281915   4.606   4.507  15.420  0.5802  1.5188 -2.0414
20142TIP3   OH281916   1.812   5.320  13.424 -0.0828  0.7136  0.5168
20142TIP3    H181917   1.745   5.276  13.477 -0.1628  0.6467  0.3622
20142TIP3    H281918   1.834   5.399  13.473  0.9899 -0.1261  1.4315
20143TIP3   OH281919   4.573   6.770   1.029  0.2113  0.4608  0.4764
20143TIP3    H181920   4.611   6.858   1.036 -0.1407  0.5355  1.8214
20143TIP3    H281921   4.516   6.763   1.106 -1.2870 -0.2302 -0.6548
20144TIP3   OH281922   2.184   3.004   2.395  0.3176  0.4681 -0.1936
20144TIP3    H181923   2.202   3.066   2.324 -0.4662 -1.6621 -2.3908
20144TIP3    H281924   2.100   3.033   2.431  0.0048  0.7586 -1.1127
20145TIP3   OH281925   6.066   0.149   2.633 -0.6812  0.3682 -0.6565
20145TIP3    H181926   6.060   0.234   2.589 -2.1820  1.2080  0.9917
20145TIP3    H281927   6.142   0.157   2.690 -0.5011  0.4099 -0.9051
20146TIP3   OH281928   4.403   3.247   0.765 -0.7713  0.0305 -0.4290
20146TIP3    H181929   4.496   3.270   0.771 -1.0083  0.8689  0.2673
20146TIP3    H281930   4.402   3.164   0.718  0.3231  0.0717 -0.5555
20147TIP3   OH281931   6.324   0.928  16.173 -0.1356  0.2283  0.0829
20147TIP3    H181932   6.330   1.019  16.147  0.8495 -0.7404 -3.7312
20147TIP3    H281933   6.411   0.906  16.207 -0.1489  0.5199  0.3071
20148TIP3   OH281934   3.454   2.729  12.066 -0.3921 -0.2634 -0.4737
20148TIP3    H181935   3.525   2.727  12.003 -1.8760 -1.2934 -2.2044
20148TIP3    H281936   3.387   2.785  12.025 -0.3644  1.2892  1.4231
20149TIP3   OH281937   4.940   6.754   3.337 -0.4927 -0.0539 -0.4137
20149TIP3    H181938   4.972   6.686   3.395 -2.1878 -0.6402 -0.1136
20149TIP3    H281939   5.018   6.789   3.295  0.5915 -0.8141  0.9099
20150TIP3   OH281940   0.215   1.855   0.820 -0.2911 -0.6489 -0.5666
20150TIP3    H181941   0.276   1.791   0.784  0.4533 -0.0388 -0.4346
20150TIP3    H281942   0.139   1.804   0.847  0.1339 -1.4201 -0.7971
20151TIP3   OH281943   6.762   3.038   1.843  0.1936 -0.2070  0.1078
20151TIP3    H181944   6.793   3.112   1.790 -0.6382  1.2365  1.5394
20151TIP3    H281945   6.840   3.008   1.890  0.4140  0.1879 -0.0006
20152TIP3   OH281946   4.321   4.705   5.803 -0.1815 -0.5903  0.1602
20152TIP3    H181947   4.347   4.617   5.774  0.5528 -0.4806  0.4651
20152TIP3    H281948   4.377   4.764   5.753  0.5730 -0.3709  1.2209
20153TIP3   OH281949   2.802   1.175   0.685  0.2281  0.2001  0.3914
20153TIP3    H181950   2.895   1.192   0.669  0.3791 -1.4604 -0.7727
20153TIP3    H281951   2.790   1.083   0.661 -2.1689  0.9394 -1.7025
20154TIP3   OH281952   4.068   6.689  13.402  0.0811  0.7173 -0.5269
20154TIP3    H181953   4.056   6.780  13.428  1.0902  1.0790 -1.2708
20154TIP3    H281954   4.001   6.675  13.334 -2.2237 -0.0883  1.7402
20155TIP3   OH281955   3.889   6.590   1.302  0.4426 -0.2606  0.2976
20155TIP3    H181956   3.839   6.649   1.358  0.0812 -0.5791  0.3169
20155TIP3    H281957   3.899   6.511   1.355  1.3332 -0.0475  0.4560
20156TIP3   OH281958   1.822   1.420  16.934  0.3881 -0.0572 -0.4873
20156TIP3    H181959   1.770   1.500  16.922  0.8498  0.1360 -1.3241
20156TIP3    H281960   1.835   1.413  17.028 -0.4654  0.3309 -0.3316
20157TIP3   OH281961   6.596   1.913   5.657  0.3607 -0.3792 -0.0245
20157TIP3    H181962   6.645   1.878   5.731 -0.0402 -0.7904  0.0478
20157TIP3    H281963   6.507   1.880   5.669  0.2686 -0.3671 -0.6349
20158TIP3   OH281964   5.912   3.245  16.540  0.8790 -0.0732  0.4432
20158TIP3    H181965   5.998   3.205  16.533  0.7835 -0.3481  0.7930
20158TIP3    H281966   5.855   3.187  16.488  0.6246 -0.7576  1.4464
20159TIP3   OH281967   1.988   5.695   2.438  0.7766 -0.4531 -0.5527
20159TIP3    H181968   1.945   5.654   2.363 -0.8268  0.3576 -0.1319
20159TIP3    H281969   1.963   5.639   2.512  1.3645 -0.5847 -0.4530
20160TIP3   OH281970   5.364   6.569   3.749  0.3737 -0.6210  0.3907
20160TIP3    H181971   5.454   6.557   3.779  0.4941 -0.8204 -0.0486
20160TIP3    H281972   5.334   6.480   3.727  0.3171 -0.4665 -0.1691
20161TIP3   OH281973   5.734   0.482  11.581 -0.1184  0.4933 -0.1191
20161TIP3    H181974   5.788   0.413  11.542 -0.6977  0.7409 -1.4175
20161TIP3    H281975   5.791   0.522  11.647  0.5871 -0.5399 -0.0778
20162TIP3   OH281976   1.013   5.708   1.566 -0.3528  0.3407  0.0605
20162TIP3    H181977   0.954   5.637   1.543 -0.2673  0.3508 -0.1878
20162TIP3    H281978   0.957   5.786   1.571 -0.5699  0.1433  1.0107
20163TIP3   OH281979   5.212   0.974  10.592 -0.2369 -0.1229  0.0677
20163TIP3    H181980   5.116   0.978  10.587 -0.1712  0.4360 -1.0122
20163TIP3    H281981   5.232   1.009  10.679 -1.0388 -0.8768  0.5735
20164TIP3   OH281982   3.952   2.921   4.091 -0.0079  0.2047  0.5003
20164TIP3    H181983   4.006   2.897   4.167  1.1383 -1.6378 -0.7923
20164TIP3    H281984   3.862   2.910   4.121  0.4243 -2.2275  1.1470
20165TIP3   OH281985   1.892   0.313   5.955  0.6315 -0.6231  0.4892
20165TIP3    H181986   1.846   0.397   5.950 -0.6265 -1.3422 -0.5057
20165TIP3    H281987   1.984   0.337   5.960  0.2789  0.8197  0.5894
20166TIP3   OH281988   1.065   0.768   3.882 -0.2610  0.2614  0.5612
20166TIP3    H181989   1.071   0.858   3.850  0.0695  1.1233  2.8640
20166TIP3    H281990   0.993   0.769   3.945  0.5512 -0.7553  1.5448
20167TIP3   OH281991   4.578   1.871   3.496  0.3247  0.1030  0.0279
20167TIP3    H181992   4.487   1.891   3.517  0.1278  0.1124 -0.7895
20167TIP3    H281993   4.626   1.951   3.520  0.1547  0.0191  0.6585
20168TIP3   OH281994   2.804   3.709   1.300  0.2286 -0.1228  0.2450
20168TIP3    H181995   2.778   3.794   1.264 -0.0453  0.0460  0.8415
20168TIP3    H281996   2.900   3.713   1.302  0.2064  0.2946  0.5675
20169TIP3   OH281997   5.181   4.499   3.641  0.4676  0.5645  0.2096
20169TIP3    H181998   5.215   4.479   3.728  1.0696 -0.3439 -0.2183
20169TIP3    H281999   5.088   4.478   3.646  0.2442  1.6425  0.9580
20170TIP3   OH282000   4.088   2.493  14.065  0.2942  0.4130 -0.0747
20170TIP3    H182001   4.035   2.552  14.012 -1.4235 -1.4806 -0.5958
20170TIP3    H282002   4.029   2.462  14.133  1.2434 -0.4612  0.3781
20171TIP3   OH282003   1.616   0.688  12.910 -0.5833 -0.2586  0.2643
20171TIP3    H182004   1.584   0.738  12.835 -1.0745 -1.0202 -0.0401
20171TIP3    H282005   1.552   0.705  12.979  0.5491  1.5058  0.9768
20172TIP3   OH282006   0.207   0.833   0.768  0.3993 -0.0414  0.4065
20172TIP3    H182007   0.155   0.767   0.814  2.3212 -0.7543  1.6757
20172TIP3    H282008   0.275   0.858   0.830  1.0046  1.5606 -0.8378
20173TIP3   OH282009   2.671   1.192   0.937  0.0358 -0.2561 -0.0732
20173TIP3    H182010   2.632   1.107   0.917  2.4345 -1.5718  0.4401
20173TIP3    H282011   2.723   1.214   0.859 -1.2698  1.2529 -0.5831
20174TIP3   OH282012   0.534   5.581   2.820  0.0766 -0.3119  0.8495
20174TIP3    H182013   0.446   5.547   2.801  0.4776  0.1099 -2.3496
20174TIP3    H282014   0.593   5.521   2.774  1.2125  1.0583  0.4526
20175TIP3   OH282015   4.604   0.342   3.684  0.6495 -0.5452  0.0524
20175TIP3    H182016   4.552   0.415   3.718  2.4748  1.6766 -1.6085
20175TIP3    H282017   4.558   0.313   3.606  0.4721 -0.4661  0.1271
20176TIP3   OH282018   5.510   1.871  17.273  0.5991  0.3170  1.0302
20176TIP3    H182019   5.416   1.854  17.277  0.2401  0.9269 -2.1932
20176TIP3    H282020   5.548   1.785  17.255  0.2785  0.4951 -0.6984
20177TIP3   OH282021   5.115   5.110   3.553  0.1241  0.5917 -0.0864
20177TIP3    H182022   5.144   5.023   3.580  1.5765  0.5314 -1.6319
20177TIP3    H282023   5.096   5.156   3.634  0.4275 -0.8005  0.8069
20178TIP3   OH282024   2.186   0.700  15.173  0.0972  0.2451 -0.1904
20178TIP3    H182025   2.274   0.662  15.162  0.3839  0.8380  0.0271
20178TIP3    H282026   2.136   0.630  15.215  0.4375 -0.1403 -0.4184
20179TIP3   OH282027   0.141   3.208  13.678  0.5746  0.0681 -0.4683
20179TIP3    H182028   0.180   3.294  13.694  1.2135 -0.0290 -1.4368
20179TIP3    H282029   0.065   3.205  13.736  1.0266  0.9502  0.1828
20180TIP3   OH282030   3.305   1.069   5.451 -0.1190 -0.6249  0.0730
20180TIP3    H182031   3.228   1.113   5.486 -0.2575 -0.5940 -0.2675
20180TIP3    H282032   3.338   1.017   5.524  1.0973  1.4171  1.0622
20181TIP3   OH282033   5.474   3.599   5.186  0.4625  0.0457  0.3707
20181TIP3    H182034   5.507   3.510   5.204 -0.8339 -0.0738  2.5450
20181TIP3    H282035   5.534   3.657   5.232  0.1483  0.1409  0.6652
20182TIP3   OH282036   1.882   6.273   6.322  0.4240  0.0312 -0.2239
20182TIP3    H182037   1.844   6.318   6.398  0.2863 -0.1884 -0.1619
20182TIP3    H282038   1.891   6.182   6.350 -2.4126 -0.7179 -1.4457
20183TIP3   OH282039   5.065   2.894   0.596  0.3741 -0.0108 -0.3946
20183TIP3    H182040   5.132   2.957   0.569 -0.1963 -0.2756 -2.6246
20183TIP3    H282041   5.068   2.826   0.529 -1.9132 -0.1750 -0.4133
20184TIP3   OH282042   0.217   6.565   4.884  0.1977 -0.4577  0.2886
20184TIP3    H182043   0.242   6.479   4.849 -0.8294  0.0074 -1.7851
20184TIP3    H282044   0.285   6.624   4.852 -0.1719 -0.2016 -0.0429
20185TIP3   OH282045   2.730   5.145  12.558  0.0902 -0.0782 -0.3782
20185TIP3    H182046   2.781   5.092  12.496  0.6988 -0.2737  0.2702
20185TIP3    H282047   2.791   5.212  12.589 -0.1572 -0.0709  0.1140
20186TIP3   OH282048   1.514   3.247  15.085 -0.2806 -0.2989 -0.4153
20186TIP3    H182049   1.493   3.155  15.100  0.0885 -0.4051 -0.5466
20186TIP3    H282050   1.463   3.271  15.008  2.3353 -1.3914 -2.6219
20187TIP3   OH282051   0.745   2.555  12.712  0.4821  0.4164 -0.0463
20187TIP3    H182052   0.732   2.650  12.714 -0.2341  0.4001 -1.8472
20187TIP3    H282053   0.656   2.519  12.719  0.6513 -0.0797 -0.4097
20188TIP3   OH282054   5.343   3.792  11.313 -0.3301 -0.4016 -0.4661
20188TIP3    H182055   5.279   3.859  11.289 -1.8038 -0.6455  2.4376
20188TIP3    H282056   5.405   3.837  11.371  0.6748 -0.8023 -1.1819
20189TIP3   OH282057   2.794   6.289   0.138 -0.4270  0.1676 -0.3822
20189TIP3    H182058   2.822   6.265   0.227  0.9428  0.4338 -0.7246
20189TIP3    H282059   2.876   6.300   0.089 -1.1534  0.5845 -1.5373
20190TIP3   OH282060   2.080   0.563   2.390 -0.0074 -0.4004  0.2954
20190TIP3    H182061   2.059   0.645   2.345  3.5531 -0.9009 -2.7876
20190TIP3    H282062   2.130   0.590   2.467 -0.9160  0.3407  0.6435
20191TIP3   OH282063   3.472   4.579  11.708 -0.4304 -0.8674  0.3416
20191TIP3    H182064   3.432   4.495  11.732 -0.3056 -1.1307 -0.3555
20191TIP3    H282065   3.432   4.602  11.625 -0.5522 -0.1683  0.5909
20192TIP3   OH282066   1.240   0.159   3.469 -0.3511 -0.2897 -0.0236
20192TIP3    H182067   1.166   0.150   3.529  0.3352 -1.1069  0.7268
20192TIP3    H282068   1.235   0.249   3.439 -2.1624 -0.5620 -0.6721
20193TIP3   OH282069   2.020   1.445  11.922 -0.2614 -0.6652 -0.8231
20193TIP3    H182070   2.104   1.398  11.917  0.2719  0.3967 -3.2221
20193TIP3    H282071   1.999   1.467  11.831 -2.5587  0.1766 -0.1696
20194TIP3   OH282072   0.229   1.135  14.736 -0.8669  0.6091 -0.7258
20194TIP3    H182073   0.175   1.057  14.753 -1.3842  0.9940 -0.5925
20194TIP3    H282074   0.189   1.204  14.789 -0.5586  1.0273 -1.0320
20195TIP3   OH282075   2.805   0.823   5.633  0.6270  0.2033  0.3251
20195TIP3    H182076   2.746   0.802   5.561  0.5655  2.0640 -0.2204
20195TIP3    H282077   2.761   0.788   5.711 -0.5881  0.4238 -0.2398
20196TIP3   OH282078   2.738   3.342  13.514 -0.1744  0.0751  0.2238
20196TIP3    H182079   2.743   3.249  13.538  0.9011 -0.2715 -1.2017
20196TIP3    H282080   2.646   3.356  13.492 -0.5870 -0.3326  1.5705
20197TIP3   OH282081   5.120   2.500  13.122 -0.8278 -0.3025 -0.6248
20197TIP3    H182082   5.173   2.541  13.190  0.3235 -1.6700 -0.6524
20197TIP3    H282083   5.057   2.568  13.096  0.3017  1.0590  0.0621
20198TIP3   OH282084   3.463   2.613  13.401  0.0489  0.2574  0.3940
20198TIP3    H182085   3.371   2.589  13.396  0.6173 -1.8765 -2.0376
20198TIP3    H282086   3.510   2.529  13.394  2.1590  1.4537 -0.9689
20199TIP3   OH282087   2.409   1.706   6.110  0.1956  0.3993  0.4514
20199TIP3    H182088   2.376   1.765   6.177  0.5191  1.7174 -0.4929
20199TIP3    H282089   2.356   1.726   6.032  1.4244  0.6755 -0.3469
20200TIP3   OH282090   6.084   2.995   0.135 -0.1850  0.0143  0.0158
20200TIP3    H182091   6.131   3.078   0.132 -0.1869  0.0245  0.2464
20200TIP3    H282092   6.116   2.947   0.059  1.6511 -0.7407  1.1871
20201TIP3   OH282093   4.941   6.709  15.647 -0.1388 -0.4957  0.2080
20201TIP3    H182094   4.910   6.702  15.738  0.6009  0.5961  0.5718
20201TIP3    H282095   4.862   6.720  15.595 -0.5148 -0.1516  0.8433
20202TIP3   OH282096   5.130   3.781  13.043 -0.0963  0.1595 -0.3354
20202TIP3    H182097   5.098   3.695  13.068  1.7557 -0.1286  1.2609
20202TIP3    H282098   5.057   3.840  13.062 -1.0577 -0.9271 -0.5662
20203TIP3   OH282099   1.959   1.646   3.844  0.0024  0.3781 -0.8959
20203TIP3    H182100   1.895   1.672   3.778  0.4118 -1.4936 -2.1088
20203TIP3    H282101   2.043   1.647   3.797  0.5580  0.7325  0.0876
20204TIP3   OH282102   3.346   5.858  15.609  0.4154 -0.3172  0.5385
20204TIP3    H182103   3.298   5.781  15.641 -0.7645  0.2849  0.2829
20204TIP3    H282104   3.277   5.916  15.576  1.2107  1.2091  1.4943
20205TIP3   OH282105   1.911   3.063  12.404  0.0644 -0.1343 -0.4022
20205TIP3    H182106   1.934   3.076  12.496  0.3204  0.5352 -0.5557
20205TIP3    H282107   1.922   3.150  12.364  1.6383 -0.7736 -1.4373
20206TIP3   OH282108   3.019   4.815   6.593  0.1027 -0.0683  0.1477
20206TIP3    H182109   2.999   4.756   6.666  0.3214  0.5184  0.7035
20206TIP3    H282110   3.048   4.896   6.636  3.0951 -0.6407 -0.5647
20207TIP3   OH282111   4.905   3.678  17.302 -0.1125  0.2725  0.3263
20207TIP3    H182112   4.929   3.601  17.353  0.9331 -0.5457 -1.3025
20207TIP3    H282113   4.832   3.650  17.248 -0.0440  0.5672  0.0756
20208TIP3   OH282114   3.551   4.936   2.717 -0.3956 -0.2526  0.1961
20208TIP3    H182115   3.615   4.909   2.783 -0.3195  0.1453  0.2850
20208TIP3    H282116   3.469   4.897   2.746 -0.5808  0.7673  1.0839
20209TIP3   OH282117   6.321   5.782  12.386  0.9174 -0.0332  0.1754
20209TIP3    H182118   6.309   5.817  12.298  1.8154 -0.0098  0.0458
20209TIP3    H282119   6.416   5.775  12.395  0.8039 -1.0787  0.7312
20210TIP3   OH282120   1.996   6.416  16.307  0.0085 -0.1294  0.0697
20210TIP3    H182121   2.002   6.344  16.370  1.7301 -1.0034 -1.0226
20210TIP3    H282122   1.970   6.375  16.225  0.4191  0.5855 -0.4325
20211TIP3   OH282123   2.484   2.655   6.364  0.4104  0.1433  0.2339
20211TIP3    H182124   2.391   2.681   6.367  0.4057  0.1819 -0.2245
20211TIP3    H282125   2.487   2.572   6.413 -0.8181 -2.6694 -3.8929
20212TIP3   OH282126   1.454   4.895  11.360  0.6935  0.1290  0.4372
20212TIP3    H182127   1.419   4.940  11.437 -0.0114 -0.4290  0.4626
20212TIP3    H282128   1.473   4.965  11.298 -0.5338  0.4781  0.4111
20213TIP3   OH282129   0.561   5.394   1.525 -0.2156 -0.4115  0.1219
20213TIP3    H182130   0.570   5.414   1.618 -0.8801  0.8407 -0.0582
20213TIP3    H282131   0.560   5.299   1.521 -0.0898 -0.4864  1.3861
20214TIP3   OH282132   3.877   6.436   3.241 -0.7483  0.8964  0.0019
20214TIP3    H182133   3.865   6.382   3.319  3.5453 -0.5604 -0.0936
20214TIP3    H282134   3.886   6.372   3.170  3.6023  1.5475 -0.2527
20215TIP3   OH282135   0.433   0.400  11.424  0.0832 -0.3797  0.4831
20215TIP3    H182136   0.440   0.324  11.481  0.1268  0.5546  1.7843
20215TIP3    H282137   0.408   0.365  11.339  0.3807 -1.8576  0.9826
20216TIP3   OH282138   5.721   5.616   4.160  0.6650 -0.5183 -0.1525
20216TIP3    H182139   5.727   5.703   4.199  1.0324 -0.1968 -0.9173
20216TIP3    H282140   5.802   5.572   4.186  0.2980 -0.7831  0.5743
20217TIP3   OH282141   2.554   0.733   3.780 -0.1106 -0.2324 -0.2412
20217TIP3    H182142   2.521   0.681   3.707  0.4163 -0.2327 -0.4850
20217TIP3    H282143   2.565   0.821   3.744  0.1340 -0.2294 -0.1641
20218TIP3   OH282144   5.641   0.764  14.724 -0.8300 -0.4533  0.4339
20218TIP3    H182145   5.681   0.815  14.654  0.0491 -2.0981 -0.3352
20218TIP3    H282146   5.715   0.724  14.769 -1.4774 -2.9602 -0.5298
20219TIP3   OH282147   0.786   5.481   3.796 -0.2344 -0.6080 -0.1550
20219TIP3    H182148   0.697   5.498   3.829 -0.0896  1.0265 -0.4942
20219TIP3    H282149   0.773   5.443   3.709 -0.6283  0.4846 -0.5926
20220TIP3   OH282150   1.051   0.380   2.772  0.0367  0.2623 -0.6336
20220TIP3    H182151   1.109   0.453   2.792 -1.7181  1.7521 -0.6953
20220TIP3    H282152   1.037   0.337   2.857  0.6577  0.3122 -0.4999
20221TIP3   OH282153   2.870   1.721  17.172  0.2799  0.6797 -0.1984
20221TIP3    H182154   2.957   1.762  17.169 -1.0079  3.5801 -0.6269
20221TIP3    H282155   2.831   1.754  17.252 -0.0154 -1.7323  0.7494
20222TIP3   OH282156   0.989   6.407  14.461  0.1081 -0.3845 -0.0300
20222TIP3    H182157   0.982   6.313  14.451 -1.0445 -0.3931  0.6512
20222TIP3    H282158   1.083   6.425  14.455  0.5266 -1.7871  1.4300
20223TIP3   OH282159   5.914   1.735   5.208 -0.4224 -0.2694 -0.4867
20223TIP3    H182160   5.948   1.754   5.121  0.8332 -1.6898 -0.3490
20223TIP3    H282161   5.864   1.654   5.197 -0.3436 -0.3982  0.0740
20224TIP3   OH282162   2.152   1.330   3.225  0.3474 -0.2826  0.0356
20224TIP3    H182163   2.159   1.271   3.300  0.7816  0.9991  1.0458
20224TIP3    H282164   2.187   1.413   3.257  0.6313  0.2724 -1.6309
20225TIP3   OH282165   1.287   2.130   5.801 -0.0782 -0.5204  0.8331
20225TIP3    H182166   1.223   2.178   5.852 -0.5257  0.5681 -0.6650
20225TIP3    H282167   1.365   2.127   5.856 -0.3154  1.2170  1.3233
20226TIP3   OH282168   5.518   5.959  14.290  0.1389 -0.0564  0.2250
20226TIP3    H182169   5.431   5.930  14.319  0.4906  0.4509  1.8888
20226TIP3    H282170   5.555   5.883  14.246 -0.3186 -0.9821  1.3989
20227TIP3   OH282171   0.484   4.457   3.831 -0.0619  0.2668 -0.0959
20227TIP3    H182172   0.504   4.513   3.755  0.6087  1.2766  0.8004
20227TIP3    H282173   0.558   4.397   3.836 -0.2541 -0.0028 -0.4091
20228TIP3   OH282174   0.016   5.671   0.898  0.1468  0.1588 -0.2678
20228TIP3    H182175  -0.031   5.605   0.949  0.3654 -0.5005 -0.8865
20228TIP3    H282176   0.092   5.624   0.863 -0.8409  0.0824 -2.5358
20229TIP3   OH282177   6.577   4.093  14.864 -0.1132  0.6769  0.0244
20229TIP3    H182178   6.514   4.036  14.907  0.6319 -0.0836  0.1465
20229TIP3    H282179   6.579   4.063  14.773  1.3156 -0.4810  0.3957
20230TIP3   OH282180   2.042   4.443  16.276 -0.1602  0.0471 -0.0503
20230TIP3    H182181   2.096   4.399  16.210 -0.4300 -0.3881  0.0194
20230TIP3    H282182   2.078   4.532  16.280  0.0589 -0.0132 -0.5569
20231TIP3   OH282183   1.404   5.583   1.856  0.3788 -0.2117  0.4246
20231TIP3    H182184   1.414   5.489   1.838  1.5435 -0.3120  1.4125
20231TIP3    H282185   1.472   5.625   1.804 -0.5431  0.1771 -0.5071
20232TIP3   OH282186   0.068   3.362   0.604 -0.0445 -0.1803 -0.1683
20232TIP3    H182187   0.108   3.423   0.666 -0.9550  1.1836 -0.8679
20232TIP3    H282188  -0.019   3.345   0.640 -0.1391 -0.3290 -0.4638
20233TIP3   OH282189   5.169   1.816   1.044  0.1101  0.6432 -0.2593
20233TIP3    H182190   5.165   1.865   0.961  0.1584 -0.6634 -1.0628
20233TIP3    H282191   5.126   1.873   1.107  0.1285  1.7064 -1.1713
20234TIP3   OH282192   0.869   6.260   2.950  0.4604  0.0100  0.1741
20234TIP3    H182193   0.923   6.315   3.006  0.9930 -1.3928  1.0768
20234TIP3    H282194   0.929   6.226   2.884 -0.1559  1.6219 -1.2893
20235TIP3   OH282195   0.904   3.651  16.772  0.4414 -0.5117 -0.5327
20235TIP3    H182196   0.959   3.730  16.770  1.6484 -1.2666  0.7248
20235TIP3    H282197   0.947   3.591  16.712 -0.0992 -0.4461 -0.9848
20236TIP3   OH282198   3.570   4.216  14.047  0.3025 -0.4112  0.0068
20236TIP3    H182199   3.549   4.124  14.062 -1.3450 -0.1835 -0.6265
20236TIP3    H282200   3.545   4.232  13.956 -0.3547  0.8738  0.3839
20237TIP3   OH282201   6.016   5.969  14.612  0.3111 -0.1073 -0.1537
20237TIP3    H182202   6.078   6.035  14.581 -1.9415  0.9965 -2.6673
20237TIP3    H282203   6.014   5.903  14.543 -1.6146  0.1411 -0.3769
20238TIP3   OH282204   4.793   4.001   4.182  0.6785  0.3344  0.3939
20238TIP3    H182205   4.886   4.000   4.160  0.3824 -0.2418 -1.0212
20238TIP3    H282206   4.778   3.916   4.224  0.4579 -0.4710 -1.1930
20239TIP3   OH282207   1.470   4.946  17.445  0.7871  0.3072  0.3403
20239TIP3    H182208   1.438   5.034  17.461  1.4266  0.4820  0.7038
20239TIP3    H282209   1.418   4.891  17.504  1.8558  0.7222  1.7190
20240TIP3   OH282210   4.410   5.339   0.077 -0.0054 -0.3332 -0.0954
20240TIP3    H182211   4.428   5.371   0.165 -0.5757  1.7654 -0.6735
20240TIP3    H282212   4.495   5.310   0.044  0.9524  2.1678 -0.0579
20241TIP3   OH282213   5.697   4.072   1.458  0.2704  0.3903 -0.6820
20241TIP3    H182214   5.640   3.996   1.456 -1.8464  1.8909 -1.7238
20241TIP3    H282215   5.739   4.073   1.372  1.1142 -0.1431 -0.2889
20242TIP3   OH282216   5.796   4.490   0.053 -0.1635  0.1411 -0.4812
20242TIP3    H182217   5.786   4.566  -0.004 -0.9017  0.5540  0.1945
20242TIP3    H282218   5.767   4.416  -0.000 -0.8744  0.5255 -0.6357
20243TIP3   OH282219   4.717   3.166   1.084  0.0455 -0.3361 -0.3074
20243TIP3    H182220   4.736   3.260   1.090  1.1865 -0.6328  1.7444
20243TIP3    H282221   4.622   3.162   1.068  0.0926  1.1469 -1.1535
20244TIP3   OH282222   1.689   6.044  13.147 -0.1659 -0.0923 -0.2488
20244TIP3    H182223   1.721   6.104  13.080  1.2459 -0.8995 -0.3217
20244TIP3    H282224   1.757   6.044  13.214 -0.4622 -1.0941  0.0649
20245TIP3   OH282225   1.157   2.150   3.717 -0.2583  0.3743  0.1256
20245TIP3    H182226   1.179   2.237   3.684  0.3358  0.1126 -0.1841
20245TIP3    H282227   1.134   2.163   3.809  0.4557  0.7686  0.2511
20246TIP3   OH282228   5.538   0.836  14.064 -0.4866 -0.2988 -0.1752
20246TIP3    H182229   5.592   0.900  14.111  0.1005  0.8833 -2.3640
20246TIP3    H282230   5.592   0.809  13.990 -2.1693 -0.5448 -1.3530
20247TIP3   OH282231   2.158   2.223  15.499  0.0732 -1.2947  0.4910
20247TIP3    H182232   2.186   2.145  15.546  1.9275  0.2229  2.0923
20247TIP3    H282233   2.237   2.255  15.456 -0.7411 -0.4767 -0.4725
20248TIP3   OH282234   6.772   4.134  16.991 -0.0821  0.6349  0.6367
20248TIP3    H182235   6.806   4.127  17.080 -1.2188 -1.0407  0.9919
20248TIP3    H282236   6.715   4.212  16.993 -1.1482 -0.1430  1.7801
20249TIP3   OH282237   0.156   5.727  15.847  0.3922 -0.2319 -0.1363
20249TIP3    H182238   0.152   5.663  15.918 -0.3865 -1.0612 -0.9081
20249TIP3    H282239   0.109   5.803  15.880  1.3498 -0.0137  0.8007
20250TIP3   OH282240   6.132   0.658   2.178  0.0444  0.3537  0.4188
20250TIP3    H182241   6.097   0.572   2.154  0.4800 -0.4566  2.4011
20250TIP3    H282242   6.193   0.680   2.108 -1.8120  0.1672 -1.3198
20251TIP3   OH282243   3.870   6.598  17.396 -0.0789 -0.7365 -0.0303
20251TIP3    H182244   3.884   6.504  17.406 -1.3288 -0.9056  0.2985
20251TIP3    H282245   3.821   6.606  17.314  1.0301 -0.2576 -0.6632
20252TIP3   OH282246   1.907   6.484   3.514  0.2499  0.2690 -0.2401
20252TIP3    H182247   1.887   6.489   3.608  1.0818  1.3120 -0.1061
20252TIP3    H282248   1.873   6.566   3.478  1.5287  0.6904 -0.5267
20253TIP3   OH282249   4.893   0.848   5.100  0.4794 -0.3246  1.1094
20253TIP3    H182250   4.842   0.928   5.093  2.5158  1.0174  0.5563
20253TIP3    H282251   4.850   0.786   5.041 -0.5895  0.6857  0.8075
20254TIP3   OH282252   3.327   2.626  16.864  0.1946  0.0612  0.4733
20254TIP3    H182253   3.311   2.613  16.770  2.0434 -1.7709  0.3304
20254TIP3    H282254   3.249   2.593  16.907 -0.2986  0.0628 -0.3999
20255TIP3   OH282255   6.374   4.111  12.080 -0.4077  0.2840 -0.0462
20255TIP3    H182256   6.462   4.078  12.098 -0.4096 -0.4819 -1.3604
20255TIP3    H282257   6.387   4.198  12.042  0.0123 -1.0339 -3.1868
20256TIP3   OH282258   1.756   0.570  15.347  0.2224  0.0701 -0.4050
20256TIP3    H182259   1.718   0.484  15.327  2.2615 -1.0932  0.4624
20256TIP3    H282260   1.850   0.555  15.345  0.6148  2.2475  0.0803
20257TIP3   OH282261   0.888   6.622  16.157  0.0072 -0.4376  0.9228
20257TIP3    H182262   0.887   6.684  16.230 -1.3234  0.6835  0.0196
20257TIP3    H282263   0.895   6.677  16.079 -1.1969 -1.3981  0.0888
20258TIP3   OH282264   4.068   5.129  13.899 -0.0199 -0.0734  0.1916
20258TIP3    H182265   4.121   5.141  13.820 -0.7495  0.3399 -0.2430
20258TIP3    H282266   3.982   5.103  13.866  0.2686 -2.2036  0.9284
20259LIG      S82267   2.806   4.084  16.233 -0.2267 -0.2608 -0.3817
20259LIG     F182268   3.465   3.059  16.941 -0.2868  0.0763  0.4888
20259LIG     F282269   3.403   3.307  17.064 -0.0284 -0.6952 -0.2650
20259LIG     N182270   3.099   3.967  16.333 -0.1912  0.1513  0.2213
20259LIG     N282271   3.649   3.402  16.468  0.1770  0.5413 -0.1227
20259LIG     C182272   3.222   3.889  16.366  0.1785 -0.3739  0.0509
20259LIG     C282273   3.066   3.964  16.187 -0.1754  0.6450 -0.1546
20259LIG     C382274   2.985   3.936  16.410 -0.7458 -0.4515 -0.6981
20259LIG     C482275   3.207   3.740  16.334 -0.4593  0.2284  0.4304
20259LIG     C582276   2.976   4.091  16.159  0.1309  0.0632  0.3904
20259LIG     C682277   2.876   4.051  16.398 -0.1035 -0.1728  0.6380
20259LIG     C782278   3.319   3.651  16.358 -0.5604 -0.0449 -0.4971
20259LIG     C882279   3.638   3.272  16.548  0.5958 -0.6502 -0.0173
20259LIG     C982280   3.443   3.703  16.401  0.9453 -0.0470  0.3521
20259LIG    C1082281   3.303   3.509  16.369 -0.2249  0.3248  0.0705
20259LIG    C1182282   3.531   3.478  16.442 -0.7336  0.4055  0.0856
20259LIG    C1282283   3.546   3.620  16.437 -0.3615  0.6853  0.1974
20259LIG    C1382284   3.407   3.422  16.406  1.0193 -0.2382  0.2297
20259LIG    C1482285   3.590   3.293  16.694 -0.4488  0.0487  0.2256
20259LIG    C1582286   3.773   3.204  16.563  0.7740  0.5255  0.1232
20259LIG    C1682287   3.553   3.175  16.755  0.5635 -0.2699 -0.7462
20259LIG    C1782288   3.570   3.414  16.763  0.2675 -0.6835 -0.1295
20259LIG    C1882289   3.500   3.177  16.884 -0.1148 -0.2953 -0.5313
20259LIG    C1982290   3.509   3.424  16.888  1.0153  0.4405 -0.1753
20259LIG    C2082291   3.472   3.304  16.948  0.7871  0.4411  0.7199
20259LIG     H182292   3.254   3.900  16.472 -1.6707  2.4383  0.4256
20259LIG     H282293   3.305   3.935  16.308  0.0036 -0.4318 -0.2428
20259LIG     H382294   3.006   3.874  16.162 -0.3286  0.0810  2.0548
20259LIG     H482295   3.161   3.969  16.130  0.3362 -1.4710  0.4237
20259LIG     H582296   3.013   3.917  16.516 -2.1635 -0.2965 -0.2791
20259LIG     H682297   2.942   3.841  16.373 -0.6159 -0.6583 -0.3273
20259LIG     H782298   3.202   3.730  16.224 -0.0464 -0.4459  0.4695
20259LIG     H882299   3.116   3.704  16.386 -0.5296  2.0439  1.6664
20259LIG     H982300   3.031   4.183  16.186 -1.7233  1.6360 -0.9544
20259LIG    H1082301   2.960   4.084  16.050  0.4157 -2.1128  0.4404
20259LIG    H1182302   2.799   4.016  16.470 -0.8485 -1.1079 -0.5733
20259LIG    H1282303   2.907   4.146  16.447 -0.2066  0.2006 -0.0119
20259LIG    H1382304   3.572   3.217  16.478 -1.2800  1.2855  0.1031
20259LIG    H1482305   3.462   3.809  16.402  0.4052  0.0535  1.2445
20259LIG    H1582306   3.208   3.465  16.345 -0.7252  0.9026  0.9338
20259LIG    H1682307   3.731   3.453  16.499  1.6332 -0.8662 -1.4615
20259LIG    H1782308   3.638   3.671  16.463 -0.5889  1.8975 -1.2241
20259LIG    H1882309   3.399   3.314  16.397 -2.9070  0.0786 -2.4630
20259LIG    H1982310   3.818   3.204  16.462 -0.3558 -1.6976 -0.4334
20259LIG    H2082311   3.767   3.097  16.593  0.7618 -1.0715 -4.8244
20259LIG    H2182312   3.832   3.271  16.630 -0.9408  3.8522 -1.4732
20259LIG    H2282313   3.555   3.075  16.712  2.2183 -0.8895  0.6542
20259LIG    H2382314   3.621   3.500  16.724  0.5042 -0.3725  0.8596
20259LIG    H2482315   3.491   3.515  16.943 -2.6366 -0.7837  0.9651
   6.77775   6.77775  17.49001
